GROningen MAchine for Chemical Simulation
95940
    1G5    HO5'    1   3.115   6.658   5.649
    1G5     O5'    2   3.167   6.735   5.674
    1G5     C5'    3   3.142   6.839   5.577
    1G5     H5'    4   3.037   6.866   5.572
    1G5    H5''    5   3.162   6.790   5.481
    1G5     C4'    6   3.230   6.967   5.596
    1G5     H4'    7   3.202   7.046   5.527
    1G5     O4'    8   3.237   7.016   5.732
    1G5     C1'    9   3.368   7.029   5.780
    1G5     H1'   10   3.385   7.121   5.837
    1G5      N9   11   3.410   6.925   5.878
    1G5      C8   12   3.335   6.822   5.922
    1G5      H8   13   3.236   6.800   5.884
    1G5      N7   14   3.389   6.760   6.020
    1G5      C5   15   3.513   6.831   6.041
    1G5      C6   16   3.615   6.822   6.148
    1G5      O6   17   3.616   6.748   6.242
    1G5      N1   18   3.714   6.918   6.137
    1G5      H1   19   3.768   6.937   6.220
    1G5      C2   20   3.722   7.002   6.029
    1G5      N2   21   3.822   7.079   6.028
    1G5     H21   22   3.892   7.065   6.099
    1G5     H22   23   3.844   7.140   5.951
    1G5      N3   24   3.631   7.012   5.932
    1G5      C4   25   3.523   6.930   5.950
    1G5     C3'   26   3.375   6.927   5.573
    1G5     H3'   27   3.393   6.825   5.607
    1G5     C2'   28   3.459   7.019   5.656
    1G5     H2'   29   3.554   6.970   5.681
    1G5     O2'   30   3.468   7.147   5.598
    1G5    HO2'   31   3.489   7.134   5.506
    1G5     O3'   32   3.415   6.949   5.433
    2G        P   33   3.525   6.853   5.360
    2G      OP1   34   3.555   6.916   5.231
    2G      OP2   35   3.467   6.711   5.364
    2G      O5'   36   3.654   6.861   5.460
    2G      C5'   37   3.740   6.970   5.461
    2G      H5'   38   3.684   7.054   5.502
    2G     H5''   39   3.757   6.989   5.354
    2G      C4'   40   3.863   6.952   5.556
    2G      H4'   41   3.926   7.034   5.522
    2G      O4'   42   3.843   6.963   5.691
    2G      C1'   43   3.922   6.880   5.770
    2G      H1'   44   3.972   6.928   5.855
    2G       N9   45   3.836   6.764   5.809
    2G       C8   46   3.704   6.744   5.769
    2G       H8   47   3.651   6.800   5.693
    2G       N7   48   3.646   6.649   5.837
    2G       C5   49   3.750   6.605   5.925
    2G       C6   50   3.748   6.502   6.024
    2G       O6   51   3.656   6.436   6.076
    2G       N1   52   3.877   6.476   6.074
    2G       H1   53   3.884   6.423   6.160
    2G       C2   54   3.986   6.552   6.047
    2G       N2   55   4.099   6.516   6.106
    2G      H21   56   4.103   6.437   6.170
    2G      H22   57   4.188   6.559   6.086
    2G       N3   58   3.987   6.651   5.963
    2G       C4   59   3.865   6.675   5.904
    2G      C3'   60   3.946   6.825   5.529
    2G      H3'   61   3.877   6.741   5.527
    2G      C2'   62   4.019   6.820   5.666
    2G      H2'   63   4.034   6.713   5.678
    2G      O2'   64   4.147   6.892   5.662
    2G     HO2'   65   4.145   6.945   5.582
    2G      O3'   66   4.036   6.844   5.423
    3G        P   67   4.058   6.716   5.325
    3G      OP1   68   4.153   6.753   5.226
    3G      OP2   69   3.926   6.664   5.276
    3G      O5'   70   4.132   6.603   5.414
    3G      C5'   71   4.275   6.597   5.450
    3G      H5'   72   4.300   6.691   5.498
    3G     H5''   73   4.329   6.574   5.358
    3G      C4'   74   4.298   6.493   5.551
    3G      H4'   75   4.406   6.493   5.561
    3G      O4'   76   4.252   6.533   5.679
    3G      C1'   77   4.207   6.417   5.746
    3G      H1'   78   4.230   6.409   5.852
    3G       N9   79   4.061   6.385   5.741
    3G       C8   80   3.973   6.419   5.642
    3G       H8   81   4.006   6.476   5.557
    3G       N7   82   3.850   6.376   5.666
    3G       C5   83   3.864   6.303   5.786
    3G       C6   84   3.769   6.225   5.862
    3G       O6   85   3.653   6.211   5.842
    3G       N1   86   3.828   6.159   5.964
    3G       H1   87   3.774   6.102   6.027
    3G       C2   88   3.963   6.159   5.992
    3G       N2   89   4.007   6.084   6.087
    3G      H21   90   3.943   6.042   6.154
    3G      H22   91   4.106   6.094   6.104
    3G       N3   92   4.048   6.241   5.933
    3G       C4   93   3.993   6.307   5.832
    3G      C3'   94   4.262   6.349   5.523
    3G      H3'   95   4.165   6.353   5.474
    3G      C2'   96   4.275   6.299   5.668
    3G      H2'   97   4.222   6.205   5.681
    3G      O2'   98   4.402   6.267   5.720
    3G     HO2'   99   4.466   6.256   5.649
    3G      O3'  100   4.361   6.280   5.451
    4U        P  101   4.331   6.145   5.368
    4U      OP1  102   4.456   6.098   5.302
    4U      OP2  103   4.214   6.183   5.290
    4U      O5'  104   4.285   6.038   5.466
    4U      C5'  105   4.382   5.981   5.550
    4U      H5'  106   4.432   6.056   5.612
    4U     H5''  107   4.450   5.924   5.487
    4U      C4'  108   4.319   5.881   5.652
    4U      H4'  109   4.394   5.832   5.715
    4U      O4'  110   4.217   5.946   5.730
    4U      C1'  111   4.144   5.839   5.799
    4U      H1'  112   4.177   5.832   5.902
    4U       N1  113   4.000   5.877   5.807
    4U       C6  114   3.947   5.951   5.702
    4U       H6  115   4.019   5.990   5.632
    4U       C5  116   3.809   5.956   5.683
    4U       H5  117   3.763   6.019   5.608
    4U       C4  118   3.722   5.883   5.773
    4U       O4  119   3.606   5.864   5.753
    4U       N3  120   3.786   5.818   5.877
    4U       H3  121   3.731   5.774   5.949
    4U       C2  122   3.915   5.808   5.897
    4U       O2  123   3.959   5.761   6.002
    4U      C3'  124   4.230   5.767   5.592
    4U      H3'  125   4.152   5.804   5.526
    4U      C2'  126   4.167   5.708   5.721
    4U      H2'  127   4.070   5.662   5.701
    4U      O2'  128   4.259   5.621   5.792
    4U     HO2'  129   4.309   5.568   5.729
    4U      O3'  130   4.300   5.666   5.528
    5U        P  131   4.244   5.585   5.404
    5U      OP1  132   4.355   5.493   5.371
    5U      OP2  133   4.210   5.684   5.302
    5U      O5'  134   4.117   5.501   5.456
    5U      C5'  135   4.133   5.373   5.515
    5U      H5'  136   4.212   5.374   5.590
    5U     H5''  137   4.160   5.304   5.435
    5U      C4'  138   3.996   5.335   5.577
    5U      H4'  139   4.019   5.256   5.648
    5U      O4'  140   3.927   5.445   5.638
    5U      C1'  141   3.786   5.444   5.608
    5U      H1'  142   3.749   5.417   5.707
    5U       N1  143   3.732   5.575   5.567
    5U       C6  144   3.812   5.662   5.494
    5U       H6  145   3.919   5.649   5.500
    5U       C5  146   3.759   5.769   5.419
    5U       H5  147   3.830   5.833   5.369
    5U       C4  148   3.617   5.794   5.416
    5U       O4  149   3.567   5.893   5.356
    5U       N3  150   3.546   5.710   5.496
    5U       H3  151   3.446   5.719   5.497
    5U       C2  152   3.595   5.596   5.565
    5U       O2  153   3.523   5.522   5.623
    5U      C3'  154   3.911   5.290   5.465
    5U      H3'  155   3.926   5.349   5.375
    5U      C2'  156   3.766   5.322   5.520
    5U      H2'  157   3.709   5.345   5.430
    5U      O2'  158   3.714   5.217   5.597
    5U     HO2'  159   3.703   5.141   5.539
    5U      O3'  160   3.914   5.150   5.441
    6A        P  161   3.946   5.088   5.297
    6A      OP1  162   3.918   4.943   5.313
    6A      OP2  163   4.079   5.129   5.249
    6A      O5'  164   3.826   5.158   5.205
    6A      C5'  165   3.694   5.097   5.203
    6A      H5'  166   3.664   5.069   5.304
    6A     H5''  167   3.701   5.003   5.149
    6A      C4'  168   3.594   5.183   5.131
    6A      H4'  169   3.494   5.140   5.146
    6A      O4'  170   3.592   5.309   5.188
    6A      C1'  171   3.546   5.408   5.094
    6A      H1'  172   3.450   5.445   5.130
    6A       N9  173   3.645   5.520   5.091
    6A       C8  174   3.753   5.542   5.170
    6A       H8  175   3.794   5.473   5.241
    6A       N7  176   3.820   5.649   5.134
    6A       C5  177   3.733   5.709   5.037
    6A       C6  178   3.746   5.828   4.957
    6A       N6  179   3.846   5.914   4.969
    6A      H61  180   3.842   5.988   4.901
    6A      H62  181   3.916   5.908   5.042
    6A       N1  182   3.650   5.854   4.864
    6A       C2  183   3.546   5.766   4.850
    6A       H2  184   3.466   5.788   4.782
    6A       N3  185   3.531   5.650   4.920
    6A       C4  186   3.632   5.627   5.012
    6A      C3'  187   3.620   5.210   4.981
    6A      H3'  188   3.726   5.234   4.978
    6A      C2'  189   3.532   5.339   4.958
    6A      H2'  190   3.567   5.401   4.876
    6A      O2'  191   3.392   5.320   4.929
    6A     HO2'  192   3.393   5.332   4.834
    6A      O3'  193   3.588   5.102   4.896
    7G        P  194   3.693   5.024   4.798
    7G      OP1  195   3.635   4.909   4.726
    7G      OP2  196   3.815   5.001   4.872
    7G      O5'  197   3.703   5.143   4.698
    7G      C5'  198   3.606   5.157   4.597
    7G      H5'  199   3.507   5.151   4.641
    7G     H5''  200   3.619   5.065   4.541
    7G      C4'  201   3.618   5.278   4.512
    7G      H4'  202   3.540   5.270   4.436
    7G      O4'  203   3.616   5.402   4.588
    7G      C1'  204   3.694   5.501   4.521
    7G      H1'  205   3.645   5.593   4.489
    7G       N9  206   3.796   5.550   4.613
    7G       C8  207   3.826   5.506   4.740
    7G       H8  208   3.775   5.426   4.792
    7G       N7  209   3.912   5.576   4.805
    7G       C5  210   3.950   5.673   4.709
    7G       C6  211   4.038   5.779   4.724
    7G       O6  212   4.096   5.819   4.829
    7G       N1  213   4.039   5.862   4.614
    7G       H1  214   4.111   5.933   4.613
    7G       C2  215   3.995   5.818   4.493
    7G       N2  216   4.017   5.898   4.392
    7G      H21  217   4.090   5.966   4.405
    7G      H22  218   3.993   5.866   4.299
    7G       N3  219   3.900   5.727   4.474
    7G       C4  220   3.887   5.654   4.588
    7G      C3'  221   3.748   5.280   4.428
    7G      H3'  222   3.833   5.250   4.489
    7G      C2'  223   3.749   5.428   4.392
    7G      H2'  224   3.850   5.460   4.367
    7G      O2'  225   3.665   5.458   4.276
    7G     HO2'  226   3.699   5.398   4.210
    7G      O3'  227   3.719   5.193   4.317
    8G        P  228   3.837   5.103   4.261
    8G      OP1  229   3.796   5.036   4.134
    8G      OP2  230   3.876   5.018   4.372
    8G      O5'  231   3.947   5.215   4.224
    8G      C5'  232   3.973   5.262   4.100
    8G      H5'  233   3.880   5.291   4.050
    8G     H5''  234   4.011   5.180   4.039
    8G      C4'  235   4.065   5.380   4.105
    8G      H4'  236   4.071   5.417   4.003
    8G      O4'  237   4.026   5.481   4.197
    8G      C1'  238   4.138   5.542   4.256
    8G      H1'  239   4.132   5.650   4.241
    8G       N9  240   4.158   5.506   4.393
    8G       C8  241   4.119   5.389   4.453
    8G       H8  242   4.063   5.315   4.397
    8G       N7  243   4.146   5.379   4.580
    8G       C5  244   4.221   5.491   4.602
    8G       C6  245   4.267   5.540   4.730
    8G       O6  246   4.264   5.489   4.841
    8G       N1  247   4.340   5.651   4.724
    8G       H1  248   4.394   5.687   4.803
    8G       C2  249   4.353   5.724   4.607
    8G       N2  250   4.420   5.839   4.622
    8G      H21  251   4.459   5.874   4.708
    8G      H22  252   4.442   5.889   4.537
    8G       N3  253   4.303   5.694   4.489
    8G       C4  254   4.233   5.573   4.491
    8G      C3'  255   4.212   5.355   4.131
    8G      H3'  256   4.219   5.295   4.222
    8G      C2'  257   4.254   5.495   4.163
    8G      H2'  258   4.351   5.490   4.212
    8G      O2'  259   4.250   5.593   4.056
    8G     HO2'  260   4.283   5.675   4.094
    8G      O3'  261   4.294   5.300   4.021
    9G        P  262   4.425   5.214   4.040
    9G      OP1  263   4.470   5.162   3.907
    9G      OP2  264   4.391   5.115   4.140
    9G      O5'  265   4.538   5.311   4.107
    9G      C5'  266   4.574   5.435   4.044
    9G      H5'  267   4.488   5.501   4.035
    9G     H5''  268   4.615   5.419   3.944
    9G      C4'  269   4.673   5.511   4.129
    9G      H4'  270   4.728   5.582   4.069
    9G      O4'  271   4.605   5.584   4.231
    9G      C1'  272   4.670   5.576   4.353
    9G      H1'  273   4.676   5.673   4.401
    9G       N9  274   4.613   5.474   4.454
    9G       C8  275   4.512   5.386   4.434
    9G       H8  276   4.464   5.369   4.339
    9G       N7  277   4.481   5.316   4.533
    9G       C5  278   4.553   5.378   4.638
    9G       C6  279   4.567   5.346   4.774
    9G       O6  280   4.510   5.256   4.826
    9G       N1  281   4.662   5.420   4.842
    9G       H1  282   4.660   5.403   4.941
    9G       C2  283   4.716   5.522   4.788
    9G       N2  284   4.809   5.577   4.863
    9G      H21  285   4.830   5.547   4.957
    9G      H22  286   4.859   5.648   4.812
    9G       N3  287   4.717   5.557   4.662
    9G       C4  288   4.632   5.478   4.589
    9G      C3'  289   4.784   5.430   4.196
    9G      H3'  290   4.735   5.341   4.236
    9G      C2'  291   4.813   5.527   4.310
    9G      H2'  292   4.864   5.473   4.390
    9G      O2'  293   4.883   5.649   4.281
    9G     HO2'  294   4.834   5.691   4.210
    9G      O3'  295   4.898   5.392   4.116
   10U        P  296   4.982   5.259   4.157
   10U      OP1  297   5.116   5.270   4.087
   10U      OP2  298   4.890   5.143   4.127
   10U      O5'  299   5.015   5.263   4.313
   10U      C5'  300   5.116   5.348   4.373
   10U      H5'  301   5.074   5.447   4.358
   10U     H5''  302   5.218   5.337   4.338
   10U      C4'  303   5.127   5.333   4.528
   10U      H4'  304   5.193   5.407   4.574
   10U      O4'  305   4.997   5.355   4.592
   10U      C1'  306   4.979   5.262   4.706
   10U      H1'  307   4.960   5.310   4.801
   10U       N1  308   4.865   5.172   4.671
   10U       C6  309   4.791   5.179   4.550
   10U       H6  310   4.827   5.243   4.470
   10U       C5  311   4.695   5.087   4.530
   10U       H5  312   4.643   5.090   4.435
   10U       C4  313   4.659   4.988   4.626
   10U       O4  314   4.569   4.902   4.616
   10U       N3  315   4.729   4.994   4.744
   10U       H3  316   4.715   4.927   4.818
   10U       C2  317   4.815   5.094   4.778
   10U       O2  318   4.851   5.104   4.896
   10U      C3'  319   5.168   5.192   4.583
   10U      H3'  320   5.108   5.119   4.530
   10U      C2'  321   5.111   5.200   4.722
   10U      H2'  322   5.095   5.102   4.767
   10U      O2'  323   5.199   5.269   4.802
   10U     HO2'  324   5.243   5.210   4.862
   10U      O3'  325   5.306   5.160   4.579
   11U        P  326   5.367   5.023   4.629
   11U      OP1  327   5.503   5.003   4.576
   11U      OP2  328   5.266   4.920   4.588
   11U      O5'  329   5.361   5.039   4.784
   11U      C5'  330   5.467   5.116   4.856
   11U      H5'  331   5.468   5.222   4.833
   11U     H5''  332   5.564   5.070   4.837
   11U      C4'  333   5.447   5.107   5.004
   11U      H4'  334   5.508   5.179   5.058
   11U      O4'  335   5.309   5.137   5.025
   11U      C1'  336   5.292   5.098   5.162
   11U      H1'  337   5.294   5.193   5.217
   11U       N1  338   5.153   5.042   5.187
   11U       C6  339   5.077   4.981   5.091
   11U       H6  340   5.110   4.985   4.988
   11U       C5  341   4.965   4.905   5.123
   11U       H5  342   4.914   4.846   5.049
   11U       C4  343   4.907   4.912   5.252
   11U       O4  344   4.802   4.859   5.288
   11U       N3  345   4.987   4.984   5.341
   11U       H3  346   4.947   4.994   5.434
   11U       C2  347   5.102   5.051   5.318
   11U       O2  348   5.156   5.105   5.412
   11U      C3'  349   5.475   4.974   5.068
   11U      H3'  350   5.421   4.901   5.007
   11U      C2'  351   5.394   4.993   5.206
   11U      H2'  352   5.359   4.898   5.247
   11U      O2'  353   5.473   5.067   5.296
   11U     HO2'  354   5.563   5.034   5.288
   11U      O3'  355   5.607   4.928   5.080
   12A        P  356   5.642   4.773   5.062
   12A      OP1  357   5.783   4.748   5.099
   12A      OP2  358   5.604   4.726   4.928
   12A      O5'  359   5.547   4.696   5.167
   12A      C5'  360   5.564   4.703   5.305
   12A      H5'  361   5.542   4.802   5.345
   12A     H5''  362   5.664   4.666   5.325
   12A      C4'  363   5.462   4.602   5.355
   12A      H4'  364   5.487   4.585   5.460
   12A      O4'  365   5.326   4.650   5.339
   12A      C1'  366   5.240   4.552   5.311
   12A      H1'  367   5.161   4.557   5.386
   12A       N9  368   5.186   4.567   5.174
   12A       C8  369   5.223   4.662   5.081
   12A       H8  370   5.312   4.722   5.095
   12A       N7  371   5.146   4.678   4.979
   12A       C5  372   5.037   4.588   5.008
   12A       C6  373   4.921   4.538   4.942
   12A       N6  374   4.874   4.584   4.826
   12A      H61  375   4.801   4.530   4.782
   12A      H62  376   4.915   4.668   4.790
   12A       N1  377   4.835   4.449   4.987
   12A       C2  378   4.872   4.405   5.106
   12A       H2  379   4.802   4.336   5.151
   12A       N3  380   4.978   4.430   5.188
   12A       C4  381   5.060   4.523   5.128
   12A      C3'  382   5.452   4.463   5.285
   12A      H3'  383   5.466   4.476   5.177
   12A      C2'  384   5.310   4.419   5.322
   12A      H2'  385   5.265   4.353   5.248
   12A      O2'  386   5.302   4.369   5.458
   12A     HO2'  387   5.387   4.373   5.503
   12A      O3'  388   5.548   4.379   5.336
   13G        P  389   5.584   4.252   5.258
   13G      OP1  390   5.663   4.164   5.345
   13G      OP2  391   5.650   4.298   5.136
   13G      O5'  392   5.461   4.165   5.199
   13G      C5'  393   5.390   4.074   5.285
   13G      H5'  394   5.351   4.134   5.367
   13G     H5''  395   5.458   3.998   5.321
   13G      C4'  396   5.274   4.003   5.213
   13G      H4'  397   5.235   3.927   5.281
   13G      O4'  398   5.177   4.108   5.196
   13G      C1'  399   5.113   4.091   5.068
   13G      H1'  400   5.005   4.101   5.077
   13G       N9  401   5.152   4.192   4.975
   13G       C8  402   5.247   4.290   4.983
   13G       H8  403   5.327   4.292   5.055
   13G       N7  404   5.249   4.378   4.891
   13G       C5  405   5.141   4.343   4.814
   13G       C6  406   5.093   4.405   4.695
   13G       O6  407   5.138   4.508   4.640
   13G       N1  408   4.985   4.333   4.639
   13G       H1  409   4.946   4.359   4.550
   13G       C2  410   4.943   4.220   4.683
   13G       N2  411   4.836   4.181   4.625
   13G      H21  412   4.804   4.227   4.541
   13G      H22  413   4.797   4.091   4.650
   13G       N3  414   4.981   4.158   4.795
   13G       C4  415   5.080   4.223   4.858
   13G      C3'  416   5.299   3.946   5.073
   13G      H3'  417   5.367   4.021   5.031
   13G      C2'  418   5.153   3.962   5.003
   13G      H2'  419   5.152   3.975   4.895
   13G      O2'  420   5.048   3.874   5.045
   13G     HO2'  421   5.075   3.804   5.104
   13G      O3'  422   5.361   3.824   5.080
   14G        P  423   5.456   3.791   4.962
   14G      OP1  424   5.512   3.656   4.995
   14G      OP2  425   5.545   3.905   4.947
   14G      O5'  426   5.351   3.784   4.832
   14G      C5'  427   5.251   3.691   4.827
   14G      H5'  428   5.205   3.685   4.926
   14G     H5''  429   5.293   3.591   4.815
   14G      C4'  430   5.153   3.709   4.711
   14G      H4'  431   5.075   3.635   4.726
   14G      O4'  432   5.095   3.828   4.717
   14G      C1'  433   5.104   3.908   4.598
   14G      H1'  434   5.009   3.958   4.579
   14G       N9  435   5.203   4.022   4.596
   14G       C8  436   5.296   4.059   4.686
   14G       H8  437   5.320   3.995   4.770
   14G       N7  438   5.364   4.168   4.664
   14G       C5  439   5.309   4.210   4.539
   14G       C6  440   5.339   4.322   4.459
   14G       O6  441   5.417   4.409   4.490
   14G       N1  442   5.255   4.331   4.347
   14G       H1  443   5.266   4.418   4.296
   14G       C2  444   5.163   4.236   4.312
   14G       N2  445   5.119   4.260   4.187
   14G      H21  446   5.157   4.329   4.124
   14G      H22  447   5.043   4.206   4.150
   14G       N3  448   5.132   4.126   4.384
   14G       C4  449   5.206   4.126   4.502
   14G      C3'  450   5.217   3.708   4.567
   14G      H3'  451   5.314   3.757   4.562
   14G      C2'  452   5.137   3.808   4.491
   14G      H2'  453   5.197   3.845   4.408
   14G      O2'  454   5.016   3.750   4.445
   14G     HO2'  455   5.027   3.657   4.425
   14G      O3'  456   5.220   3.579   4.499
   15G        P  457   5.340   3.540   4.407
   15G      OP1  458   5.311   3.409   4.351
   15G      OP2  459   5.467   3.560   4.479
   15G      O5'  460   5.346   3.642   4.284
   15G      C5'  461   5.255   3.631   4.180
   15G      H5'  462   5.154   3.609   4.214
   15G     H5''  463   5.287   3.551   4.112
   15G      C4'  464   5.251   3.762   4.096
   15G      H4'  465   5.177   3.752   4.017
   15G      O4'  466   5.232   3.880   4.174
   15G      C1'  467   5.335   3.972   4.130
   15G      H1'  468   5.281   4.066   4.120
   15G       N9  469   5.442   3.988   4.241
   15G       C8  470   5.455   3.924   4.362
   15G       H8  471   5.415   3.826   4.386
   15G       N7  472   5.537   3.974   4.446
   15G       C5  473   5.578   4.096   4.389
   15G       C6  474   5.652   4.206   4.440
   15G       O6  475   5.693   4.228   4.552
   15G       N1  476   5.670   4.309   4.347
   15G       H1  477   5.739   4.380   4.366
   15G       C2  478   5.634   4.301   4.218
   15G       N2  479   5.671   4.392   4.132
   15G      H21  480   5.722   4.473   4.165
   15G      H22  481   5.641   4.387   4.035
   15G       N3  482   5.552   4.206   4.172
   15G       C4  483   5.526   4.102   4.261
   15G      C3'  484   5.387   3.781   4.026
   15G      H3'  485   5.460   3.751   4.101
   15G      C2'  486   5.392   3.933   3.996
   15G      H2'  487   5.497   3.962   3.988
   15G      O2'  488   5.308   3.973   3.890
   15G     HO2'  489   5.306   3.915   3.814
   15G      O3'  490   5.395   3.692   3.905
   16U        P  491   5.535   3.636   3.861
   16U      OP1  492   5.532   3.577   3.729
   16U      OP2  493   5.567   3.548   3.979
   16U      O5'  494   5.630   3.763   3.874
   16U      C5'  495   5.644   3.853   3.764
   16U      H5'  496   5.554   3.899   3.725
   16U     H5''  497   5.687   3.788   3.688
   16U      C4'  498   5.755   3.964   3.793
   16U      H4'  499   5.765   4.037   3.713
   16U      O4'  500   5.716   4.033   3.906
   16U      C1'  501   5.829   4.061   3.981
   16U      H1'  502   5.839   4.169   3.991
   16U       N1  503   5.820   4.011   4.120
   16U       C6  504   5.757   3.897   4.152
   16U       H6  505   5.707   3.840   4.075
   16U       C5  506   5.767   3.836   4.275
   16U       H5  507   5.711   3.747   4.297
   16U       C4  508   5.833   3.906   4.377
   16U       O4  509   5.841   3.866   4.496
   16U       N3  510   5.907   4.018   4.342
   16U       H3  511   5.945   4.076   4.416
   16U       C2  512   5.898   4.078   4.213
   16U       O2  513   5.971   4.170   4.187
   16U      C3'  514   5.894   3.900   3.816
   16U      H3'  515   5.866   3.804   3.859
   16U      C2'  516   5.953   4.001   3.907
   16U      H2'  517   6.023   3.966   3.983
   16U      O2'  518   6.016   4.109   3.843
   16U     HO2'  519   6.105   4.082   3.820
   16U      O3'  520   5.961   3.881   3.692
   17U        P  521   6.111   3.817   3.681
   17U      OP1  522   6.146   3.794   3.541
   17U      OP2  523   6.121   3.711   3.779
   17U      O5'  524   6.204   3.940   3.725
   17U      C5'  525   6.346   3.927   3.727
   17U      H5'  526   6.385   3.978   3.639
   17U     H5''  527   6.387   3.828   3.745
   17U      C4'  528   6.392   4.013   3.843
   17U      H4'  529   6.500   4.029   3.843
   17U      O4'  530   6.350   4.142   3.834
   17U      C1'  531   6.347   4.207   3.954
   17U      H1'  532   6.443   4.257   3.963
   17U       N1  533   6.243   4.316   3.963
   17U       C6  534   6.168   4.360   3.857
   17U       H6  535   6.159   4.306   3.764
   17U       C5  536   6.086   4.465   3.872
   17U       H5  537   6.027   4.497   3.788
   17U       C4  538   6.076   4.541   3.997
   17U       O4  539   6.021   4.649   4.010
   17U       N3  540   6.144   4.485   4.099
   17U       H3  541   6.133   4.533   4.187
   17U       C2  542   6.231   4.383   4.092
   17U       O2  543   6.307   4.376   4.187
   17U      C3'  544   6.349   3.966   3.985
   17U      H3'  545   6.252   3.917   3.968
   17U      C2'  546   6.336   4.103   4.055
   17U      H2'  547   6.240   4.111   4.106
   17U      O2'  548   6.447   4.127   4.140
   17U     HO2'  549   6.438   4.068   4.215
   17U      O3'  550   6.448   3.885   4.053
   18A        P  551   6.416   3.806   4.182
   18A      OP1  552   6.509   3.694   4.183
   18A      OP2  553   6.268   3.788   4.180
   18A      O5'  554   6.451   3.898   4.308
   18A      C5'  555   6.580   3.951   4.338
   18A      H5'  556   6.636   3.984   4.251
   18A     H5''  557   6.646   3.875   4.381
   18A      C4'  558   6.573   4.055   4.446
   18A      H4'  559   6.668   4.107   4.430
   18A      O4'  560   6.461   4.137   4.422
   18A      C1'  561   6.429   4.203   4.544
   18A      H1'  562   6.472   4.303   4.540
   18A       N9  563   6.284   4.211   4.566
   18A       C8  564   6.180   4.174   4.486
   18A       H8  565   6.197   4.122   4.393
   18A       N7  566   6.061   4.196   4.535
   18A       C5  567   6.085   4.267   4.651
   18A       C6  568   6.012   4.329   4.756
   18A       N6  569   5.880   4.332   4.759
   18A      H61  570   5.835   4.390   4.829
   18A      H62  571   5.820   4.294   4.687
   18A       N1  572   6.067   4.387   4.864
   18A       C2  573   6.196   4.368   4.872
   18A       H2  574   6.240   4.423   4.954
   18A       N3  575   6.283   4.315   4.792
   18A       C4  576   6.224   4.267   4.683
   18A      C3'  577   6.553   3.991   4.581
   18A      H3'  578   6.471   3.919   4.579
   18A      C2'  579   6.514   4.118   4.653
   18A      H2'  580   6.460   4.102   4.747
   18A      O2'  581   6.631   4.197   4.671
   18A     HO2'  582   6.708   4.139   4.668
   18A      O3'  583   6.674   3.931   4.620
   19G        P  584   6.670   3.811   4.727
   19G      OP1  585   6.812   3.758   4.738
   19G      OP2  586   6.564   3.716   4.692
   19G      O5'  587   6.624   3.869   4.868
   19G      C5'  588   6.697   3.974   4.935
   19G      H5'  589   6.737   4.052   4.870
   19G     H5''  590   6.786   3.923   4.972
   19G      C4'  591   6.615   4.035   5.048
   19G      H4'  592   6.686   4.099   5.100
   19G      O4'  593   6.512   4.105   4.984
   19G      C1'  594   6.405   4.100   5.072
   19G      H1'  595   6.369   4.199   5.101
   19G       N9  596   6.296   4.034   4.995
   19G       C8  597   6.307   3.939   4.899
   19G       H8  598   6.400   3.890   4.875
   19G       N7  599   6.192   3.908   4.852
   19G       C5  600   6.094   3.994   4.907
   19G       C6  601   5.955   4.016   4.881
   19G       O6  602   5.880   3.971   4.797
   19G       N1  603   5.902   4.109   4.964
   19G       H1  604   5.809   4.146   4.957
   19G       C2  605   5.978   4.171   5.066
   19G       N2  606   5.923   4.261   5.145
   19G      H21  607   5.828   4.295   5.140
   19G      H22  608   5.978   4.307   5.216
   19G       N3  609   6.107   4.151   5.096
   19G       C4  610   6.161   4.062   5.006
   19G      C3'  611   6.552   3.940   5.143
   19G      H3'  612   6.530   3.845   5.095
   19G      C2'  613   6.436   4.018   5.197
   19G      H2'  614   6.349   3.956   5.218
   19G      O2'  615   6.466   4.115   5.296
   19G     HO2'  616   6.551   4.090   5.332
   19G      O3'  617   6.643   3.909   5.249
   20G        P  618   6.642   3.765   5.316
   20G      OP1  619   6.751   3.774   5.416
   20G      OP2  620   6.649   3.648   5.223
   20G      O5'  621   6.504   3.753   5.396
   20G      C5'  622   6.485   3.828   5.516
   20G      H5'  623   6.516   3.933   5.506
   20G     H5''  624   6.542   3.789   5.600
   20G      C4'  625   6.339   3.822   5.557
   20G      H4'  626   6.326   3.865   5.656
   20G      O4'  627   6.258   3.888   5.458
   20G      C1'  628   6.138   3.815   5.443
   20G      H1'  629   6.052   3.878   5.468
   20G       N9  630   6.116   3.763   5.308
   20G       C8  631   6.188   3.675   5.236
   20G       H8  632   6.278   3.634   5.279
   20G       N7  633   6.138   3.658   5.117
   20G       C5  634   6.016   3.727   5.116
   20G       C6  635   5.914   3.741   5.011
   20G       O6  636   5.919   3.701   4.895
   20G       N1  637   5.805   3.817   5.046
   20G       H1  638   5.738   3.847   4.976
   20G       C2  639   5.796   3.874   5.176
   20G       N2  640   5.686   3.927   5.194
   20G      H21  641   5.615   3.911   5.124
   20G      H22  642   5.671   4.005   5.257
   20G       N3  643   5.891   3.864   5.268
   20G       C4  644   6.004   3.792   5.236
   20G      C3'  645   6.283   3.680   5.570
   20G      H3'  646   6.315   3.614   5.489
   20G      C2'  647   6.134   3.695   5.537
   20G      H2'  648   6.099   3.607   5.481
   20G      O2'  649   6.055   3.739   5.653
   20G     HO2'  650   6.061   3.668   5.718
   20G      O3'  651   6.296   3.619   5.694
   21G3       P  652   6.289   3.465   5.723
   21G3     OP1  653   6.378   3.436   5.844
   21G3     OP2  654   6.309   3.389   5.599
   21G3     O5'  655   6.139   3.449   5.757
   21G3     C5'  656   6.094   3.466   5.882
   21G3     H5'  657   6.133   3.566   5.905
   21G3    H5''  658   6.141   3.394   5.948
   21G3     C4'  659   5.937   3.452   5.883
   21G3     H4'  660   5.905   3.480   5.984
   21G3     O4'  661   5.873   3.551   5.793
   21G3     C1'  662   5.779   3.479   5.716
   21G3     H1'  663   5.689   3.540   5.717
   21G3      N9  664   5.812   3.466   5.571
   21G3      C8  665   5.915   3.398   5.516
   21G3      H8  666   6.003   3.366   5.570
   21G3      N7  667   5.910   3.390   5.389
   21G3      C5  668   5.803   3.474   5.352
   21G3      C6  669   5.748   3.510   5.225
   21G3      O6  670   5.797   3.497   5.115
   21G3      N1  671   5.626   3.570   5.225
   21G3      H1  672   5.585   3.594   5.136
   21G3      C2  673   5.573   3.613   5.342
   21G3      N2  674   5.466   3.690   5.333
   21G3     H21  675   5.424   3.722   5.247
   21G3     H22  676   5.427   3.703   5.426
   21G3      N3  677   5.620   3.584   5.467
   21G3      C4  678   5.733   3.514   5.465
   21G3     C3'  679   5.877   3.312   5.849
   21G3     H3'  680   5.946   3.265   5.778
   21G3     C2'  681   5.747   3.345   5.784
   21G3     H2'  682   5.733   3.268   5.708
   21G3     O2'  683   5.634   3.357   5.869
   21G3    HO2'  684   5.549   3.350   5.826
   21G3     O3'  685   5.859   3.210   5.947
   21G3    HO3'  686   5.769   3.223   5.978
   22Cl-    Cl-  687   9.363   0.916   3.347
   23Cl-    Cl-  688   0.993   0.162   9.510
   24Cl-    Cl-  689   0.870   4.931   8.141
   25Cl-    Cl-  690   2.500   3.726   7.185
   26Cl-    Cl-  691   9.222   4.798   0.521
   27Cl-    Cl-  692   9.193   1.618   9.089
   28Cl-    Cl-  693   9.624   3.198   5.720
   29Cl-    Cl-  694   9.331   9.653   6.343
   30Cl-    Cl-  695   1.399   6.908   2.763
   31Cl-    Cl-  696   6.643   4.776   7.320
   32Cl-    Cl-  697   5.272   2.097   5.176
   33Cl-    Cl-  698   7.090   3.096   6.039
   34Cl-    Cl-  699   6.568   7.991   4.026
   35Cl-    Cl-  700   3.551   5.137   9.775
   36Cl-    Cl-  701   1.410   3.350   0.077
   37Cl-    Cl-  702   0.023   8.769   2.176
   38Cl-    Cl-  703   8.565   2.062   7.463
   39Cl-    Cl-  704   4.759   8.630   9.475
   40Cl-    Cl-  705   1.166   6.011   5.986
   41Cl-    Cl-  706   3.024   4.580   2.528
   42Cl-    Cl-  707   6.733   6.894   0.477
   43Cl-    Cl-  708   5.081   3.251   7.569
   44Cl-    Cl-  709   4.611   5.971   6.597
   45Cl-    Cl-  710   8.044   4.130   9.774
   46Cl-    Cl-  711   1.732   7.023   6.391
   47Cl-    Cl-  712   7.183   7.638   8.350
   48Cl-    Cl-  713   2.384   6.678   6.535
   49Cl-    Cl-  714   8.429   9.539   8.521
   50Cl-    Cl-  715   8.446   2.574   3.825
   51Cl-    Cl-  716   6.837   3.212   3.630
   52Cl-    Cl-  717   0.385   5.856   8.639
   53Cl-    Cl-  718   1.586   5.426   1.920
   54Cl-    Cl-  719   1.995   9.655   4.474
   55Cl-    Cl-  720   2.307   7.851   9.612
   56Cl-    Cl-  721   3.410   1.173   2.732
   57Cl-    Cl-  722   8.187   2.569   2.678
   58Cl-    Cl-  723   3.630   6.767   8.291
   59Cl-    Cl-  724   9.808   4.625   6.676
   60Cl-    Cl-  725   3.508   2.163   1.155
   61Cl-    Cl-  726   6.211   1.175   7.227
   62Cl-    Cl-  727   7.107   3.685   0.827
   63Cl-    Cl-  728   2.438   0.919   6.820
   64Cl-    Cl-  729   7.105   2.183   3.528
   65Cl-    Cl-  730   3.017   3.398   3.218
   66Cl-    Cl-  731   3.507   4.321   1.329
   67Cl-    Cl-  732   5.428   7.669   2.583
   68Cl-    Cl-  733   2.683   2.682   8.554
   69Cl-    Cl-  734   6.792   8.369   0.913
   70Cl-    Cl-  735   5.947   5.364   0.061
   71Cl-    Cl-  736   2.850   2.471   2.885
   72Cl-    Cl-  737   5.669   6.531   4.918
   73Cl-    Cl-  738   0.570   4.366   4.405
   74Cl-    Cl-  739   9.534   4.574   0.186
   75Cl-    Cl-  740   9.476   1.053   5.572
   76Cl-    Cl-  741   1.162   1.179   9.473
   77Cl-    Cl-  742   8.656   4.899   5.374
   78Cl-    Cl-  743   6.134   1.279   7.886
   79Cl-    Cl-  744   1.913   2.510   6.598
   80Cl-    Cl-  745   8.213   0.843   3.027
   81Cl-    Cl-  746   0.013   5.470   2.888
   82Cl-    Cl-  747   8.222   1.429   6.945
   83Cl-    Cl-  748   7.208   4.825   4.538
   84Cl-    Cl-  749   3.384   0.255   6.446
   85Cl-    Cl-  750   7.524   6.283   5.980
   86Cl-    Cl-  751   6.860   5.873   7.396
   87Cl-    Cl-  752   4.690   2.804   4.017
   88Cl-    Cl-  753   6.834   2.613   6.367
   89Cl-    Cl-  754   7.886   1.204   7.999
   90Cl-    Cl-  755   3.954   9.616   4.358
   91Cl-    Cl-  756   9.796   7.626   1.024
   92Cl-    Cl-  757   9.514   3.208   0.699
   93Cl-    Cl-  758   9.415   5.786   9.045
   94Cl-    Cl-  759   1.862   0.713   8.265
   95Cl-    Cl-  760   5.138   6.426   2.012
   96Cl-    Cl-  761   5.561   0.021   8.423
   97Cl-    Cl-  762   4.959   8.039   7.782
   98Cl-    Cl-  763   6.555   9.002   8.501
   99Cl-    Cl-  764   3.457   7.253   2.291
  100Cl-    Cl-  765   8.306   7.821   8.626
  101Cl-    Cl-  766   4.966   8.743   7.502
  102Cl-    Cl-  767   9.186   8.093   2.954
  103Cl-    Cl-  768   6.178   2.377   1.023
  104Cl-    Cl-  769   3.398   6.603   1.391
  105Cl-    Cl-  770   9.067   9.418   4.526
  106Cl-    Cl-  771   1.832   7.225   8.505
  107K+      K+  772   6.224   3.320   9.370
  108K+      K+  773   2.075   6.315   6.340
  109K+      K+  774   4.211   4.884   4.470
  110K+      K+  775   5.631   3.982   4.698
  111K+      K+  776   7.477   9.481   9.127
  112K+      K+  777   3.137   6.517   6.302
  113K+      K+  778   0.189   8.052   2.235
  114K+      K+  779   5.261   0.826   2.057
  115K+      K+  780   7.769   7.326   3.591
  116K+      K+  781   6.404   3.305   1.214
  117K+      K+  782   5.670   7.592   1.749
  118K+      K+  783   8.638   2.243   9.767
  119K+      K+  784   8.954   8.531   8.206
  120K+      K+  785   5.710   3.213   4.470
  121K+      K+  786   3.595   6.422   5.625
  122K+      K+  787   5.835   5.268   9.361
  123K+      K+  788   4.090   6.424   5.171
  124K+      K+  789   4.002   6.573   1.396
  125K+      K+  790   4.084   5.629   5.037
  126K+      K+  791   2.379   1.869   8.321
  127K+      K+  792   8.134   1.701   2.830
  128K+      K+  793   1.445   7.059   9.526
  129K+      K+  794   9.236   9.590   9.303
  130K+      K+  795   1.996   6.835   0.471
  131K+      K+  796   9.263   0.967   5.336
  132K+      K+  797   6.235   6.495   7.951
  133K+      K+  798   0.692   5.640   5.140
  134K+      K+  799   1.845   7.855   9.442
  135K+      K+  800   7.929   3.552   1.057
  136K+      K+  801   2.985   2.558   1.495
  137K+      K+  802   5.307   1.452   8.248
  138K+      K+  803   6.705   0.586   7.380
  139K+      K+  804   8.111   3.362   2.623
  140K+      K+  805   1.197   4.866   1.588
  141K+      K+  806   3.675   4.327   4.882
  142K+      K+  807   5.574   5.273   4.533
  143K+      K+  808   5.906   1.774   4.987
  144K+      K+  809   2.031   2.887   6.150
  145K+      K+  810   4.560   5.820   2.514
  146K+      K+  811   8.467   7.725   6.229
  147K+      K+  812   1.164   6.476   5.473
  148K+      K+  813   7.621   5.729   2.334
  149K+      K+  814   1.234   6.042   8.653
  150K+      K+  815   6.873   3.737   6.833
  151K+      K+  816   9.757   5.461   7.586
  152K+      K+  817   0.314   1.033   7.856
  153K+      K+  818   0.322   4.511   6.286
  154K+      K+  819   7.352   5.091   1.165
  155K+      K+  820   8.954   3.674   0.747
  156K+      K+  821   6.048   3.791   4.647
  157K+      K+  822   3.081   6.440   7.137
  158K+      K+  823   3.913   0.735   6.878
  159K+      K+  824   6.266   7.481   0.506
  160K+      K+  825   8.274   2.816   8.014
  161K+      K+  826   4.257   5.256   4.955
  162K+      K+  827   1.135   1.426   8.598
  163K+      K+  828   6.740   1.239   0.591
  164K+      K+  829   9.234   2.886   6.237
  165K+      K+  830   5.917   2.086   1.266
  166K+      K+  831   5.231   3.046   2.815
  167K+      K+  832   0.480   5.303   4.192
  168K+      K+  833   7.714   3.753   5.164
  169K+      K+  834   7.171   6.667   6.230
  170K+      K+  835   9.424   0.095   4.863
  171K+      K+  836   5.489   5.037   2.367
  172K+      K+  837   3.042   3.852   7.888
  173K+      K+  838   4.551   4.979   5.129
  174K+      K+  839   4.216   9.568   6.711
  175K+      K+  840   5.862   7.614   6.093
  176K+      K+  841   0.606   0.702   3.545
  177K+      K+  842   3.220   1.159   3.287
  178K+      K+  843   3.514   1.153   8.219
  179K+      K+  844   6.045   3.394   5.056
  180K+      K+  845   3.296   6.444   9.525
  181K+      K+  846   3.463   4.595   3.478
  182K+      K+  847   7.917   4.619   3.685
  183K+      K+  848   5.137   8.424   9.124
  184K+      K+  849   0.041   3.566   0.566
  185K+      K+  850   2.498   5.332   1.820
  186K+      K+  851   5.543   4.397   4.720
  187K+      K+  852   4.263   8.126   4.215
  188K+      K+  853   4.450   4.370   1.304
  189K+      K+  854   0.303   0.155   9.342
  190K+      K+  855   1.347   0.281   5.961
  191K+      K+  856   3.938   9.337   4.751
  192K+      K+  857   8.798   7.957   1.056
  193K+      K+  858   6.836   3.591   3.947
  194K+      K+  859   6.147   7.878   7.621
  195K+      K+  860   4.799   6.041   7.426
  196K+      K+  861   5.781   3.380   3.958
  197K+      K+  862   6.146   4.956   0.231
  198K+      K+  863   3.178   1.614   2.948
  199K+      K+  864   2.691   4.878   7.216
  200K+      K+  865   6.768   7.038   4.111
  201K+      K+  866   8.788   4.727   8.418
  202K+      K+  867   5.469   9.791   4.374
  203K+      K+  868   5.443   7.111   2.607
  204K+      K+  869   6.348   0.525   7.642
  205K+      K+  870   6.468   1.400   6.896
  206K+      K+  871   8.129   3.185   4.647
  207K+      K+  872   5.329   4.668   4.520
  208K+      K+  873   0.752   9.592   0.197
  209K+      K+  874   6.979   5.216   5.894
  210K+      K+  875   2.549   7.621   1.878
  211K+      K+  876   6.348   6.795   1.085
  212WAT      O  877   8.936   3.702   5.974
  212WAT     H1  878   8.863   3.698   6.042
  212WAT     H2  879   8.946   3.613   5.930
  213WAT      O  880   0.957   9.414   3.264
  213WAT     H1  881   1.050   9.444   3.240
  213WAT     H2  882   0.913   9.484   3.319
  214WAT      O  883   2.392   7.347   6.344
  214WAT     H1  884   2.317   7.308   6.398
  214WAT     H2  885   2.368   7.440   6.316
  215WAT      O  886   8.596   3.398   5.545
  215WAT     H1  887   8.684   3.431   5.511
  215WAT     H2  888   8.607   3.362   5.638
  216WAT      O  889   4.149   9.548   5.962
  216WAT     H1  890   4.165   9.512   5.870
  216WAT     H2  891   4.097   9.481   6.016
  217WAT      O  892   3.504   2.159   9.032
  217WAT     H1  893   3.576   2.117   9.088
  217WAT     H2  894   3.545   2.228   8.973
  218WAT      O  895   8.228   0.629   9.516
  218WAT     H1  896   8.187   0.720   9.522
  218WAT     H2  897   8.265   0.604   9.606
  219WAT      O  898   1.673   7.928   1.469
  219WAT     H1  899   1.648   8.021   1.440
  219WAT     H2  900   1.740   7.890   1.405
  220WAT      O  901   2.142   2.132   0.821
  220WAT     H1  902   2.198   2.119   0.740
  220WAT     H2  903   2.193   2.183   0.890
  221WAT      O  904   6.125   1.443   0.406
  221WAT     H1  905   6.135   1.526   0.462
  221WAT     H2  906   6.028   1.428   0.387
  222WAT      O  907   8.842   7.541   6.793
  222WAT     H1  908   8.827   7.458   6.846
  222WAT     H2  909   8.809   7.527   6.700
  223WAT      O  910   4.123   1.163   2.393
  223WAT     H1  911   4.127   1.230   2.466
  223WAT     H2  912   4.038   1.110   2.401
  224WAT      O  913   0.724   2.003   9.462
  224WAT     H1  914   0.815   2.042   9.472
  224WAT     H2  915   0.675   2.051   9.389
  225WAT      O  916   2.798   1.525   5.762
  225WAT     H1  917   2.740   1.523   5.843
  225WAT     H2  918   2.824   1.431   5.737
  226WAT      O  919   9.383   0.896   9.496
  226WAT     H1  920   9.307   0.914   9.435
  226WAT     H2  921   9.406   0.798   9.493
  227WAT      O  922   9.314   1.332   3.343
  227WAT     H1  923   9.312   1.411   3.403
  227WAT     H2  924   9.390   1.341   3.279
  228WAT      O  925   1.781   1.224   5.168
  228WAT     H1  926   1.683   1.206   5.158
  228WAT     H2  927   1.795   1.319   5.196
  229WAT      O  928   6.136   0.815   7.762
  229WAT     H1  929   6.140   0.865   7.848
  229WAT     H2  930   6.084   0.868   7.695
  230WAT      O  931   4.854   9.619   4.345
  230WAT     H1  932   4.818   9.710   4.324
  230WAT     H2  933   4.911   9.587   4.269
  231WAT      O  934   9.727   6.133   7.959
  231WAT     H1  935   9.706   6.173   8.049
  231WAT     H2  936   9.825   6.145   7.940
  232WAT      O  937   2.612   3.599   0.917
  232WAT     H1  938   2.577   3.556   0.835
  232WAT     H2  939   2.545   3.664   0.953
  233WAT      O  940   2.719   8.485   7.157
  233WAT     H1  941   2.719   8.503   7.058
  233WAT     H2  942   2.812   8.464   7.187
  234WAT      O  943   0.035   6.205   8.829
  234WAT     H1  944  -0.039   6.254   8.876
  234WAT     H2  945   0.101   6.271   8.793
  235WAT      O  946   0.404   3.008   9.610
  235WAT     H1  947   0.356   3.093   9.632
  235WAT     H2  948   0.359   2.962   9.533
  236WAT      O  949   1.283   6.409   6.319
  236WAT     H1  950   1.345   6.426   6.396
  236WAT     H2  951   1.265   6.311   6.311
  237WAT      O  952   0.260   5.175   2.308
  237WAT     H1  953   0.313   5.092   2.291
  237WAT     H2  954   0.207   5.164   2.392
  238WAT      O  955   7.410   4.895   6.592
  238WAT     H1  956   7.423   4.994   6.589
  238WAT     H2  957   7.432   4.855   6.503
  239WAT      O  958   6.780   9.170   6.445
  239WAT     H1  959   6.688   9.132   6.436
  239WAT     H2  960   6.835   9.142   6.367
  240WAT      O  961   3.917   4.904   7.358
  240WAT     H1  962   3.820   4.892   7.336
  240WAT     H2  963   3.958   4.814   7.375
  241WAT      O  964   3.254   4.553   3.642
  241WAT     H1  965   3.295   4.569   3.732
  241WAT     H2  966   3.159   4.583   3.644
  242WAT      O  967   9.786   4.207   3.408
  242WAT     H1  968   9.704   4.264   3.416
  242WAT     H2  969   9.814   4.201   3.312
  243WAT      O  970   5.435   1.340   9.732
  243WAT     H1  971   5.360   1.275   9.747
  243WAT     H2  972   5.475   1.324   9.642
  244WAT      O  973   8.176   7.710   1.950
  244WAT     H1  974   8.097   7.654   1.975
  244WAT     H2  975   8.153   7.767   1.871
  245WAT      O  976   7.553   2.312   2.403
  245WAT     H1  977   7.454   2.322   2.414
  245WAT     H2  978   7.593   2.400   2.376
  246WAT      O  979   5.321   6.044   5.145
  246WAT     H1  980   5.366   6.095   5.072
  246WAT     H2  981   5.354   5.950   5.146
  247WAT      O  982   3.756   9.380   4.956
  247WAT     H1  983   3.753   9.436   5.039
  247WAT     H2  984   3.683   9.408   4.894
  248WAT      O  985   2.628   7.944   5.047
  248WAT     H1  986   2.616   8.011   4.974
  248WAT     H2  987   2.546   7.887   5.053
  249WAT      O  988   8.796   9.203   3.953
  249WAT     H1  989   8.866   9.169   4.016
  249WAT     H2  990   8.775   9.298   3.975
  250WAT      O  991   1.736   3.802   6.141
  250WAT     H1  992   1.696   3.840   6.058
  250WAT     H2  993   1.694   3.844   6.221
  251WAT      O  994   2.439   1.015   7.827
  251WAT     H1  995   2.469   1.026   7.733
  251WAT     H2  996   2.514   0.977   7.882
  252WAT      O  997   5.227   0.448   6.459
  252WAT     H1  998   5.305   0.496   6.419
  252WAT     H2  999   5.176   0.401   6.386
  253WAT      O 1000   2.980   7.948   8.086
  253WAT     H1 1001   3.050   7.878   8.105
  253WAT     H2 1002   2.982   7.971   7.989
  254WAT      O 1003   1.386   0.806   4.461
  254WAT     H1 1004   1.467   0.852   4.498
  254WAT     H2 1005   1.392   0.802   4.362
  255WAT      O 1006   2.895   4.696   5.092
  255WAT     H1 1007   2.816   4.690   5.032
  255WAT     H2 1008   2.936   4.606   5.105
  256WAT      O 1009   8.654   3.627   7.664
  256WAT     H1 1010   8.658   3.716   7.619
  256WAT     H2 1011   8.644   3.555   7.596
  257WAT      O 1012   6.051   2.952   1.211
  257WAT     H1 1013   5.969   3.009   1.213
  257WAT     H2 1014   6.048   2.892   1.131
  258WAT      O 1015   2.118   8.456   1.088
  258WAT     H1 1016   2.105   8.377   1.027
  258WAT     H2 1017   2.203   8.503   1.064
  259WAT      O 1018   1.439   3.962   5.159
  259WAT     H1 1019   1.441   3.876   5.109
  259WAT     H2 1020   1.350   3.974   5.202
  260WAT      O 1021   5.865   5.547   2.715
  260WAT     H1 1022   5.796   5.582   2.778
  260WAT     H2 1023   5.872   5.609   2.636
  261WAT      O 1024   0.257   7.179   5.405
  261WAT     H1 1025   0.264   7.087   5.367
  261WAT     H2 1026   0.300   7.181   5.495
  262WAT      O 1027   8.327   6.451   5.508
  262WAT     H1 1028   8.373   6.423   5.425
  262WAT     H2 1029   8.342   6.383   5.580
  263WAT      O 1030   0.428   4.361   4.141
  263WAT     H1 1031   0.498   4.409   4.089
  263WAT     H2 1032   0.454   4.359   4.238
  264WAT      O 1033   8.524   6.638   6.148
  264WAT     H1 1034   8.490   6.548   6.176
  264WAT     H2 1035   8.448   6.695   6.119
  265WAT      O 1036   7.045   0.293   9.446
  265WAT     H1 1037   6.947   0.296   9.465
  265WAT     H2 1038   7.096   0.298   9.532
  266WAT      O 1039   8.126   5.166   7.934
  266WAT     H1 1040   8.067   5.243   7.907
  266WAT     H2 1041   8.088   5.123   8.015
  267WAT      O 1042   5.686   6.847   4.983
  267WAT     H1 1043   5.670   6.749   4.999
  267WAT     H2 1044   5.671   6.868   4.887
  268WAT      O 1045   0.997   3.862   2.057
  268WAT     H1 1046   0.900   3.887   2.058
  268WAT     H2 1047   1.033   3.873   1.964
  269WAT      O 1048   1.315   4.973   1.014
  269WAT     H1 1049   1.342   4.887   0.970
  269WAT     H2 1050   1.396   5.028   1.032
  270WAT      O 1051   6.467   8.015   1.722
  270WAT     H1 1052   6.475   8.101   1.671
  270WAT     H2 1053   6.553   7.965   1.719
  271WAT      O 1054   7.963   0.210   7.115
  271WAT     H1 1055   7.927   0.208   7.209
  271WAT     H2 1056   8.061   0.189   7.117
  272WAT      O 1057   2.226   9.367   2.504
  272WAT     H1 1058   2.228   9.361   2.604
  272WAT     H2 1059   2.202   9.460   2.477
  273WAT      O 1060   7.198   9.416   6.451
  273WAT     H1 1061   7.127   9.355   6.487
  273WAT     H2 1062   7.156   9.503   6.426
  274WAT      O 1063   4.758   8.691   7.141
  274WAT     H1 1064   4.717   8.781   7.129
  274WAT     H2 1065   4.726   8.630   7.068
  275WAT      O 1066   4.715   4.016   3.860
  275WAT     H1 1067   4.756   4.009   3.951
  275WAT     H2 1068   4.617   3.999   3.865
  276WAT      O 1069   1.948   5.903   6.919
  276WAT     H1 1070   1.891   5.829   6.953
  276WAT     H2 1071   1.892   5.971   6.871
  277WAT      O 1072   6.260   8.302   9.386
  277WAT     H1 1073   6.228   8.275   9.295
  277WAT     H2 1074   6.316   8.385   9.378
  278WAT      O 1075   4.072   4.146   1.767
  278WAT     H1 1076   4.155   4.095   1.785
  278WAT     H2 1077   3.993   4.093   1.797
  279WAT      O 1078   4.356   0.760   0.842
  279WAT     H1 1079   4.305   0.741   0.926
  279WAT     H2 1080   4.309   0.717   0.765
  280WAT      O 1081   8.100   1.113   4.197
  280WAT     H1 1082   8.190   1.146   4.228
  280WAT     H2 1083   8.039   1.191   4.182
  281WAT      O 1084   5.291   3.051   5.622
  281WAT     H1 1085   5.339   2.966   5.600
  281WAT     H2 1086   5.338   3.128   5.579
  282WAT      O 1087   2.860   7.495   2.730
  282WAT     H1 1088   2.827   7.454   2.815
  282WAT     H2 1089   2.795   7.476   2.657
  283WAT      O 1090   1.972   3.749   9.682
  283WAT     H1 1091   2.052   3.690   9.689
  283WAT     H2 1092   1.893   3.694   9.654
  284WAT      O 1093   6.442   4.997   8.458
  284WAT     H1 1094   6.369   5.052   8.418
  284WAT     H2 1095   6.520   4.993   8.395
  285WAT      O 1096   6.773   4.724   7.025
  285WAT     H1 1097   6.817   4.635   7.017
  285WAT     H2 1098   6.710   4.724   7.102
  286WAT      O 1099   3.355   4.190   2.397
  286WAT     H1 1100   3.320   4.280   2.426
  286WAT     H2 1101   3.429   4.162   2.457
  287WAT      O 1102   8.594   4.221   3.874
  287WAT     H1 1103   8.688   4.187   3.879
  287WAT     H2 1104   8.557   4.231   3.966
  288WAT      O 1105   7.618   4.688   1.680
  288WAT     H1 1106   7.564   4.606   1.661
  288WAT     H2 1107   7.662   4.678   1.769
  289WAT      O 1108   5.628   8.049   6.966
  289WAT     H1 1109   5.720   8.015   6.943
  289WAT     H2 1110   5.634   8.144   6.994
  290WAT      O 1111   9.702   6.713   9.878
  290WAT     H1 1112   9.603   6.715   9.893
  290WAT     H2 1113   9.736   6.806   9.867
  291WAT      O 1114   9.270   0.017   7.180
  291WAT     H1 1115   9.194  -0.026   7.131
  291WAT     H2 1116   9.291  -0.037   7.262
  292WAT      O 1117   4.125   1.270   3.129
  292WAT     H1 1118   4.140   1.332   3.207
  292WAT     H2 1119   4.028   1.268   3.106
  293WAT      O 1120   9.083   8.854   2.099
  293WAT     H1 1121   9.147   8.930   2.099
  293WAT     H2 1122   9.120   8.779   2.154
  294WAT      O 1123   6.087   4.569   6.414
  294WAT     H1 1124   6.034   4.525   6.341
  294WAT     H2 1125   6.147   4.501   6.457
  295WAT      O 1126   7.103   5.634   3.526
  295WAT     H1 1127   7.025   5.573   3.512
  295WAT     H2 1128   7.071   5.729   3.533
  296WAT      O 1129   7.954   1.667   0.630
  296WAT     H1 1130   7.938   1.757   0.589
  296WAT     H2 1131   7.880   1.605   0.604
  297WAT      O 1132   6.301   0.223   7.732
  297WAT     H1 1133   6.391   0.199   7.697
  297WAT     H2 1134   6.311   0.269   7.821
  298WAT      O 1135   3.870   8.170   2.193
  298WAT     H1 1136   3.959   8.214   2.179
  298WAT     H2 1137   3.833   8.198   2.281
  299WAT      O 1138   9.670   5.937   6.445
  299WAT     H1 1139   9.589   5.880   6.437
  299WAT     H2 1140   9.644   6.033   6.438
  300WAT      O 1141   4.277   2.700   8.086
  300WAT     H1 1142   4.243   2.720   8.178
  300WAT     H2 1143   4.199   2.685   8.025
  301WAT      O 1144   8.502   3.663   0.801
  301WAT     H1 1145   8.482   3.699   0.892
  301WAT     H2 1146   8.417   3.632   0.758
  302WAT      O 1147   0.859   4.594   2.118
  302WAT     H1 1148   0.875   4.672   2.179
  302WAT     H2 1149   0.778   4.612   2.062
  303WAT      O 1150   2.263   3.701   6.987
  303WAT     H1 1151   2.184   3.698   7.049
  303WAT     H2 1152   2.346   3.720   7.039
  304WAT      O 1153   9.702   6.295   2.549
  304WAT     H1 1154   9.755   6.339   2.476
  304WAT     H2 1155   9.605   6.306   2.531
  305WAT      O 1156   0.460   6.636   7.235
  305WAT     H1 1157   0.485   6.730   7.257
  305WAT     H2 1158   0.361   6.630   7.223
  306WAT      O 1159   7.240   3.216   6.652
  306WAT     H1 1160   7.263   3.197   6.557
  306WAT     H2 1161   7.324   3.236   6.703
  307WAT      O 1162   4.966   7.051   2.467
  307WAT     H1 1163   4.968   7.141   2.425
  307WAT     H2 1164   4.941   6.982   2.398
  308WAT      O 1165   6.165   5.654   9.368
  308WAT     H1 1166   6.249   5.672   9.316
  308WAT     H2 1167   6.176   5.686   9.462
  309WAT      O 1168   5.430   9.711   7.531
  309WAT     H1 1169   5.404   9.784   7.594
  309WAT     H2 1170   5.528   9.693   7.541
  310WAT      O 1171   8.364   7.686   0.751
  310WAT     H1 1172   8.440   7.645   0.701
  310WAT     H2 1173   8.395   7.716   0.841
  311WAT      O 1174   6.327   3.854   9.493
  311WAT     H1 1175   6.233   3.821   9.504
  311WAT     H2 1176   6.352   3.853   9.397
  312WAT      O 1177   1.049   3.492   5.626
  312WAT     H1 1178   1.087   3.516   5.715
  312WAT     H2 1179   0.981   3.561   5.599
  313WAT      O 1180   3.588   7.341   1.315
  313WAT     H1 1181   3.615   7.262   1.261
  313WAT     H2 1182   3.667   7.374   1.367
  314WAT      O 1183   7.069   1.560   9.304
  314WAT     H1 1184   7.008   1.559   9.225
  314WAT     H2 1185   7.058   1.647   9.353
  315WAT      O 1186   4.510   1.832   8.801
  315WAT     H1 1187   4.567   1.831   8.883
  315WAT     H2 1188   4.516   1.744   8.754
  316WAT      O 1189   0.281   9.031   2.242
  316WAT     H1 1190   0.245   9.000   2.154
  316WAT     H2 1191   0.353   8.969   2.272
  317WAT      O 1192   8.945   3.343   1.777
  317WAT     H1 1193   8.849   3.342   1.805
  317WAT     H2 1194   9.004   3.340   1.858
  318WAT      O 1195   9.233   0.195   3.876
  318WAT     H1 1196   9.272   0.103   3.869
  318WAT     H2 1197   9.271   0.242   3.956
  319WAT      O 1198   7.591   8.080   5.138
  319WAT     H1 1199   7.579   8.170   5.097
  319WAT     H2 1200   7.686   8.050   5.128
  320WAT      O 1201   7.171   8.457   8.066
  320WAT     H1 1202   7.220   8.492   8.146
  320WAT     H2 1203   7.172   8.357   8.067
  321WAT      O 1204   7.920   3.743   1.628
  321WAT     H1 1205   8.012   3.773   1.653
  321WAT     H2 1206   7.853   3.806   1.667
  322WAT      O 1207   2.039   0.587   0.380
  322WAT     H1 1208   1.977   0.648   0.428
  322WAT     H2 1209   2.117   0.565   0.439
  323WAT      O 1210   4.462   6.290   8.291
  323WAT     H1 1211   4.552   6.247   8.280
  323WAT     H2 1212   4.413   6.246   8.366
  324WAT      O 1213   5.556   2.678   0.697
  324WAT     H1 1214   5.594   2.588   0.718
  324WAT     H2 1215   5.534   2.726   0.782
  325WAT      O 1216   1.773   3.021   1.604
  325WAT     H1 1217   1.725   3.040   1.518
  325WAT     H2 1218   1.801   3.107   1.646
  326WAT      O 1219   4.721   0.878   7.380
  326WAT     H1 1220   4.646   0.944   7.379
  326WAT     H2 1221   4.745   0.853   7.286
  327WAT      O 1222   4.490   0.331   7.349
  327WAT     H1 1223   4.562   0.282   7.301
  327WAT     H2 1224   4.405   0.278   7.346
  328WAT      O 1225   2.278   6.824   0.508
  328WAT     H1 1226   2.249   6.731   0.529
  328WAT     H2 1227   2.325   6.826   0.420
  329WAT      O 1228   1.695   1.875   0.149
  329WAT     H1 1229   1.601   1.868   0.180
  329WAT     H2 1230   1.743   1.789   0.165
  330WAT      O 1231   6.505   6.485   1.651
  330WAT     H1 1232   6.458   6.565   1.613
  330WAT     H2 1233   6.446   6.442   1.719
  331WAT      O 1234   0.569   0.217   9.371
  331WAT     H1 1235   0.649   0.158   9.358
  331WAT     H2 1236   0.600   0.307   9.401
  332WAT      O 1237   3.167   8.967   5.529
  332WAT     H1 1238   3.238   9.035   5.512
  332WAT     H2 1239   3.085   9.013   5.563
  333WAT      O 1240   9.702   7.108   6.011
  333WAT     H1 1241   9.790   7.104   6.058
  333WAT     H2 1242   9.632   7.142   6.073
  334WAT      O 1243   7.268   6.226   1.036
  334WAT     H1 1244   7.345   6.183   1.084
  334WAT     H2 1245   7.192   6.237   1.100
  335WAT      O 1246   4.961   9.551   5.079
  335WAT     H1 1247   4.976   9.599   4.992
  335WAT     H2 1248   5.029   9.478   5.089
  336WAT      O 1249   2.314   1.601   3.336
  336WAT     H1 1250   2.259   1.683   3.315
  336WAT     H2 1251   2.398   1.604   3.282
  337WAT      O 1252   3.302   5.556   5.797
  337WAT     H1 1253   3.392   5.533   5.759
  337WAT     H2 1254   3.311   5.570   5.896
  338WAT      O 1255   3.243   9.021   5.134
  338WAT     H1 1256   3.166   9.001   5.194
  338WAT     H2 1257   3.283   9.109   5.159
  339WAT      O 1258   0.983   0.016   1.529
  339WAT     H1 1259   1.031  -0.053   1.582
  339WAT     H2 1260   0.950   0.088   1.590
  340WAT      O 1261   3.221   2.004   7.556
  340WAT     H1 1262   3.248   2.013   7.652
  340WAT     H2 1263   3.155   1.929   7.547
  341WAT      O 1264   5.866   6.736   2.297
  341WAT     H1 1265   5.782   6.776   2.333
  341WAT     H2 1266   5.861   6.636   2.306
  342WAT      O 1267   4.038   1.421   2.104
  342WAT     H1 1268   4.107   1.421   2.176
  342WAT     H2 1269   3.975   1.497   2.118
  343WAT      O 1270   8.265   1.009   5.116
  343WAT     H1 1271   8.256   0.932   5.053
  343WAT     H2 1272   8.287   0.975   5.207
  344WAT      O 1273   1.199   6.813   0.863
  344WAT     H1 1274   1.127   6.836   0.797
  344WAT     H2 1275   1.224   6.895   0.914
  345WAT      O 1276   6.171   2.458   9.442
  345WAT     H1 1277   6.147   2.534   9.503
  345WAT     H2 1278   6.163   2.488   9.347
  346WAT      O 1279   0.223   4.148   5.829
  346WAT     H1 1280   0.235   4.066   5.774
  346WAT     H2 1281   0.219   4.124   5.926
  347WAT      O 1282   8.550   6.486   0.960
  347WAT     H1 1283   8.626   6.538   0.920
  347WAT     H2 1284   8.529   6.408   0.901
  348WAT      O 1285   6.847   3.166   2.219
  348WAT     H1 1286   6.799   3.091   2.175
  348WAT     H2 1287   6.840   3.248   2.163
  349WAT      O 1288   9.217   4.551   1.947
  349WAT     H1 1289   9.316   4.563   1.943
  349WAT     H2 1290   9.174   4.638   1.973
  350WAT      O 1291   0.518   3.742   0.622
  350WAT     H1 1292   0.545   3.660   0.672
  350WAT     H2 1293   0.599   3.786   0.583
  351WAT      O 1294   9.387   9.389   8.144
  351WAT     H1 1295   9.327   9.321   8.185
  351WAT     H2 1296   9.350   9.480   8.162
  352WAT      O 1297   3.330   1.101   7.548
  352WAT     H1 1298   3.400   1.155   7.500
  352WAT     H2 1299   3.320   1.135   7.641
  353WAT      O 1300   5.641   8.431   2.750
  353WAT     H1 1301   5.733   8.401   2.774
  353WAT     H2 1302   5.622   8.520   2.792
  354WAT      O 1303   3.812   3.886   9.593
  354WAT     H1 1304   3.739   3.940   9.551
  354WAT     H2 1305   3.772   3.819   9.656
  355WAT      O 1306   3.733   1.033   7.159
  355WAT     H1 1307   3.748   1.125   7.121
  355WAT     H2 1308   3.820   0.996   7.193
  356WAT      O 1309   9.771   4.752   4.746
  356WAT     H1 1310   9.725   4.703   4.820
  356WAT     H2 1311   9.833   4.820   4.785
  357WAT      O 1312   8.276   1.188   1.064
  357WAT     H1 1313   8.281   1.184   1.164
  357WAT     H2 1314   8.358   1.234   1.029
  358WAT      O 1315   8.148   3.805   1.737
  358WAT     H1 1316   8.153   3.713   1.697
  358WAT     H2 1317   8.233   3.854   1.719
  359WAT      O 1318   8.358   1.376   4.127
  359WAT     H1 1319   8.265   1.412   4.120
  359WAT     H2 1320   8.390   1.384   4.222
  360WAT      O 1321   1.535   5.144   1.571
  360WAT     H1 1322   1.486   5.089   1.503
  360WAT     H2 1323   1.568   5.084   1.644
  361WAT      O 1324   5.123   7.737   2.573
  361WAT     H1 1325   5.145   7.833   2.554
  361WAT     H2 1326   5.207   7.683   2.572
  362WAT      O 1327   1.226   6.959   1.475
  362WAT     H1 1328   1.292   6.932   1.545
  362WAT     H2 1329   1.261   6.935   1.385
  363WAT      O 1330   6.781   0.270   2.202
  363WAT     H1 1331   6.841   0.211   2.256
  363WAT     H2 1332   6.830   0.300   2.120
  364WAT      O 1333   1.839   7.899   1.226
  364WAT     H1 1334   1.780   7.829   1.185
  364WAT     H2 1335   1.916   7.855   1.273
  365WAT      O 1336   8.378   6.683   1.011
  365WAT     H1 1337   8.322   6.694   0.929
  365WAT     H2 1338   8.422   6.594   1.010
  366WAT      O 1339   5.462   2.847   0.918
  366WAT     H1 1340   5.373   2.808   0.941
  366WAT     H2 1341   5.453   2.946   0.909
  367WAT      O 1342   7.950   3.813   7.304
  367WAT     H1 1343   8.022   3.835   7.371
  367WAT     H2 1344   7.938   3.714   7.300
  368WAT      O 1345   1.477   4.045   5.514
  368WAT     H1 1346   1.515   4.121   5.462
  368WAT     H2 1347   1.409   3.997   5.460
  369WAT      O 1348   9.658   9.501   5.383
  369WAT     H1 1349   9.731   9.540   5.439
  369WAT     H2 1350   9.684   9.409   5.354
  370WAT      O 1351   7.705   4.459   8.830
  370WAT     H1 1352   7.699   4.380   8.890
  370WAT     H2 1353   7.703   4.430   8.734
  371WAT      O 1354   5.624   2.054   0.807
  371WAT     H1 1355   5.566   2.129   0.839
  371WAT     H2 1356   5.685   2.088   0.735
  372WAT      O 1357   1.168   8.752   0.240
  372WAT     H1 1358   1.180   8.738   0.338
  372WAT     H2 1359   1.257   8.743   0.194
  373WAT      O 1360   3.336   4.886   3.906
  373WAT     H1 1361   3.380   4.954   3.847
  373WAT     H2 1362   3.297   4.931   3.986
  374WAT      O 1363   7.438   9.746   9.145
  374WAT     H1 1364   7.442   9.828   9.088
  374WAT     H2 1365   7.432   9.773   9.241
  375WAT      O 1366   7.342   1.976   2.295
  375WAT     H1 1367   7.268   1.995   2.360
  375WAT     H2 1368   7.428   1.963   2.345
  376WAT      O 1369   7.661   4.923   0.790
  376WAT     H1 1370   7.643   4.897   0.695
  376WAT     H2 1371   7.598   4.874   0.851
  377WAT      O 1372   5.306   5.122   9.050
  377WAT     H1 1373   5.241   5.064   9.002
  377WAT     H2 1374   5.364   5.169   8.984
  378WAT      O 1375   2.395   9.518   5.153
  378WAT     H1 1376   2.361   9.424   5.155
  378WAT     H2 1377   2.332   9.574   5.099
  379WAT      O 1378   7.591   3.259   5.388
  379WAT     H1 1379   7.642   3.274   5.473
  379WAT     H2 1380   7.650   3.212   5.322
  380WAT      O 1381   1.473   3.453   5.046
  380WAT     H1 1382   1.545   3.430   4.980
  380WAT     H2 1383   1.398   3.387   5.036
  381WAT      O 1384   0.260   4.619   5.596
  381WAT     H1 1385   0.306   4.691   5.648
  381WAT     H2 1386   0.161   4.635   5.596
  382WAT      O 1387   2.127   4.975   0.350
  382WAT     H1 1388   2.221   5.007   0.348
  382WAT     H2 1389   2.083   5.004   0.436
  383WAT      O 1390   2.195   6.132   5.223
  383WAT     H1 1391   2.120   6.199   5.229
  383WAT     H2 1392   2.281   6.177   5.246
  384WAT      O 1393   4.694   3.906   9.803
  384WAT     H1 1394   4.681   3.881   9.899
  384WAT     H2 1395   4.614   3.878   9.750
  385WAT      O 1396   8.553   0.076   1.912
  385WAT     H1 1397   8.590   0.168   1.923
  385WAT     H2 1398   8.585   0.017   1.986
  386WAT      O 1399   0.029   2.989   7.715
  386WAT     H1 1400  -0.070   2.991   7.725
  386WAT     H2 1401   0.071   2.962   7.802
  387WAT      O 1402   8.910   1.085   8.502
  387WAT     H1 1403   8.834   1.079   8.566
  387WAT     H2 1404   8.880   1.054   8.411
  388WAT      O 1405   9.310   3.115   2.903
  388WAT     H1 1406   9.214   3.134   2.921
  388WAT     H2 1407   9.318   3.029   2.852
  389WAT      O 1408   6.793   2.321   4.134
  389WAT     H1 1409   6.701   2.282   4.128
  389WAT     H2 1410   6.814   2.371   4.050
  390WAT      O 1411   0.292   3.512   9.129
  390WAT     H1 1412   0.197   3.533   9.148
  390WAT     H2 1413   0.300   3.419   9.093
  391WAT      O 1414   6.064   1.303   4.721
  391WAT     H1 1415   6.146   1.355   4.742
  391WAT     H2 1416   6.089   1.212   4.687
  392WAT      O 1417   9.255   7.501   6.506
  392WAT     H1 1418   9.244   7.429   6.574
  392WAT     H2 1419   9.347   7.496   6.467
  393WAT      O 1420   8.119   7.171   6.736
  393WAT     H1 1421   8.028   7.132   6.721
  393WAT     H2 1422   8.110   7.259   6.783
  394WAT      O 1423   2.800   4.501   8.589
  394WAT     H1 1424   2.889   4.531   8.554
  394WAT     H2 1425   2.810   4.413   8.635
  395WAT      O 1426   1.360   0.026   8.914
  395WAT     H1 1427   1.435   0.092   8.910
  395WAT     H2 1428   1.392  -0.058   8.958
  396WAT      O 1429   7.457   7.900   0.600
  396WAT     H1 1430   7.552   7.920   0.575
  396WAT     H2 1431   7.416   7.841   0.530
  397WAT      O 1432   4.689   5.517   9.832
  397WAT     H1 1433   4.599   5.545   9.866
  397WAT     H2 1434   4.681   5.433   9.779
  398WAT      O 1435   3.179   2.236   5.751
  398WAT     H1 1436   3.215   2.143   5.765
  398WAT     H2 1437   3.241   2.302   5.794
  399WAT      O 1438   1.636   0.093   6.560
  399WAT     H1 1439   1.733   0.070   6.559
  399WAT     H2 1440   1.590   0.051   6.482
  400WAT      O 1441   5.535   8.294   7.545
  400WAT     H1 1442   5.481   8.327   7.623
  400WAT     H2 1443   5.576   8.372   7.498
  401WAT      O 1444   4.125   1.263   9.030
  401WAT     H1 1445   4.111   1.362   9.023
  401WAT     H2 1446   4.222   1.242   9.024
  402WAT      O 1447   2.521   3.712   2.291
  402WAT     H1 1448   2.607   3.663   2.305
  402WAT     H2 1449   2.486   3.691   2.200
  403WAT      O 1450   7.510   8.525   7.495
  403WAT     H1 1451   7.569   8.502   7.572
  403WAT     H2 1452   7.448   8.448   7.477
  404WAT      O 1453   8.611   2.461   4.091
  404WAT     H1 1454   8.641   2.372   4.057
  404WAT     H2 1455   8.565   2.511   4.018
  405WAT      O 1456   7.614   7.708   0.433
  405WAT     H1 1457   7.648   7.777   0.369
  405WAT     H2 1458   7.642   7.618   0.402
  406WAT      O 1459   4.035   9.262   9.188
  406WAT     H1 1460   3.966   9.315   9.139
  406WAT     H2 1461   4.119   9.259   9.134
  407WAT      O 1462   6.363   3.542   2.803
  407WAT     H1 1463   6.368   3.575   2.897
  407WAT     H2 1464   6.443   3.573   2.752
  408WAT      O 1465   0.243   5.586   5.890
  408WAT     H1 1466   0.219   5.671   5.842
  408WAT     H2 1467   0.159   5.542   5.922
  409WAT      O 1468   0.852   2.781   0.114
  409WAT     H1 1469   0.951   2.788   0.105
  409WAT     H2 1470   0.808   2.808   0.028
  410WAT      O 1471   1.002   9.352   0.504
  410WAT     H1 1472   0.975   9.385   0.595
  410WAT     H2 1473   0.993   9.427   0.438
  411WAT      O 1474   4.862   9.586   1.359
  411WAT     H1 1475   4.841   9.525   1.282
  411WAT     H2 1476   4.805   9.668   1.352
  412WAT      O 1477   7.005   8.673   7.998
  412WAT     H1 1478   6.909   8.644   8.000
  412WAT     H2 1479   7.063   8.595   8.020
  413WAT      O 1480   4.978   8.363   2.147
  413WAT     H1 1481   4.959   8.266   2.134
  413WAT     H2 1482   4.910   8.402   2.210
  414WAT      O 1483   0.415   4.971   9.783
  414WAT     H1 1484   0.477   4.902   9.746
  414WAT     H2 1485   0.364   4.932   9.860
  415WAT      O 1486   7.090   8.418   8.643
  415WAT     H1 1487   7.169   8.451   8.695
  415WAT     H2 1488   7.115   8.336   8.592
  416WAT      O 1489   2.717   8.082   7.644
  416WAT     H1 1490   2.736   7.998   7.593
  416WAT     H2 1491   2.727   8.160   7.583
  417WAT      O 1492   2.920   5.588   9.192
  417WAT     H1 1493   3.004   5.537   9.175
  417WAT     H2 1494   2.909   5.659   9.123
  418WAT      O 1495   0.565   5.534   3.316
  418WAT     H1 1496   0.559   5.533   3.416
  418WAT     H2 1497   0.635   5.599   3.287
  419WAT      O 1498   2.914   2.838   1.868
  419WAT     H1 1499   2.893   2.884   1.954
  419WAT     H2 1500   2.941   2.905   1.799
  420WAT      O 1501   6.148   5.487   6.778
  420WAT     H1 1502   6.169   5.426   6.702
  420WAT     H2 1503   6.175   5.444   6.864
  421WAT      O 1504   1.198   4.645   7.966
  421WAT     H1 1505   1.129   4.677   7.901
  421WAT     H2 1506   1.170   4.555   8.002
  422WAT      O 1507   4.968   4.240   6.183
  422WAT     H1 1508   5.033   4.314   6.170
  422WAT     H2 1509   4.922   4.221   6.097
  423WAT      O 1510   6.757   1.906   8.416
  423WAT     H1 1511   6.854   1.923   8.429
  423WAT     H2 1512   6.744   1.817   8.374
  424WAT      O 1513   1.261   0.517   1.383
  424WAT     H1 1514   1.276   0.533   1.286
  424WAT     H2 1515   1.289   0.423   1.406
  425WAT      O 1516   2.806   1.469   9.328
  425WAT     H1 1517   2.874   1.510   9.267
  425WAT     H2 1518   2.747   1.540   9.365
  426WAT      O 1519   1.807   1.383   5.679
  426WAT     H1 1520   1.746   1.333   5.619
  426WAT     H2 1521   1.848   1.460   5.630
  427WAT      O 1522   2.181   2.752   9.762
  427WAT     H1 1523   2.126   2.673   9.786
  427WAT     H2 1524   2.230   2.785   9.844
  428WAT      O 1525   6.914   0.870   3.962
  428WAT     H1 1526   6.923   0.802   3.888
  428WAT     H2 1527   6.992   0.933   3.958
  429WAT      O 1528   5.698   8.823   5.267
  429WAT     H1 1529   5.660   8.825   5.360
  429WAT     H2 1530   5.693   8.730   5.231
  430WAT      O 1531   5.322   1.824   6.896
  430WAT     H1 1532   5.412   1.838   6.937
  430WAT     H2 1533   5.292   1.909   6.852
  431WAT      O 1534   2.853   6.912   0.488
  431WAT     H1 1535   2.806   6.843   0.434
  431WAT     H2 1536   2.949   6.887   0.499
  432WAT      O 1537   1.042   9.094   0.508
  432WAT     H1 1538   1.033   9.194   0.506
  432WAT     H2 1539   0.951   9.052   0.506
  433WAT      O 1540   8.015   3.117   7.135
  433WAT     H1 1541   8.107   3.158   7.140
  433WAT     H2 1542   8.014   3.047   7.063
  434WAT      O 1543   6.663   7.756   3.010
  434WAT     H1 1544   6.644   7.854   3.019
  434WAT     H2 1545   6.652   7.729   2.915
  435WAT      O 1546   7.429   1.552   0.146
  435WAT     H1 1547   7.395   1.470   0.100
  435WAT     H2 1548   7.491   1.601   0.085
  436WAT      O 1549   4.915   6.341   8.994
  436WAT     H1 1550   4.844   6.331   9.063
  436WAT     H2 1551   4.905   6.429   8.948
  437WAT      O 1552   4.289   7.561   7.252
  437WAT     H1 1553   4.210   7.512   7.289
  437WAT     H2 1554   4.260   7.621   7.178
  438WAT      O 1555   5.684   3.019   5.541
  438WAT     H1 1556   5.689   2.979   5.632
  438WAT     H2 1557   5.629   3.103   5.545
  439WAT      O 1558   9.152   0.241   7.324
  439WAT     H1 1559   9.194   0.160   7.285
  439WAT     H2 1560   9.223   0.301   7.362
  440WAT      O 1561   6.752   9.749   9.278
  440WAT     H1 1562   6.702   9.776   9.196
  440WAT     H2 1563   6.706   9.670   9.320
  441WAT      O 1564   8.499   7.276   7.210
  441WAT     H1 1565   8.501   7.361   7.156
  441WAT     H2 1566   8.457   7.204   7.156
  442WAT      O 1567   8.585   9.186   1.449
  442WAT     H1 1568   8.531   9.261   1.411
  442WAT     H2 1569   8.573   9.104   1.393
  443WAT      O 1570   8.047   4.635   7.728
  443WAT     H1 1571   8.110   4.558   7.719
  443WAT     H2 1572   8.096   4.713   7.768
  444WAT      O 1573   6.223   0.802   3.539
  444WAT     H1 1574   6.291   0.735   3.569
  444WAT     H2 1575   6.191   0.854   3.618
  445WAT      O 1576   2.915   2.883   2.149
  445WAT     H1 1577   2.992   2.935   2.183
  445WAT     H2 1578   2.926   2.786   2.172
  446WAT      O 1579   4.566   5.844   3.915
  446WAT     H1 1580   4.596   5.771   3.854
  446WAT     H2 1581   4.469   5.832   3.936
  447WAT      O 1582   1.940   6.721   5.879
  447WAT     H1 1583   1.970   6.644   5.822
  447WAT     H2 1584   1.958   6.699   5.975
  448WAT      O 1585   3.291   8.725   3.740
  448WAT     H1 1586   3.287   8.821   3.710
  448WAT     H2 1587   3.267   8.666   3.663
  449WAT      O 1588   3.407   3.204   0.453
  449WAT     H1 1589   3.472   3.137   0.417
  449WAT     H2 1590   3.324   3.156   0.484
  450WAT      O 1591   5.787   8.032   4.636
  450WAT     H1 1592   5.718   8.089   4.681
  450WAT     H2 1593   5.876   8.048   4.678
  451WAT      O 1594   8.687   7.902   2.409
  451WAT     H1 1595   8.692   7.931   2.505
  451WAT     H2 1596   8.731   7.813   2.399
  452WAT      O 1597   5.038   5.143   2.705
  452WAT     H1 1598   5.046   5.093   2.791
  452WAT     H2 1599   4.962   5.207   2.710
  453WAT      O 1600   5.093   8.056   2.780
  453WAT     H1 1601   5.148   8.031   2.701
  453WAT     H2 1602   5.101   7.984   2.850
  454WAT      O 1603   5.701   6.467   2.870
  454WAT     H1 1604   5.774   6.399   2.866
  454WAT     H2 1605   5.613   6.421   2.882
  455WAT      O 1606   4.124   1.766   2.736
  455WAT     H1 1607   4.198   1.780   2.802
  455WAT     H2 1608   4.081   1.854   2.714
  456WAT      O 1609   8.629   6.218   5.666
  456WAT     H1 1610   8.718   6.185   5.699
  456WAT     H2 1611   8.641   6.308   5.622
  457WAT      O 1612   2.851   3.025   0.604
  457WAT     H1 1613   2.913   2.947   0.593
  457WAT     H2 1614   2.886   3.104   0.553
  458WAT      O 1615   5.473   3.615   2.017
  458WAT     H1 1616   5.391   3.634   2.071
  458WAT     H2 1617   5.529   3.547   2.065
  459WAT      O 1618   7.355   3.121   7.535
  459WAT     H1 1619   7.418   3.200   7.533
  459WAT     H2 1620   7.267   3.148   7.497
  460WAT      O 1621   9.146   6.410   3.149
  460WAT     H1 1622   9.079   6.455   3.089
  460WAT     H2 1623   9.224   6.380   3.095
  461WAT      O 1624   9.094   0.889   7.678
  461WAT     H1 1625   9.130   0.841   7.758
  461WAT     H2 1626   9.115   0.986   7.685
  462WAT      O 1627   7.100   8.683   2.864
  462WAT     H1 1628   7.163   8.649   2.933
  462WAT     H2 1629   7.151   8.737   2.797
  463WAT      O 1630   4.482   6.844   7.048
  463WAT     H1 1631   4.528   6.834   6.960
  463WAT     H2 1632   4.484   6.756   7.096
  464WAT      O 1633   8.832   5.902   2.815
  464WAT     H1 1634   8.835   5.981   2.875
  464WAT     H2 1635   8.864   5.927   2.724
  465WAT      O 1636   5.369   1.461   0.363
  465WAT     H1 1637   5.460   1.445   0.402
  465WAT     H2 1638   5.367   1.428   0.268
  466WAT      O 1639   7.295   5.461   8.713
  466WAT     H1 1640   7.334   5.454   8.621
  466WAT     H2 1641   7.227   5.534   8.715
  467WAT      O 1642   1.125   6.310   8.684
  467WAT     H1 1643   1.089   6.350   8.600
  467WAT     H2 1644   1.116   6.376   8.759
  468WAT      O 1645   6.235   0.900   0.128
  468WAT     H1 1646   6.138   0.909   0.107
  468WAT     H2 1647   6.246   0.838   0.206
  469WAT      O 1648   1.875   4.248   5.318
  469WAT     H1 1649   1.893   4.275   5.224
  469WAT     H2 1650   1.900   4.324   5.379
  470WAT      O 1651   3.645   6.265   3.705
  470WAT     H1 1652   3.574   6.324   3.743
  470WAT     H2 1653   3.640   6.175   3.747
  471WAT      O 1654   9.418   8.813   6.884
  471WAT     H1 1655   9.508   8.847   6.912
  471WAT     H2 1656   9.361   8.890   6.855
  472WAT      O 1657   1.657   6.103   7.061
  472WAT     H1 1658   1.750   6.070   7.079
  472WAT     H2 1659   1.598   6.025   7.041
  473WAT      O 1660   3.301   5.554   2.810
  473WAT     H1 1661   3.307   5.594   2.719
  473WAT     H2 1662   3.210   5.513   2.822
  474WAT      O 1663   2.951   3.772   7.109
  474WAT     H1 1664   2.903   3.684   7.107
  474WAT     H2 1665   3.046   3.757   7.135
  475WAT      O 1666   5.414   9.445   0.033
  475WAT     H1 1667   5.406   9.385  -0.047
  475WAT     H2 1668   5.385   9.396   0.115
  476WAT      O 1669   9.699   8.795   8.825
  476WAT     H1 1670   9.795   8.823   8.822
  476WAT     H2 1671   9.691   8.700   8.797
  477WAT      O 1672   6.561   7.684   7.852
  477WAT     H1 1673   6.586   7.763   7.908
  477WAT     H2 1674   6.628   7.674   7.778
  478WAT      O 1675   9.627   6.909   2.270
  478WAT     H1 1676   9.726   6.925   2.275
  478WAT     H2 1677   9.591   6.898   2.363
  479WAT      O 1678   7.064   6.597   0.961
  479WAT     H1 1679   7.141   6.534   0.966
  479WAT     H2 1680   7.097   6.689   0.943
  480WAT      O 1681   1.396   3.342   7.020
  480WAT     H1 1682   1.332   3.392   6.961
  480WAT     H2 1683   1.393   3.245   6.996
  481WAT      O 1684   6.073   5.099   9.848
  481WAT     H1 1685   6.012   5.166   9.890
  481WAT     H2 1686   6.116   5.139   9.767
  482WAT      O 1687   7.592   4.541   9.827
  482WAT     H1 1688   7.517   4.514   9.768
  482WAT     H2 1689   7.658   4.466   9.834
  483WAT      O 1690   5.430   1.025   9.419
  483WAT     H1 1691   5.449   0.995   9.326
  483WAT     H2 1692   5.334   1.004   9.442
  484WAT      O 1693   6.018   0.016   5.417
  484WAT     H1 1694   6.052  -0.049   5.486
  484WAT     H2 1695   6.095   0.056   5.368
  485WAT      O 1696   6.326   3.664   3.038
  485WAT     H1 1697   6.254   3.733   3.043
  485WAT     H2 1698   6.410   3.701   3.078
  486WAT      O 1699   7.526   0.414   0.794
  486WAT     H1 1700   7.574   0.449   0.713
  486WAT     H2 1701   7.590   0.363   0.852
  487WAT      O 1702   3.391   3.779   1.319
  487WAT     H1 1703   3.449   3.703   1.289
  487WAT     H2 1704   3.301   3.772   1.276
  488WAT      O 1705   0.015   6.845   6.282
  488WAT     H1 1706  -0.084   6.853   6.294
  488WAT     H2 1707   0.042   6.750   6.294
  489WAT      O 1708   6.649   4.367   5.321
  489WAT     H1 1709   6.561   4.322   5.309
  489WAT     H2 1710   6.686   4.343   5.411
  490WAT      O 1711   0.654   2.001   0.750
  490WAT     H1 1712   0.640   1.908   0.716
  490WAT     H2 1713   0.731   2.043   0.701
  491WAT      O 1714   1.106   3.776   9.307
  491WAT     H1 1715   1.098   3.875   9.320
  491WAT     H2 1716   1.029   3.743   9.253
  492WAT      O 1717   1.185   8.162   9.342
  492WAT     H1 1718   1.091   8.187   9.317
  492WAT     H2 1719   1.247   8.234   9.314
  493WAT      O 1720   0.832   3.195   6.646
  493WAT     H1 1721   0.775   3.175   6.726
  493WAT     H2 1722   0.776   3.240   6.576
  494WAT      O 1723   7.485   4.041   1.606
  494WAT     H1 1724   7.531   3.973   1.549
  494WAT     H2 1725   7.394   4.060   1.568
  495WAT      O 1726   4.229   7.268   7.638
  495WAT     H1 1727   4.173   7.200   7.592
  495WAT     H2 1728   4.326   7.243   7.629
  496WAT      O 1729   3.690   2.727   1.752
  496WAT     H1 1730   3.722   2.662   1.820
  496WAT     H2 1731   3.699   2.820   1.787
  497WAT      O 1732   1.929   4.873   9.372
  497WAT     H1 1733   1.943   4.890   9.274
  497WAT     H2 1734   1.998   4.809   9.405
  498WAT      O 1735   8.427   3.588   7.816
  498WAT     H1 1736   8.443   3.677   7.858
  498WAT     H2 1737   8.504   3.566   7.755
  499WAT      O 1738   7.649   5.319   5.868
  499WAT     H1 1739   7.554   5.293   5.881
  499WAT     H2 1740   7.709   5.251   5.911
  500WAT      O 1741   1.699   1.587   4.768
  500WAT     H1 1742   1.686   1.518   4.839
  500WAT     H2 1743   1.654   1.557   4.684
  501WAT      O 1744   9.094   0.596   8.026
  501WAT     H1 1745   9.009   0.615   7.977
  501WAT     H2 1746   9.138   0.515   7.988
  502WAT      O 1747   7.288   1.565   2.822
  502WAT     H1 1748   7.291   1.493   2.754
  502WAT     H2 1749   7.194   1.599   2.831
  503WAT      O 1750   6.784   0.339   9.530
  503WAT     H1 1751   6.761   0.287   9.448
  503WAT     H2 1752   6.758   0.287   9.611
  504WAT      O 1753   7.301   8.072   1.715
  504WAT     H1 1754   7.247   7.993   1.684
  504WAT     H2 1755   7.254   8.156   1.689
  505WAT      O 1756   6.462   8.907   8.794
  505WAT     H1 1757   6.504   8.962   8.722
  505WAT     H2 1758   6.364   8.897   8.775
  506WAT      O 1759   4.260   3.813   5.182
  506WAT     H1 1760   4.298   3.905   5.168
  506WAT     H2 1761   4.335   3.746   5.182
  507WAT      O 1762   4.061   6.245   3.499
  507WAT     H1 1763   4.131   6.316   3.488
  507WAT     H2 1764   4.082   6.189   3.580
  508WAT      O 1765   5.852   1.189   6.553
  508WAT     H1 1766   5.871   1.173   6.649
  508WAT     H2 1767   5.937   1.208   6.504
  509WAT      O 1768   7.933   5.946   8.757
  509WAT     H1 1769   7.952   5.851   8.781
  509WAT     H2 1770   7.893   5.951   8.666
  510WAT      O 1771   6.822   1.084   3.113
  510WAT     H1 1772   6.776   1.082   3.202
  510WAT     H2 1773   6.758   1.060   3.041
  511WAT      O 1774   0.680   8.544   8.636
  511WAT     H1 1775   0.611   8.474   8.653
  511WAT     H2 1776   0.693   8.555   8.537
  512WAT      O 1777   2.753   3.542   7.068
  512WAT     H1 1778   2.759   3.443   7.074
  512WAT     H2 1779   2.663   3.572   7.099
  513WAT      O 1780   3.894   4.900   8.795
  513WAT     H1 1781   3.912   4.842   8.875
  513WAT     H2 1782   3.832   4.974   8.821
  514WAT      O 1783   6.693   2.907   3.879
  514WAT     H1 1784   6.768   2.861   3.833
  514WAT     H2 1785   6.702   3.006   3.867
  515WAT      O 1786   7.428   4.225   9.619
  515WAT     H1 1787   7.515   4.212   9.570
  515WAT     H2 1788   7.374   4.141   9.615
  516WAT      O 1789   3.406   2.500   2.826
  516WAT     H1 1790   3.490   2.473   2.778
  516WAT     H2 1791   3.430   2.558   2.905
  517WAT      O 1792   3.450   0.202   1.042
  517WAT     H1 1793   3.528   0.202   0.979
  517WAT     H2 1794   3.409   0.111   1.045
  518WAT      O 1795   9.026   1.233   0.881
  518WAT     H1 1796   9.018   1.198   0.975
  518WAT     H2 1797   9.120   1.219   0.849
  519WAT      O 1798   2.091   5.722   6.176
  519WAT     H1 1799   1.992   5.734   6.187
  519WAT     H2 1800   2.136   5.811   6.184
  520WAT      O 1801   7.587   8.995   8.876
  520WAT     H1 1802   7.665   9.013   8.936
  520WAT     H2 1803   7.616   9.006   8.781
  521WAT      O 1804   9.840   5.487   0.801
  521WAT     H1 1805   9.926   5.437   0.792
  521WAT     H2 1806   9.766   5.423   0.823
  522WAT      O 1807   7.289   2.517   2.174
  522WAT     H1 1808   7.345   2.469   2.242
  522WAT     H2 1809   7.195   2.522   2.207
  523WAT      O 1810   2.069   7.181   0.776
  523WAT     H1 1811   2.096   7.164   0.871
  523WAT     H2 1812   2.149   7.213   0.725
  524WAT      O 1813   1.419   5.475   3.569
  524WAT     H1 1814   1.505   5.509   3.608
  524WAT     H2 1815   1.370   5.422   3.639
  525WAT      O 1816   2.211   2.192   1.271
  525WAT     H1 1817   2.217   2.131   1.349
  525WAT     H2 1818   2.116   2.201   1.242
  526WAT      O 1819   8.736   6.749   2.010
  526WAT     H1 1820   8.788   6.671   2.044
  526WAT     H2 1821   8.692   6.795   2.088
  527WAT      O 1822   1.971   0.652   9.489
  527WAT     H1 1823   1.938   0.727   9.547
  527WAT     H2 1824   1.947   0.564   9.532
  528WAT      O 1825   1.588   1.667   7.865
  528WAT     H1 1826   1.674   1.615   7.863
  528WAT     H2 1827   1.553   1.678   7.772
  529WAT      O 1828   0.998   0.143   1.832
  529WAT     H1 1829   0.967   0.105   1.919
  529WAT     H2 1830   1.088   0.105   1.809
  530WAT      O 1831   4.299   8.230   9.332
  530WAT     H1 1832   4.258   8.321   9.338
  530WAT     H2 1833   4.262   8.172   9.405
  531WAT      O 1834   3.135   0.688   4.045
  531WAT     H1 1835   3.207   0.751   4.076
  531WAT     H2 1836   3.090   0.647   4.124
  532WAT      O 1837   0.272   6.039   8.410
  532WAT     H1 1838   0.311   5.997   8.492
  532WAT     H2 1839   0.174   6.021   8.407
  533WAT      O 1840   5.100   6.044   5.633
  533WAT     H1 1841   5.150   5.957   5.638
  533WAT     H2 1842   5.128   6.103   5.708
  534WAT      O 1843   9.134   4.483   5.754
  534WAT     H1 1844   9.091   4.393   5.767
  534WAT     H2 1845   9.115   4.541   5.833
  535WAT      O 1846   7.279   9.768   5.420
  535WAT     H1 1847   7.332   9.712   5.484
  535WAT     H2 1848   7.243   9.848   5.468
  536WAT      O 1849   6.986   7.340   8.902
  536WAT     H1 1850   6.889   7.344   8.881
  536WAT     H2 1851   7.026   7.432   8.895
  537WAT      O 1852   3.899   8.206   4.377
  537WAT     H1 1853   3.902   8.213   4.477
  537WAT     H2 1854   3.922   8.294   4.337
  538WAT      O 1855   9.101   7.916   6.802
  538WAT     H1 1856   9.041   7.928   6.881
  538WAT     H2 1857   9.175   7.984   6.806
  539WAT      O 1858   6.564   5.756   2.391
  539WAT     H1 1859   6.652   5.771   2.436
  539WAT     H2 1860   6.529   5.666   2.415
  540WAT      O 1861   0.637   0.887   7.322
  540WAT     H1 1862   0.676   0.846   7.405
  540WAT     H2 1863   0.547   0.847   7.305
  541WAT      O 1864   4.949   2.444   2.518
  541WAT     H1 1865   4.866   2.473   2.565
  541WAT     H2 1866   4.926   2.410   2.427
  542WAT      O 1867   9.330   7.731   4.906
  542WAT     H1 1868   9.385   7.769   4.981
  542WAT     H2 1869   9.279   7.651   4.938
  543WAT      O 1870   0.229   4.611   6.763
  543WAT     H1 1871   0.129   4.606   6.763
  543WAT     H2 1872   0.259   4.666   6.841
  544WAT      O 1873   2.427   7.246   1.653
  544WAT     H1 1874   2.332   7.264   1.677
  544WAT     H2 1875   2.432   7.164   1.596
  545WAT      O 1876   0.974   3.514   4.062
  545WAT     H1 1877   0.880   3.545   4.046
  545WAT     H2 1878   0.974   3.446   4.135
  546WAT      O 1879   5.474   6.404   0.470
  546WAT     H1 1880   5.571   6.412   0.447
  546WAT     H2 1881   5.459   6.317   0.517
  547WAT      O 1882   4.107   3.073   3.800
  547WAT     H1 1883   4.083   3.070   3.897
  547WAT     H2 1884   4.206   3.083   3.790
  548WAT      O 1885   2.794   4.459   7.349
  548WAT     H1 1886   2.882   4.459   7.395
  548WAT     H2 1887   2.781   4.372   7.302
  549WAT      O 1888   3.855   4.558   6.244
  549WAT     H1 1889   3.897   4.641   6.280
  549WAT     H2 1890   3.795   4.581   6.167
  550WAT      O 1891   7.553   3.797   0.593
  550WAT     H1 1892   7.580   3.893   0.603
  550WAT     H2 1893   7.577   3.765   0.501
  551WAT      O 1894   3.033   0.713   6.834
  551WAT     H1 1895   2.988   0.682   6.750
  551WAT     H2 1896   3.132   0.698   6.827
  552WAT      O 1897   7.803   6.570   7.127
  552WAT     H1 1898   7.844   6.558   7.217
  552WAT     H2 1899   7.715   6.617   7.136
  553WAT      O 1900   2.687   6.493   4.299
  553WAT     H1 1901   2.698   6.430   4.376
  553WAT     H2 1902   2.749   6.570   4.309
  554WAT      O 1903   7.591   4.577   9.087
  554WAT     H1 1904   7.653   4.654   9.099
  554WAT     H2 1905   7.596   4.546   8.992
  555WAT      O 1906   7.320   1.760   7.707
  555WAT     H1 1907   7.286   1.666   7.697
  555WAT     H2 1908   7.399   1.773   7.647
  556WAT      O 1909   3.096   2.104   5.322
  556WAT     H1 1910   3.097   2.026   5.384
  556WAT     H2 1911   3.063   2.075   5.232
  557WAT      O 1912   4.004   3.381   6.576
  557WAT     H1 1913   4.041   3.328   6.500
  557WAT     H2 1914   4.011   3.327   6.660
  558WAT      O 1915   5.293   4.646   9.606
  558WAT     H1 1916   5.215   4.705   9.587
  558WAT     H2 1917   5.262   4.552   9.619
  559WAT      O 1918   1.827   9.572   3.844
  559WAT     H1 1919   1.784   9.505   3.784
  559WAT     H2 1920   1.908   9.610   3.801
  560WAT      O 1921   4.621   4.607   9.748
  560WAT     H1 1922   4.604   4.609   9.846
  560WAT     H2 1923   4.555   4.546   9.704
  561WAT      O 1924   7.543   9.365   0.090
  561WAT     H1 1925   7.557   9.396  -0.004
  561WAT     H2 1926   7.528   9.266   0.091
  562WAT      O 1927   6.831   6.392   6.110
  562WAT     H1 1928   6.765   6.462   6.083
  562WAT     H2 1929   6.924   6.428   6.103
  563WAT      O 1930   5.579   6.659   2.716
  563WAT     H1 1931   5.633   6.585   2.757
  563WAT     H2 1932   5.493   6.622   2.682
  564WAT      O 1933   8.452   5.245   0.312
  564WAT     H1 1934   8.375   5.297   0.350
  564WAT     H2 1935   8.464   5.268   0.216
  565WAT      O 1936   0.847   9.546   2.869
  565WAT     H1 1937   0.830   9.464   2.924
  565WAT     H2 1938   0.792   9.540   2.785
  566WAT      O 1939   5.222   9.616   7.813
  566WAT     H1 1940   5.254   9.560   7.890
  566WAT     H2 1941   5.263   9.707   7.819
  567WAT      O 1942   9.528   6.311   1.714
  567WAT     H1 1943   9.576   6.297   1.628
  567WAT     H2 1944   9.449   6.370   1.700
  568WAT      O 1945   3.978   4.629   3.528
  568WAT     H1 1946   4.036   4.553   3.559
  568WAT     H2 1947   3.942   4.678   3.607
  569WAT      O 1948   3.438   2.260   4.463
  569WAT     H1 1949   3.355   2.216   4.427
  569WAT     H2 1950   3.432   2.265   4.563
  570WAT      O 1951   7.764   4.085   2.509
  570WAT     H1 1952   7.741   4.156   2.441
  570WAT     H2 1953   7.689   4.019   2.514
  571WAT      O 1954   2.301   9.038   7.434
  571WAT     H1 1955   2.367   8.991   7.375
  571WAT     H2 1956   2.346   9.114   7.480
  572WAT      O 1957   5.928   4.735   8.222
  572WAT     H1 1958   5.945   4.834   8.225
  572WAT     H2 1959   6.015   4.687   8.234
  573WAT      O 1960   2.653   8.396   2.198
  573WAT     H1 1961   2.573   8.339   2.179
  573WAT     H2 1962   2.631   8.492   2.182
  574WAT      O 1963   6.280   3.569   0.962
  574WAT     H1 1964   6.292   3.596   0.867
  574WAT     H2 1965   6.182   3.566   0.984
  575WAT      O 1966   4.968   1.722   5.859
  575WAT     H1 1967   5.031   1.677   5.923
  575WAT     H2 1968   5.020   1.763   5.784
  576WAT      O 1969   4.389   2.416   6.667
  576WAT     H1 1970   4.396   2.362   6.583
  576WAT     H2 1971   4.372   2.512   6.643
  577WAT      O 1972   4.161   9.509   3.746
  577WAT     H1 1973   4.161   9.566   3.828
  577WAT     H2 1974   4.146   9.414   3.772
  578WAT      O 1975   9.078   7.620   7.573
  578WAT     H1 1976   8.994   7.583   7.532
  578WAT     H2 1977   9.122   7.682   7.508
  579WAT      O 1978   9.850   4.074   2.116
  579WAT     H1 1979   9.895   3.993   2.078
  579WAT     H2 1980   9.862   4.151   2.053
  580WAT      O 1981   7.913   4.167   5.946
  580WAT     H1 1982   7.825   4.125   5.922
  580WAT     H2 1983   7.983   4.136   5.883
  581WAT      O 1984   7.329   6.532   7.269
  581WAT     H1 1985   7.268   6.602   7.305
  581WAT     H2 1986   7.335   6.456   7.334
  582WAT      O 1987   9.539   0.969   4.076
  582WAT     H1 1988   9.633   0.937   4.079
  582WAT     H2 1989   9.489   0.920   4.004
  583WAT      O 1990   3.512   5.891   7.091
  583WAT     H1 1991   3.583   5.960   7.111
  583WAT     H2 1992   3.520   5.864   6.995
  584WAT      O 1993   8.594   5.217   8.157
  584WAT     H1 1994   8.506   5.208   8.112
  584WAT     H2 1995   8.590   5.172   8.247
  585WAT      O 1996   1.315   7.927   3.933
  585WAT     H1 1997   1.401   7.970   3.961
  585WAT     H2 1998   1.238   7.977   3.973
  586WAT      O 1999   7.486   7.992   7.906
  586WAT     H1 2000   7.491   7.892   7.898
  586WAT     H2 2001   7.479   8.018   8.002
  587WAT      O 2002   8.267   0.534   3.883
  587WAT     H1 2003   8.298   0.628   3.896
  587WAT     H2 2004   8.198   0.512   3.952
  588WAT      O 2005   8.926   6.598   6.415
  588WAT     H1 2006   8.908   6.679   6.358
  588WAT     H2 2007   8.978   6.625   6.495
  589WAT      O 2008   3.152   1.110   4.063
  589WAT     H1 2009   3.083   1.129   3.992
  589WAT     H2 2010   3.210   1.190   4.075
  590WAT      O 2011   1.452   8.836   5.427
  590WAT     H1 2012   1.410   8.813   5.515
  590WAT     H2 2013   1.386   8.822   5.354
  591WAT      O 2014   0.110   6.101   7.961
  591WAT     H1 2015   0.181   6.112   7.891
  591WAT     H2 2016   0.102   6.005   7.987
  592WAT      O 2017   5.168   3.439   0.080
  592WAT     H1 2018   5.219   3.525   0.082
  592WAT     H2 2019   5.219   3.369   0.130
  593WAT      O 2020   3.534   7.636   0.579
  593WAT     H1 2021   3.444   7.616   0.616
  593WAT     H2 2022   3.550   7.580   0.497
  594WAT      O 2023   6.574   8.941   1.863
  594WAT     H1 2024   6.604   8.888   1.783
  594WAT     H2 2025   6.566   9.037   1.837
  595WAT      O 2026   5.323   4.546   7.357
  595WAT     H1 2027   5.314   4.593   7.445
  595WAT     H2 2028   5.293   4.607   7.284
  596WAT      O 2029   7.563   3.414   3.878
  596WAT     H1 2030   7.489   3.470   3.842
  596WAT     H2 2031   7.551   3.401   3.976
  597WAT      O 2032   5.526   4.896   1.723
  597WAT     H1 2033   5.432   4.924   1.705
  597WAT     H2 2034   5.581   4.908   1.640
  598WAT      O 2035   8.766   9.165   4.248
  598WAT     H1 2036   8.701   9.095   4.217
  598WAT     H2 2037   8.854   9.150   4.202
  599WAT      O 2038   1.373   9.674   7.404
  599WAT     H1 2039   1.457   9.722   7.428
  599WAT     H2 2040   1.295   9.721   7.446
  600WAT      O 2041   1.094   9.216   3.002
  600WAT     H1 2042   1.106   9.129   2.954
  600WAT     H2 2043   1.119   9.292   2.941
  601WAT      O 2044   0.360   5.933   1.099
  601WAT     H1 2045   0.329   5.951   1.192
  601WAT     H2 2046   0.364   5.834   1.083
  602WAT      O 2047   0.531   3.868   2.003
  602WAT     H1 2048   0.443   3.834   2.037
  602WAT     H2 2049   0.571   3.800   1.941
  603WAT      O 2050   3.753   3.379   1.487
  603WAT     H1 2051   3.728   3.415   1.397
  603WAT     H2 2052   3.695   3.422   1.557
  604WAT      O 2053   5.998   1.375   6.755
  604WAT     H1 2054   6.037   1.382   6.847
  604WAT     H2 2055   5.899   1.379   6.761
  605WAT      O 2056   2.336   8.783   8.300
  605WAT     H1 2057   2.341   8.882   8.313
  605WAT     H2 2058   2.394   8.737   8.367
  606WAT      O 2059   6.154   3.867   1.772
  606WAT     H1 2060   6.188   3.777   1.746
  606WAT     H2 2061   6.140   3.870   1.871
  607WAT      O 2062   8.244   0.114   8.333
  607WAT     H1 2063   8.211   0.150   8.246
  607WAT     H2 2064   8.313   0.175   8.371
  608WAT      O 2065   5.918   9.238   7.362
  608WAT     H1 2066   5.869   9.258   7.447
  608WAT     H2 2067   5.877   9.158   7.318
  609WAT      O 2068   5.262   2.097   1.057
  609WAT     H1 2069   5.315   2.103   0.972
  609WAT     H2 2070   5.305   2.031   1.119
  610WAT      O 2071   6.072   6.101   9.352
  610WAT     H1 2072   6.136   6.030   9.384
  610WAT     H2 2073   6.082   6.182   9.409
  611WAT      O 2074   3.265   3.887   8.864
  611WAT     H1 2075   3.205   3.871   8.942
  611WAT     H2 2076   3.223   3.955   8.804
  612WAT      O 2077   4.994   6.377   6.573
  612WAT     H1 2078   5.009   6.345   6.479
  612WAT     H2 2079   5.044   6.463   6.587
  613WAT      O 2080   0.993   7.600   5.872
  613WAT     H1 2081   0.992   7.501   5.860
  613WAT     H2 2082   0.977   7.621   5.969
  614WAT      O 2083   7.974   8.536   2.692
  614WAT     H1 2084   8.054   8.526   2.751
  614WAT     H2 2085   7.930   8.624   2.710
  615WAT      O 2086   8.232   0.120   7.985
  615WAT     H1 2087   8.240   0.205   8.037
  615WAT     H2 2088   8.322   0.092   7.952
  616WAT      O 2089   5.332   3.483   5.107
  616WAT     H1 2090   5.261   3.435   5.057
  616WAT     H2 2091   5.398   3.523   5.043
  617WAT      O 2092   8.319   6.885   4.694
  617WAT     H1 2093   8.373   6.807   4.727
  617WAT     H2 2094   8.264   6.921   4.769
  618WAT      O 2095   1.031   6.177   8.273
  618WAT     H1 2096   1.088   6.255   8.249
  618WAT     H2 2097   0.960   6.164   8.204
  619WAT      O 2098   5.508   6.548   8.020
  619WAT     H1 2099   5.563   6.466   8.037
  619WAT     H2 2100   5.434   6.526   7.956
  620WAT      O 2101   4.324   6.984   4.465
  620WAT     H1 2102   4.225   6.995   4.475
  620WAT     H2 2103   4.346   6.887   4.453
  621WAT      O 2104   5.759   8.906   9.392
  621WAT     H1 2105   5.762   8.876   9.296
  621WAT     H2 2106   5.731   9.002   9.395
  622WAT      O 2107   1.662   4.104   4.296
  622WAT     H1 2108   1.737   4.169   4.284
  622WAT     H2 2109   1.597   4.114   4.221
  623WAT      O 2110   9.760   2.914   4.932
  623WAT     H1 2111   9.833   2.945   4.871
  623WAT     H2 2112   9.751   2.815   4.926
  624WAT      O 2113   1.281   5.440   8.833
  624WAT     H1 2114   1.261   5.508   8.904
  624WAT     H2 2115   1.260   5.349   8.867
  625WAT      O 2116   6.275   3.538   1.970
  625WAT     H1 2117   6.358   3.519   2.023
  625WAT     H2 2118   6.293   3.608   1.902
  626WAT      O 2119   0.820   8.637   6.926
  626WAT     H1 2120   0.879   8.623   6.846
  626WAT     H2 2121   0.764   8.556   6.941
  627WAT      O 2122   0.550   8.368   7.736
  627WAT     H1 2123   0.610   8.357   7.815
  627WAT     H2 2124   0.491   8.288   7.727
  628WAT      O 2125   6.874   0.073   1.808
  628WAT     H1 2126   6.862   0.066   1.907
  628WAT     H2 2127   6.970   0.094   1.788
  629WAT      O 2128   3.407   5.284   0.308
  629WAT     H1 2129   3.324   5.311   0.357
  629WAT     H2 2130   3.484   5.282   0.371
  630WAT      O 2131   9.626   0.887   4.954
  630WAT     H1 2132   9.545   0.931   4.991
  630WAT     H2 2133   9.706   0.911   5.008
  631WAT      O 2134   8.824   1.263   8.940
  631WAT     H1 2135   8.787   1.355   8.947
  631WAT     H2 2136   8.811   1.229   8.847
  632WAT      O 2137   5.639   3.894   1.059
  632WAT     H1 2138   5.628   3.932   0.967
  632WAT     H2 2139   5.550   3.873   1.097
  633WAT      O 2140   1.040   6.924   7.783
  633WAT     H1 2141   1.016   6.828   7.771
  633WAT     H2 2142   1.020   6.974   7.699
  634WAT      O 2143   5.348   1.662   9.162
  634WAT     H1 2144   5.289   1.609   9.101
  634WAT     H2 2145   5.441   1.662   9.126
  635WAT      O 2146   7.224   0.392   7.215
  635WAT     H1 2147   7.274   0.383   7.129
  635WAT     H2 2148   7.224   0.488   7.244
  636WAT      O 2149   4.029   5.712   1.254
  636WAT     H1 2150   3.964   5.642   1.283
  636WAT     H2 2151   4.011   5.797   1.304
  637WAT      O 2152   0.588   6.582   6.696
  637WAT     H1 2153   0.529   6.641   6.752
  637WAT     H2 2154   0.598   6.621   6.605
  638WAT      O 2155   8.605   9.066   9.020
  638WAT     H1 2156   8.596   9.159   9.056
  638WAT     H2 2157   8.631   9.071   8.923
  639WAT      O 2158   4.052   5.679   7.093
  639WAT     H1 2159   3.978   5.643   7.036
  639WAT     H2 2160   4.130   5.616   7.090
  640WAT      O 2161   6.268   7.999   1.450
  640WAT     H1 2162   6.336   8.012   1.378
  640WAT     H2 2163   6.282   7.910   1.494
  641WAT      O 2164   6.019   9.182   5.610
  641WAT     H1 2165   6.082   9.188   5.532
  641WAT     H2 2166   6.014   9.271   5.655
  642WAT      O 2167   3.776   4.700   0.829
  642WAT     H1 2168   3.688   4.734   0.794
  642WAT     H2 2169   3.770   4.693   0.929
  643WAT      O 2170   3.530   8.795   0.122
  643WAT     H1 2171   3.532   8.812   0.024
  643WAT     H2 2172   3.613   8.831   0.164
  644WAT      O 2173   3.330   5.118   3.276
  644WAT     H1 2174   3.281   5.205   3.282
  644WAT     H2 2175   3.336   5.077   3.367
  645WAT      O 2176   1.084   0.674   1.809
  645WAT     H1 2177   1.001   0.690   1.755
  645WAT     H2 2178   1.085   0.580   1.841
  646WAT      O 2179   0.126   8.265   1.847
  646WAT     H1 2180   0.078   8.328   1.786
  646WAT     H2 2181   0.224   8.284   1.844
  647WAT      O 2182   3.819   7.915   0.157
  647WAT     H1 2183   3.813   8.014   0.165
  647WAT     H2 2184   3.829   7.889   0.061
  648WAT      O 2185   3.983   6.095   2.721
  648WAT     H1 2186   4.063   6.039   2.740
  648WAT     H2 2187   3.910   6.074   2.786
  649WAT      O 2188   0.578   0.310   6.005
  649WAT     H1 2189   0.632   0.301   5.921
  649WAT     H2 2190   0.615   0.248   6.075
  650WAT      O 2191   6.505   2.027   1.249
  650WAT     H1 2192   6.576   2.094   1.270
  650WAT     H2 2193   6.523   1.986   1.160
  651WAT      O 2194   9.622   9.363   2.210
  651WAT     H1 2195   9.604   9.298   2.283
  651WAT     H2 2196   9.702   9.333   2.157
  652WAT      O 2197   9.679   8.537   8.766
  652WAT     H1 2198   9.700   8.505   8.859
  652WAT     H2 2199   9.681   8.460   8.703
  653WAT      O 2200   9.054   1.939   2.172
  653WAT     H1 2201   9.049   1.879   2.251
  653WAT     H2 2202   9.106   1.894   2.099
  654WAT      O 2203   8.798   1.882   7.594
  654WAT     H1 2204   8.732   1.957   7.593
  654WAT     H2 2205   8.750   1.795   7.583
  655WAT      O 2206   3.812   1.659   4.388
  655WAT     H1 2207   3.732   1.715   4.412
  655WAT     H2 2208   3.792   1.607   4.305
  656WAT      O 2209   6.868   4.630   8.217
  656WAT     H1 2210   6.812   4.625   8.135
  656WAT     H2 2211   6.962   4.654   8.192
  657WAT      O 2212   4.251   7.281   4.667
  657WAT     H1 2213   4.187   7.232   4.608
  657WAT     H2 2214   4.291   7.217   4.733
  658WAT      O 2215   0.445   6.515   1.957
  658WAT     H1 2216   0.439   6.450   1.881
  658WAT     H2 2217   0.499   6.475   2.031
  659WAT      O 2218   6.346   5.983   6.562
  659WAT     H1 2219   6.361   5.904   6.622
  659WAT     H2 2220   6.373   5.960   6.469
  660WAT      O 2221   2.886   8.347   6.452
  660WAT     H1 2222   2.952   8.272   6.455
  660WAT     H2 2223   2.803   8.316   6.406
  661WAT      O 2224   9.770   2.383   2.433
  661WAT     H1 2225   9.857   2.340   2.410
  661WAT     H2 2226   9.703   2.365   2.361
  662WAT      O 2227   2.324   2.370   9.359
  662WAT     H1 2228   2.278   2.416   9.283
  662WAT     H2 2229   2.286   2.404   9.445
  663WAT      O 2230   8.465   1.905   6.965
  663WAT     H1 2231   8.388   1.847   6.937
  663WAT     H2 2232   8.542   1.890   6.903
  664WAT      O 2233   1.731   8.425   3.302
  664WAT     H1 2234   1.762   8.437   3.396
  664WAT     H2 2235   1.770   8.341   3.265
  665WAT      O 2236   6.975   4.150   0.744
  665WAT     H1 2237   7.043   4.121   0.812
  665WAT     H2 2238   6.903   4.203   0.789
  666WAT      O 2239   5.077   0.230   7.766
  666WAT     H1 2240   5.147   0.301   7.776
  666WAT     H2 2241   5.036   0.237   7.675
  667WAT      O 2242   4.211   4.983   1.571
  667WAT     H1 2243   4.274   4.934   1.510
  667WAT     H2 2244   4.209   4.938   1.660
  668WAT      O 2245   4.770   8.200   1.900
  668WAT     H1 2246   4.762   8.299   1.914
  668WAT     H2 2247   4.814   8.183   1.812
  669WAT      O 2248   2.239   5.770   1.083
  669WAT     H1 2249   2.262   5.839   1.152
  669WAT     H2 2250   2.145   5.738   1.099
  670WAT      O 2251   7.860   0.277   2.761
  670WAT     H1 2252   7.870   0.218   2.681
  670WAT     H2 2253   7.775   0.329   2.754
  671WAT      O 2254   0.726   7.925   5.196
  671WAT     H1 2255   0.735   7.995   5.126
  671WAT     H2 2256   0.744   7.965   5.286
  672WAT      O 2257   3.268   8.709   4.516
  672WAT     H1 2258   3.169   8.722   4.517
  672WAT     H2 2259   3.302   8.723   4.423
  673WAT      O 2260   5.307   0.682   6.696
  673WAT     H1 2261   5.285   0.602   6.641
  673WAT     H2 2262   5.390   0.726   6.660
  674WAT      O 2263   3.176   5.999   1.737
  674WAT     H1 2264   3.150   5.942   1.815
  674WAT     H2 2265   3.184   6.094   1.767
  675WAT      O 2266   3.922   9.657   7.176
  675WAT     H1 2267   3.952   9.565   7.198
  675WAT     H2 2268   3.824   9.657   7.154
  676WAT      O 2269   3.151   7.576   8.325
  676WAT     H1 2270   3.216   7.638   8.368
  676WAT     H2 2271   3.197   7.489   8.304
  677WAT      O 2272   3.605   4.491   2.812
  677WAT     H1 2273   3.639   4.490   2.906
  677WAT     H2 2274   3.519   4.441   2.808
  678WAT      O 2275   7.542   6.292   6.918
  678WAT     H1 2276   7.454   6.324   6.955
  678WAT     H2 2277   7.609   6.285   6.992
  679WAT      O 2278   9.254   8.313   0.953
  679WAT     H1 2279   9.280   8.395   0.902
  679WAT     H2 2280   9.334   8.253   0.962
  680WAT      O 2281   6.507   0.865   4.203
  680WAT     H1 2282   6.430   0.829   4.150
  680WAT     H2 2283   6.475   0.901   4.290
  681WAT      O 2284   0.629   9.403   8.102
  681WAT     H1 2285   0.650   9.369   8.194
  681WAT     H2 2286   0.530   9.402   8.088
  682WAT      O 2287   7.898   5.836   9.281
  682WAT     H1 2288   7.925   5.743   9.256
  682WAT     H2 2289   7.800   5.848   9.264
  683WAT      O 2290   1.540   9.188   6.845
  683WAT     H1 2291   1.461   9.163   6.901
  683WAT     H2 2292   1.557   9.286   6.854
  684WAT      O 2293   1.425   4.737   9.381
  684WAT     H1 2294   1.524   4.736   9.364
  684WAT     H2 2295   1.405   4.800   9.455
  685WAT      O 2296   9.654   7.840   2.214
  685WAT     H1 2297   9.604   7.908   2.160
  685WAT     H2 2298   9.670   7.758   2.157
  686WAT      O 2299   2.945   5.073   4.424
  686WAT     H1 2300   2.931   5.117   4.336
  686WAT     H2 2301   2.891   4.989   4.430
  687WAT      O 2302   2.148   7.782   6.312
  687WAT     H1 2303   2.202   7.844   6.256
  687WAT     H2 2304   2.167   7.688   6.285
  688WAT      O 2305   0.651   2.761   0.471
  688WAT     H1 2306   0.720   2.720   0.411
  688WAT     H2 2307   0.677   2.856   0.492
  689WAT      O 2308   0.966   3.180   0.328
  689WAT     H1 2309   0.880   3.143   0.362
  689WAT     H2 2310   0.964   3.184   0.228
  690WAT      O 2311   5.437   5.235   2.195
  690WAT     H1 2312   5.473   5.212   2.105
  690WAT     H2 2313   5.504   5.292   2.244
  691WAT      O 2314   9.620   7.091   2.003
  691WAT     H1 2315   9.603   7.018   2.069
  691WAT     H2 2316   9.716   7.087   1.973
  692WAT      O 2317   2.139   8.230   3.441
  692WAT     H1 2318   2.143   8.276   3.353
  692WAT     H2 2319   2.147   8.132   3.428
  693WAT      O 2320   8.671   8.185   7.879
  693WAT     H1 2321   8.599   8.154   7.817
  693WAT     H2 2322   8.691   8.113   7.946
  694WAT      O 2323   6.889   5.426   9.269
  694WAT     H1 2324   6.866   5.492   9.198
  694WAT     H2 2325   6.946   5.353   9.230
  695WAT      O 2326   6.352   0.346   3.450
  695WAT     H1 2327   6.314   0.418   3.509
  695WAT     H2 2328   6.302   0.344   3.364
  696WAT      O 2329   1.162   3.864   1.839
  696WAT     H1 2330   1.204   3.930   1.775
  696WAT     H2 2331   1.226   3.789   1.855
  697WAT      O 2332   8.991   2.590   4.324
  697WAT     H1 2333   8.929   2.556   4.396
  697WAT     H2 2334   8.938   2.636   4.253
  698WAT      O 2335   0.856   8.607   4.417
  698WAT     H1 2336   0.823   8.533   4.475
  698WAT     H2 2337   0.952   8.626   4.438
  699WAT      O 2338   4.867   8.144   2.568
  699WAT     H1 2339   4.828   8.118   2.657
  699WAT     H2 2340   4.949   8.200   2.584
  700WAT      O 2341   1.114   2.842   5.673
  700WAT     H1 2342   1.047   2.916   5.663
  700WAT     H2 2343   1.130   2.826   5.770
  701WAT      O 2344   7.201   6.777   6.480
  701WAT     H1 2345   7.284   6.825   6.507
  701WAT     H2 2346   7.160   6.733   6.560
  702WAT      O 2347   4.126   9.297   7.451
  702WAT     H1 2348   4.190   9.240   7.503
  702WAT     H2 2349   4.096   9.373   7.509
  703WAT      O 2350   0.430   2.963   7.234
  703WAT     H1 2351   0.332   2.974   7.248
  703WAT     H2 2352   0.464   2.889   7.292
  704WAT      O 2353   1.761   4.999   4.260
  704WAT     H1 2354   1.710   4.994   4.346
  704WAT     H2 2355   1.822   4.921   4.252
  705WAT      O 2356   2.242   8.009   4.915
  705WAT     H1 2357   2.147   7.980   4.906
  705WAT     H2 2358   2.260   8.084   4.851
  706WAT      O 2359   2.603   0.024   9.110
  706WAT     H1 2360   2.548   0.107   9.115
  706WAT     H2 2361   2.576  -0.029   9.030
  707WAT      O 2362   9.060   4.278   6.106
  707WAT     H1 2363   9.160   4.283   6.096
  707WAT     H2 2364   9.030   4.185   6.089
  708WAT      O 2365   3.210   8.652   0.436
  708WAT     H1 2366   3.143   8.726   0.427
  708WAT     H2 2367   3.273   8.654   0.359
  709WAT      O 2368   5.734   9.082   2.256
  709WAT     H1 2369   5.802   9.083   2.183
  709WAT     H2 2370   5.660   9.020   2.231
  710WAT      O 2371   1.251   5.945   5.388
  710WAT     H1 2372   1.228   5.849   5.406
  710WAT     H2 2373   1.325   5.973   5.450
  711WAT      O 2374   9.447   8.940   5.946
  711WAT     H1 2375   9.396   8.855   5.941
  711WAT     H2 2376   9.413   9.004   5.877
  712WAT      O 2377   7.211   2.666   5.300
  712WAT     H1 2378   7.140   2.605   5.335
  712WAT     H2 2379   7.168   2.747   5.260
  713WAT      O 2380   5.884   9.446   3.539
  713WAT     H1 2381   5.841   9.445   3.448
  713WAT     H2 2382   5.865   9.533   3.584
  714WAT      O 2383   0.690   8.707   1.305
  714WAT     H1 2384   0.615   8.686   1.368
  714WAT     H2 2385   0.777   8.705   1.355
  715WAT      O 2386   9.590   2.791   4.154
  715WAT     H1 2387   9.602   2.881   4.114
  715WAT     H2 2388   9.626   2.721   4.092
  716WAT      O 2389   0.510   9.416   2.214
  716WAT     H1 2390   0.584   9.349   2.207
  716WAT     H2 2391   0.430   9.372   2.255
  717WAT      O 2392   8.462   2.759   7.411
  717WAT     H1 2393   8.436   2.853   7.390
  717WAT     H2 2394   8.380   2.702   7.413
  718WAT      O 2395   5.542   8.828   3.390
  718WAT     H1 2396   5.512   8.911   3.342
  718WAT     H2 2397   5.626   8.794   3.348
  719WAT      O 2398   5.407   7.868   4.675
  719WAT     H1 2399   5.404   7.954   4.623
  719WAT     H2 2400   5.501   7.853   4.707
  720WAT      O 2401   5.146   6.470   8.419
  720WAT     H1 2402   5.223   6.534   8.410
  720WAT     H2 2403   5.157   6.417   8.503
  721WAT      O 2404   2.572   5.563   4.168
  721WAT     H1 2405   2.506   5.589   4.238
  721WAT     H2 2406   2.664   5.588   4.197
  722WAT      O 2407   8.090   2.601   8.572
  722WAT     H1 2408   8.108   2.574   8.667
  722WAT     H2 2409   8.170   2.650   8.536
  723WAT      O 2410   7.949   6.749   1.081
  723WAT     H1 2411   8.047   6.756   1.098
  723WAT     H2 2412   7.923   6.813   1.009
  724WAT      O 2413   6.687   3.565   9.737
  724WAT     H1 2414   6.734   3.630   9.797
  724WAT     H2 2415   6.620   3.614   9.681
  725WAT      O 2416   7.106   5.843   8.648
  725WAT     H1 2417   7.139   5.846   8.553
  725WAT     H2 2418   7.050   5.924   8.665
  726WAT      O 2419   7.474   5.150   6.549
  726WAT     H1 2420   7.426   5.193   6.626
  726WAT     H2 2421   7.501   5.220   6.483
  727WAT      O 2422   6.790   3.659   3.387
  727WAT     H1 2423   6.838   3.640   3.472
  727WAT     H2 2424   6.774   3.757   3.378
  728WAT      O 2425   9.599   9.771   9.739
  728WAT     H1 2426   9.519   9.721   9.707
  728WAT     H2 2427   9.580   9.869   9.737
  729WAT      O 2428   9.570   5.714   4.481
  729WAT     H1 2429   9.480   5.743   4.449
  729WAT     H2 2430   9.621   5.793   4.514
  730WAT      O 2431   8.928   5.111   7.895
  730WAT     H1 2432   8.862   5.107   7.820
  730WAT     H2 2433   8.897   5.179   7.962
  731WAT      O 2434   4.308   2.783   2.915
  731WAT     H1 2435   4.234   2.845   2.941
  731WAT     H2 2436   4.270   2.705   2.866
  732WAT      O 2437   9.145   9.442   0.153
  732WAT     H1 2438   9.224   9.386   0.131
  732WAT     H2 2439   9.085   9.393   0.215
  733WAT      O 2440   5.725   6.678   8.984
  733WAT     H1 2441   5.704   6.670   8.887
  733WAT     H2 2442   5.808   6.625   9.005
  734WAT      O 2443   7.554   8.428   5.183
  734WAT     H1 2444   7.473   8.378   5.153
  734WAT     H2 2445   7.579   8.496   5.114
  735WAT      O 2446   9.665   0.916   0.172
  735WAT     H1 2447   9.752   0.908   0.123
  735WAT     H2 2448   9.626   1.007   0.158
  736WAT      O 2449   6.249   3.859   0.348
  736WAT     H1 2450   6.326   3.900   0.397
  736WAT     H2 2451   6.250   3.888   0.252
  737WAT      O 2452   9.261   0.393   8.909
  737WAT     H1 2453   9.286   0.484   8.942
  737WAT     H2 2454   9.250   0.331   8.986
  738WAT      O 2455   7.893   6.129   0.320
  738WAT     H1 2456   7.942   6.208   0.284
  738WAT     H2 2457   7.952   6.048   0.316
  739WAT      O 2458   2.110   3.063   5.238
  739WAT     H1 2459   2.032   3.030   5.292
  739WAT     H2 2460   2.165   2.986   5.208
  740WAT      O 2461   0.836   6.729   4.754
  740WAT     H1 2462   0.801   6.782   4.832
  740WAT     H2 2463   0.765   6.666   4.722
  741WAT      O 2464   1.266   2.477   1.029
  741WAT     H1 2465   1.208   2.469   1.110
  741WAT     H2 2466   1.283   2.573   1.008
  742WAT      O 2467   4.936   6.824   1.243
  742WAT     H1 2468   4.837   6.841   1.245
  742WAT     H2 2469   4.984   6.909   1.224
  743WAT      O 2470   6.826   4.004   2.851
  743WAT     H1 2471   6.814   3.909   2.880
  743WAT     H2 2472   6.923   4.022   2.835
  744WAT      O 2473   0.541   4.347   2.048
  744WAT     H1 2474   0.547   4.443   2.020
  744WAT     H2 2475   0.609   4.328   2.118
  745WAT      O 2476   0.361   6.296   0.337
  745WAT     H1 2477   0.453   6.280   0.300
  745WAT     H2 2478   0.367   6.358   0.415
  746WAT      O 2479   9.134   7.857   7.436
  746WAT     H1 2480   9.037   7.871   7.458
  746WAT     H2 2481   9.164   7.929   7.373
  747WAT      O 2482   5.265   0.554   1.467
  747WAT     H1 2483   5.284   0.552   1.565
  747WAT     H2 2484   5.349   0.571   1.417
  748WAT      O 2485   2.986   8.188   5.361
  748WAT     H1 2486   3.026   8.279   5.365
  748WAT     H2 2487   2.901   8.191   5.310
  749WAT      O 2488   0.144   2.737   3.465
  749WAT     H1 2489   0.055   2.762   3.427
  749WAT     H2 2490   0.205   2.816   3.461
  750WAT      O 2491   4.570   5.519   5.514
  750WAT     H1 2492   4.588   5.426   5.546
  750WAT     H2 2493   4.476   5.525   5.481
  751WAT      O 2494   5.878   5.845   8.371
  751WAT     H1 2495   5.847   5.846   8.466
  751WAT     H2 2496   5.951   5.778   8.361
  752WAT      O 2497   8.740   2.203   5.543
  752WAT     H1 2498   8.742   2.302   5.552
  752WAT     H2 2499   8.807   2.162   5.606
  753WAT      O 2500   2.520   7.128   4.280
  753WAT     H1 2501   2.601   7.173   4.317
  753WAT     H2 2502   2.541   7.032   4.260
  754WAT      O 2503   0.209   6.362   7.991
  754WAT     H1 2504   0.249   6.361   8.083
  754WAT     H2 2505   0.148   6.284   7.981
  755WAT      O 2506   4.971   2.954   8.468
  755WAT     H1 2507   4.917   2.973   8.385
  755WAT     H2 2508   5.016   2.865   8.459
  756WAT      O 2509   8.854   1.194   1.972
  756WAT     H1 2510   8.813   1.282   1.997
  756WAT     H2 2511   8.865   1.137   2.053
  757WAT      O 2512   4.195   4.300   5.527
  757WAT     H1 2513   4.102   4.287   5.562
  757WAT     H2 2514   4.245   4.362   5.588
  758WAT      O 2515   9.178   0.465   1.642
  758WAT     H1 2516   9.267   0.506   1.625
  758WAT     H2 2517   9.185   0.365   1.638
  759WAT      O 2518   6.827   5.893   7.740
  759WAT     H1 2519   6.811   5.894   7.641
  759WAT     H2 2520   6.877   5.809   7.764
  760WAT      O 2521   2.462   2.842   0.796
  760WAT     H1 2522   2.380   2.894   0.773
  760WAT     H2 2523   2.438   2.768   0.860
  761WAT      O 2524   0.815   6.903   3.241
  761WAT     H1 2525   0.734   6.927   3.189
  761WAT     H2 2526   0.852   6.985   3.285
  762WAT      O 2527   7.907   5.844   5.096
  762WAT     H1 2528   7.896   5.854   5.195
  762WAT     H2 2529   7.983   5.782   5.077
  763WAT      O 2530   9.853   2.549   2.155
  763WAT     H1 2531   9.828   2.456   2.129
  763WAT     H2 2532   9.925   2.546   2.224
  764WAT      O 2533   9.766   5.453   3.892
  764WAT     H1 2534   9.845   5.418   3.841
  764WAT     H2 2535   9.743   5.389   3.966
  765WAT      O 2536   9.475   7.156   0.032
  765WAT     H1 2537   9.500   7.173   0.127
  765WAT     H2 2538   9.377   7.173   0.019
  766WAT      O 2539   0.437   4.808   7.738
  766WAT     H1 2540   0.531   4.842   7.748
  766WAT     H2 2541   0.439   4.714   7.704
  767WAT      O 2542   2.297   6.540   5.276
  767WAT     H1 2543   2.330   6.446   5.273
  767WAT     H2 2544   2.281   6.573   5.183
  768WAT      O 2545   3.986   3.752   1.651
  768WAT     H1 2546   3.968   3.843   1.613
  768WAT     H2 2547   3.957   3.750   1.747
  769WAT      O 2548   7.335   9.835   2.522
  769WAT     H1 2549   7.339   9.802   2.428
  769WAT     H2 2550   7.320   9.757   2.583
  770WAT      O 2551   4.990   2.026   7.009
  770WAT     H1 2552   5.084   2.043   6.980
  770WAT     H2 2553   4.935   2.004   6.929
  771WAT      O 2554   8.603   1.737   8.461
  771WAT     H1 2555   8.661   1.665   8.423
  771WAT     H2 2556   8.543   1.772   8.389
  772WAT      O 2557   9.237   0.221   4.353
  772WAT     H1 2558   9.295   0.142   4.374
  772WAT     H2 2559   9.251   0.291   4.422
  773WAT      O 2560   3.511   8.090   9.805
  773WAT     H1 2561   3.573   8.163   9.776
  773WAT     H2 2562   3.556   8.033   9.874
  774WAT      O 2563   8.057   7.385   1.384
  774WAT     H1 2564   8.024   7.471   1.423
  774WAT     H2 2565   8.013   7.308   1.431
  775WAT      O 2566   3.164   9.675   5.617
  775WAT     H1 2567   3.083   9.620   5.638
  775WAT     H2 2568   3.212   9.698   5.701
  776WAT      O 2569   2.927   0.363   9.287
  776WAT     H1 2570   2.976   0.276   9.276
  776WAT     H2 2571   2.991   0.433   9.318
  777WAT      O 2572   8.958   6.595   9.072
  777WAT     H1 2573   8.982   6.540   9.152
  777WAT     H2 2574   8.906   6.538   9.008
  778WAT      O 2575   9.596   4.918   4.599
  778WAT     H1 2576   9.643   4.837   4.635
  778WAT     H2 2577   9.636   4.944   4.512
  779WAT      O 2578   1.143   0.805   7.268
  779WAT     H1 2579   1.052   0.810   7.226
  779WAT     H2 2580   1.148   0.870   7.343
  780WAT      O 2581   1.768   8.334   5.445
  780WAT     H1 2582   1.772   8.235   5.427
  780WAT     H2 2583   1.791   8.352   5.540
  781WAT      O 2584   9.366   6.953   9.735
  781WAT     H1 2585   9.403   6.863   9.709
  781WAT     H2 2586   9.421   6.991   9.809
  782WAT      O 2587   5.644   6.808   6.582
  782WAT     H1 2588   5.625   6.777   6.675
  782WAT     H2 2589   5.586   6.758   6.517
  783WAT      O 2590   8.251   5.395   0.402
  783WAT     H1 2591   8.287   5.488   0.395
  783WAT     H2 2592   8.189   5.388   0.479
  784WAT      O 2593   8.602   2.130   6.290
  784WAT     H1 2594   8.619   2.066   6.214
  784WAT     H2 2595   8.511   2.113   6.327
  785WAT      O 2596   7.318   0.824   0.370
  785WAT     H1 2597   7.283   0.766   0.443
  785WAT     H2 2598   7.302   0.780   0.281
  786WAT      O 2599   6.735   9.751   5.067
  786WAT     H1 2600   6.799   9.826   5.057
  786WAT     H2 2601   6.769   9.687   5.136
  787WAT      O 2602   8.468   0.012   6.628
  787WAT     H1 2603   8.378   0.001   6.670
  787WAT     H2 2604   8.475   0.104   6.589
  788WAT      O 2605   7.286   8.668   4.734
  788WAT     H1 2606   7.209   8.731   4.727
  788WAT     H2 2607   7.277   8.596   4.666
  789WAT      O 2608   1.267   6.785   6.058
  789WAT     H1 2609   1.180   6.824   6.087
  789WAT     H2 2610   1.261   6.758   5.962
  790WAT      O 2611   4.036   4.496   3.130
  790WAT     H1 2612   4.001   4.409   3.096
  790WAT     H2 2613   4.069   4.484   3.223
  791WAT      O 2614   9.537   9.625   4.331
  791WAT     H1 2615   9.600   9.551   4.354
  791WAT     H2 2616   9.442   9.592   4.339
  792WAT      O 2617   8.331   9.408   9.430
  792WAT     H1 2618   8.322   9.504   9.458
  792WAT     H2 2619   8.242   9.373   9.402
  793WAT      O 2620   7.502   6.566   2.663
  793WAT     H1 2621   7.494   6.492   2.729
  793WAT     H2 2622   7.443   6.548   2.584
  794WAT      O 2623   3.524   4.212   5.889
  794WAT     H1 2624   3.619   4.185   5.905
  794WAT     H2 2625   3.509   4.304   5.927
  795WAT      O 2626   0.934   0.965   0.659
  795WAT     H1 2627   0.932   0.867   0.679
  795WAT     H2 2628   0.900   0.980   0.566
  796WAT      O 2629   2.812   9.778   4.577
  796WAT     H1 2630   2.792   9.684   4.547
  796WAT     H2 2631   2.883   9.817   4.519
  797WAT      O 2632   3.539   0.179   6.692
  797WAT     H1 2633   3.608   0.109   6.676
  797WAT     H2 2634   3.504   0.212   6.604
  798WAT      O 2635   1.060   8.998   6.472
  798WAT     H1 2636   1.059   9.066   6.399
  798WAT     H2 2637   1.155   8.981   6.499
  799WAT      O 2638   9.536   3.031   1.370
  799WAT     H1 2639   9.482   3.004   1.290
  799WAT     H2 2640   9.625   2.986   1.367
  800WAT      O 2641   8.590   5.421   0.062
  800WAT     H1 2642   8.498   5.396   0.033
  800WAT     H2 2643   8.638   5.464  -0.014
  801WAT      O 2644   3.399   1.329   1.524
  801WAT     H1 2645   3.478   1.372   1.480
  801WAT     H2 2646   3.335   1.297   1.455
  802WAT      O 2647   5.272   1.390   0.782
  802WAT     H1 2648   5.256   1.386   0.683
  802WAT     H2 2649   5.260   1.484   0.814
  803WAT      O 2650   2.686   1.490   8.267
  803WAT     H1 2651   2.755   1.552   8.227
  803WAT     H2 2652   2.610   1.479   8.203
  804WAT      O 2653   5.123   1.578   0.903
  804WAT     H1 2654   5.179   1.558   0.983
  804WAT     H2 2655   5.032   1.606   0.931
  805WAT      O 2656   0.428   9.101   7.998
  805WAT     H1 2657   0.461   9.012   8.031
  805WAT     H2 2658   0.483   9.130   7.920
  806WAT      O 2659   8.302   0.344   3.345
  806WAT     H1 2660   8.235   0.418   3.339
  806WAT     H2 2661   8.394   0.381   3.329
  807WAT      O 2662   6.377   9.126   6.686
  807WAT     H1 2663   6.368   9.118   6.786
  807WAT     H2 2664   6.324   9.205   6.655
  808WAT      O 2665   4.242   5.450   6.146
  808WAT     H1 2666   4.157   5.501   6.161
  808WAT     H2 2667   4.293   5.444   6.232
  809WAT      O 2668   6.907   5.362   3.869
  809WAT     H1 2669   6.900   5.445   3.925
  809WAT     H2 2670   6.967   5.297   3.915
  810WAT      O 2671   8.019   9.210   3.944
  810WAT     H1 2672   8.101   9.153   3.949
  810WAT     H2 2673   8.046   9.306   3.937
  811WAT      O 2674   8.493   4.391   7.050
  811WAT     H1 2675   8.492   4.417   7.147
  811WAT     H2 2676   8.402   4.403   7.012
  812WAT      O 2677   9.258   2.493   6.247
  812WAT     H1 2678   9.231   2.548   6.168
  812WAT     H2 2679   9.271   2.398   6.219
  813WAT      O 2680   6.019   5.056   9.049
  813WAT     H1 2681   5.968   5.135   9.013
  813WAT     H2 2682   6.003   5.048   9.147
  814WAT      O 2683   6.906   1.633   4.989
  814WAT     H1 2684   6.903   1.555   5.051
  814WAT     H2 2685   6.864   1.713   5.033
  815WAT      O 2686   2.927   7.877   8.635
  815WAT     H1 2687   2.968   7.786   8.627
  815WAT     H2 2688   2.949   7.931   8.554
  816WAT      O 2689   1.973   3.335   3.400
  816WAT     H1 2690   1.943   3.388   3.321
  816WAT     H2 2691   1.893   3.292   3.442
  817WAT      O 2692   7.604   1.212   6.383
  817WAT     H1 2693   7.589   1.284   6.316
  817WAT     H2 2694   7.626   1.126   6.337
  818WAT      O 2695   3.114   9.497   6.714
  818WAT     H1 2696   3.197   9.510   6.659
  818WAT     H2 2697   3.072   9.410   6.691
  819WAT      O 2698   7.250   2.745   1.229
  819WAT     H1 2699   7.249   2.664   1.287
  819WAT     H2 2700   7.159   2.786   1.229
  820WAT      O 2701   8.413   4.421   8.719
  820WAT     H1 2702   8.433   4.512   8.753
  820WAT     H2 2703   8.478   4.396   8.648
  821WAT      O 2704   3.277   5.978   3.496
  821WAT     H1 2705   3.252   6.025   3.581
  821WAT     H2 2706   3.366   5.934   3.507
  822WAT      O 2707   5.450   8.623   8.363
  822WAT     H1 2708   5.361   8.579   8.348
  822WAT     H2 2709   5.443   8.687   8.439
  823WAT      O 2710   2.360   1.742   2.963
  823WAT     H1 2711   2.427   1.670   2.948
  823WAT     H2 2712   2.268   1.702   2.967
  824WAT      O 2713   0.360   8.914   6.945
  824WAT     H1 2714   0.411   8.940   7.027
  824WAT     H2 2715   0.290   8.847   6.969
  825WAT      O 2716   7.616   5.022   6.101
  825WAT     H1 2717   7.523   5.021   6.135
  825WAT     H2 2718   7.627   4.951   6.032
  826WAT      O 2719   6.653   2.501   1.681
  826WAT     H1 2720   6.740   2.501   1.631
  826WAT     H2 2721   6.581   2.465   1.622
  827WAT      O 2722   6.711   2.936   8.823
  827WAT     H1 2723   6.665   2.886   8.896
  827WAT     H2 2724   6.686   3.032   8.827
  828WAT      O 2725   4.202   4.759   6.669
  828WAT     H1 2726   4.214   4.758   6.569
  828WAT     H2 2727   4.176   4.851   6.698
  829WAT      O 2728   1.544   6.471   2.569
  829WAT     H1 2729   1.638   6.460   2.603
  829WAT     H2 2730   1.519   6.568   2.573
  830WAT      O 2731   2.107   0.054   9.571
  830WAT     H1 2732   2.067   0.144   9.554
  830WAT     H2 2733   2.108   0.037   9.670
  831WAT      O 2734   3.287   9.761   4.561
  831WAT     H1 2735   3.204   9.707   4.574
  831WAT     H2 2736   3.290   9.795   4.467
  832WAT      O 2737   9.621   8.487   5.251
  832WAT     H1 2738   9.531   8.510   5.287
  832WAT     H2 2739   9.616   8.400   5.202
  833WAT      O 2740   6.609   6.041   1.616
  833WAT     H1 2741   6.650   6.112   1.559
  833WAT     H2 2742   6.620   5.952   1.572
  834WAT      O 2743   6.412   5.650   6.633
  834WAT     H1 2744   6.336   5.661   6.698
  834WAT     H2 2745   6.472   5.576   6.664
  835WAT      O 2746   5.257   6.416   0.760
  835WAT     H1 2747   5.346   6.403   0.804
  835WAT     H2 2748   5.264   6.393   0.663
  836WAT      O 2749   2.601   5.261   8.584
  836WAT     H1 2750   2.604   5.361   8.597
  836WAT     H2 2751   2.689   5.230   8.549
  837WAT      O 2752   1.961   2.702   2.811
  837WAT     H1 2753   1.864   2.682   2.822
  837WAT     H2 2754   1.974   2.766   2.735
  838WAT      O 2755   6.914   6.770   6.320
  838WAT     H1 2756   6.874   6.742   6.233
  838WAT     H2 2757   6.845   6.766   6.391
  839WAT      O 2758   5.439   1.426   3.064
  839WAT     H1 2759   5.476   1.517   3.083
  839WAT     H2 2760   5.388   1.427   2.978
  840WAT      O 2761   9.327   8.077   0.419
  840WAT     H1 2762   9.274   7.993   0.436
  840WAT     H2 2763   9.363   8.111   0.505
  841WAT      O 2764   1.030   2.146   4.010
  841WAT     H1 2765   1.058   2.098   3.926
  841WAT     H2 2766   0.957   2.211   3.988
  842WAT      O 2767   0.848   1.577   5.921
  842WAT     H1 2768   0.754   1.560   5.891
  842WAT     H2 2769   0.859   1.673   5.945
  843WAT      O 2770   9.054   9.698   3.909
  843WAT     H1 2771   8.971   9.694   3.855
  843WAT     H2 2772   9.042   9.764   3.984
  844WAT      O 2773   1.292   6.017   6.633
  844WAT     H1 2774   1.214   5.956   6.644
  844WAT     H2 2775   1.310   6.031   6.536
  845WAT      O 2776   2.219   3.417   4.476
  845WAT     H1 2777   2.209   3.448   4.571
  845WAT     H2 2778   2.307   3.449   4.440
  846WAT      O 2779   7.088   3.344   9.846
  846WAT     H1 2780   7.047   3.415   9.902
  846WAT     H2 2781   7.092   3.258   9.899
  847WAT      O 2782   9.039   2.380   3.144
  847WAT     H1 2783   9.043   2.446   3.069
  847WAT     H2 2784   9.132   2.359   3.175
  848WAT      O 2785   0.567   3.983   2.803
  848WAT     H1 2786   0.598   3.935   2.885
  848WAT     H2 2787   0.630   4.059   2.784
  849WAT      O 2788   4.006   4.420   4.596
  849WAT     H1 2789   3.919   4.420   4.644
  849WAT     H2 2790   4.012   4.339   4.537
  850WAT      O 2791   6.359   4.520   6.716
  850WAT     H1 2792   6.403   4.610   6.725
  850WAT     H2 2793   6.287   4.511   6.784
  851WAT      O 2794   4.370   9.070   6.697
  851WAT     H1 2795   4.346   8.976   6.720
  851WAT     H2 2796   4.301   9.132   6.734
  852WAT      O 2797   1.056   3.000   5.311
  852WAT     H1 2798   1.087   3.053   5.231
  852WAT     H2 2799   1.118   2.924   5.327
  853WAT      O 2800   7.407   9.635   2.680
  853WAT     H1 2801   7.504   9.653   2.663
  853WAT     H2 2802   7.389   9.642   2.778
  854WAT      O 2803   1.555   6.665   0.272
  854WAT     H1 2804   1.549   6.579   0.322
  854WAT     H2 2805   1.480   6.670   0.206
  855WAT      O 2806   0.386   3.297   0.669
  855WAT     H1 2807   0.429   3.223   0.616
  855WAT     H2 2808   0.337   3.257   0.746
  856WAT      O 2809   5.640   0.698   6.917
  856WAT     H1 2810   5.610   0.617   6.966
  856WAT     H2 2811   5.718   0.739   6.964
  857WAT      O 2812   4.557   4.702   8.837
  857WAT     H1 2813   4.461   4.729   8.830
  857WAT     H2 2814   4.562   4.605   8.862
  858WAT      O 2815   8.276   1.798   4.083
  858WAT     H1 2816   8.184   1.784   4.045
  858WAT     H2 2817   8.344   1.785   4.011
  859WAT      O 2818   3.587   8.135   1.783
  859WAT     H1 2819   3.570   8.048   1.737
  859WAT     H2 2820   3.660   8.125   1.850
  860WAT      O 2821   3.442   4.988   8.015
  860WAT     H1 2822   3.364   5.013   7.957
  860WAT     H2 2823   3.426   5.021   8.108
  861WAT      O 2824   1.332   2.852   0.651
  861WAT     H1 2825   1.235   2.876   0.645
  861WAT     H2 2826   1.348   2.801   0.736
  862WAT      O 2827   4.314   7.390   7.030
  862WAT     H1 2828   4.267   7.318   7.082
  862WAT     H2 2829   4.362   7.450   7.094
  863WAT      O 2830   8.593   8.379   5.776
  863WAT     H1 2831   8.528   8.305   5.762
  863WAT     H2 2832   8.543   8.464   5.796
  864WAT      O 2833   3.081   0.360   3.632
  864WAT     H1 2834   3.022   0.388   3.556
  864WAT     H2 2835   3.151   0.430   3.647
  865WAT      O 2836   4.605   3.618   6.434
  865WAT     H1 2837   4.624   3.556   6.358
  865WAT     H2 2838   4.620   3.570   6.520
  866WAT      O 2839   5.530   2.797   5.290
  866WAT     H1 2840   5.630   2.795   5.292
  866WAT     H2 2841   5.495   2.773   5.380
  867WAT      O 2842   6.590   0.927   7.196
  867WAT     H1 2843   6.638   0.946   7.111
  867WAT     H2 2844   6.654   0.928   7.273
  868WAT      O 2845   0.026   2.810   2.055
  868WAT     H1 2846   0.001   2.720   2.092
  868WAT     H2 2847  -0.056   2.855   2.019
  869WAT      O 2848   3.218   6.670   4.515
  869WAT     H1 2849   3.250   6.618   4.594
  869WAT     H2 2850   3.214   6.767   4.539
  870WAT      O 2851   1.133   7.977   4.550
  870WAT     H1 2852   1.212   8.012   4.600
  870WAT     H2 2853   1.151   7.983   4.451
  871WAT      O 2854   7.572   0.087   5.755
  871WAT     H1 2855   7.658   0.052   5.793
  871WAT     H2 2856   7.591   0.159   5.689
  872WAT      O 2857   1.395   3.471   3.795
  872WAT     H1 2858   1.335   3.437   3.867
  872WAT     H2 2859   1.341   3.520   3.726
  873WAT      O 2860   5.186   9.419   5.123
  873WAT     H1 2861   5.247   9.485   5.166
  873WAT     H2 2862   5.238   9.338   5.096
  874WAT      O 2863   7.362   5.926   4.179
  874WAT     H1 2864   7.439   5.876   4.220
  874WAT     H2 2865   7.319   5.983   4.249
  875WAT      O 2866   8.413   1.665   6.421
  875WAT     H1 2867   8.317   1.690   6.428
  875WAT     H2 2868   8.440   1.612   6.502
  876WAT      O 2869   7.855   6.327   5.019
  876WAT     H1 2870   7.863   6.269   5.101
  876WAT     H2 2871   7.874   6.272   4.938
  877WAT      O 2872   4.799   6.534   6.958
  877WAT     H1 2873   4.854   6.451   6.949
  877WAT     H2 2874   4.744   6.528   7.042
  878WAT      O 2875   8.614   1.934   2.892
  878WAT     H1 2876   8.551   1.918   2.968
  878WAT     H2 2877   8.632   2.032   2.884
  879WAT      O 2878   0.111   4.616   5.906
  879WAT     H1 2879   0.132   4.565   5.989
  879WAT     H2 2880   0.195   4.659   5.871
  880WAT      O 2881   0.590   3.036   6.444
  880WAT     H1 2882   0.614   3.133   6.448
  880WAT     H2 2883   0.651   2.984   6.503
  881WAT      O 2884   2.997   8.106   6.363
  881WAT     H1 2885   3.091   8.079   6.339
  881WAT     H2 2886   2.934   8.068   6.295
  882WAT      O 2887   0.394   0.980   8.283
  882WAT     H1 2888   0.456   1.014   8.354
  882WAT     H2 2889   0.300   0.979   8.317
  883WAT      O 2890   3.555   7.428   2.806
  883WAT     H1 2891   3.555   7.335   2.844
  883WAT     H2 2892   3.577   7.424   2.708
  884WAT      O 2893   2.138   9.256   3.610
  884WAT     H1 2894   2.092   9.206   3.682
  884WAT     H2 2895   2.235   9.268   3.633
  885WAT      O 2896   2.594   0.061   3.755
  885WAT     H1 2897   2.617   0.097   3.845
  885WAT     H2 2898   2.674   0.017   3.715
  886WAT      O 2899   5.301   0.850   1.248
  886WAT     H1 2900   5.400   0.847   1.256
  886WAT     H2 2901   5.269   0.768   1.200
  887WAT      O 2902   0.614   7.217   4.455
  887WAT     H1 2903   0.558   7.238   4.535
  887WAT     H2 2904   0.668   7.297   4.431
  888WAT      O 2905   4.090   4.175   7.673
  888WAT     H1 2906   4.113   4.238   7.747
  888WAT     H2 2907   3.996   4.193   7.643
  889WAT      O 2908   1.695   2.385   9.175
  889WAT     H1 2909   1.710   2.439   9.258
  889WAT     H2 2910   1.675   2.291   9.200
  890WAT      O 2911   9.765   8.106   6.905
  890WAT     H1 2912   9.850   8.108   6.852
  890WAT     H2 2913   9.763   8.023   6.960
  891WAT      O 2914   1.176   4.066   4.188
  891WAT     H1 2915   1.163   3.990   4.252
  891WAT     H2 2916   1.090   4.085   4.142
  892WAT      O 2917   8.649   2.346   1.115
  892WAT     H1 2918   8.653   2.446   1.109
  892WAT     H2 2919   8.555   2.316   1.095
  893WAT      O 2920   3.524   4.304   8.037
  893WAT     H1 2921   3.599   4.240   8.020
  893WAT     H2 2922   3.517   4.321   8.136
  894WAT      O 2923   2.660   7.465   5.659
  894WAT     H1 2924   2.624   7.555   5.682
  894WAT     H2 2925   2.732   7.440   5.725
  895WAT      O 2926   6.063   6.304   3.326
  895WAT     H1 2927   6.127   6.241   3.282
  895WAT     H2 2928   6.112   6.386   3.356
  896WAT      O 2929   1.299   7.256   2.063
  896WAT     H1 2930   1.277   7.327   1.996
  896WAT     H2 2931   1.390   7.219   2.044
  897WAT      O 2932   7.698   7.367   7.421
  897WAT     H1 2933   7.793   7.336   7.423
  897WAT     H2 2934   7.675   7.410   7.509
  898WAT      O 2935   3.235   9.416   0.445
  898WAT     H1 2936   3.285   9.374   0.369
  898WAT     H2 2937   3.300   9.458   0.509
  899WAT      O 2938   0.286   6.739   4.105
  899WAT     H1 2939   0.314   6.788   4.188
  899WAT     H2 2940   0.223   6.666   4.129
  900WAT      O 2941   8.197   7.561   9.120
  900WAT     H1 2942   8.153   7.515   9.043
  900WAT     H2 2943   8.273   7.506   9.153
  901WAT      O 2944   9.785   7.726   1.815
  901WAT     H1 2945   9.758   7.701   1.908
  901WAT     H2 2946   9.727   7.801   1.782
  902WAT      O 2947   9.564   5.017   1.150
  902WAT     H1 2948   9.505   5.070   1.089
  902WAT     H2 2949   9.514   4.993   1.233
  903WAT      O 2950   7.014   6.775   2.525
  903WAT     H1 2951   7.043   6.697   2.581
  903WAT     H2 2952   7.024   6.859   2.578
  904WAT      O 2953   3.128   6.167   7.470
  904WAT     H1 2954   3.161   6.105   7.399
  904WAT     H2 2955   3.173   6.146   7.557
  905WAT      O 2956   7.224   8.962   5.137
  905WAT     H1 2957   7.287   8.996   5.207
  905WAT     H2 2958   7.275   8.943   5.053
  906WAT      O 2959   4.756   7.962   5.715
  906WAT     H1 2960   4.842   7.959   5.766
  906WAT     H2 2961   4.694   8.029   5.758
  907WAT      O 2962   3.732   5.800   0.258
  907WAT     H1 2963   3.665   5.762   0.194
  907WAT     H2 2964   3.689   5.873   0.311
  908WAT      O 2965   7.853   2.059   2.138
  908WAT     H1 2966   7.754   2.054   2.146
  908WAT     H2 2967   7.896   2.002   2.209
  909WAT      O 2968   0.361   8.960   7.528
  909WAT     H1 2969   0.317   9.002   7.607
  909WAT     H2 2970   0.460   8.958   7.542
  910WAT      O 2971   5.136   3.839   9.504
  910WAT     H1 2972   5.099   3.910   9.564
  910WAT     H2 2973   5.133   3.870   9.409
  911WAT      O 2974   8.695   8.427   5.524
  911WAT     H1 2975   8.610   8.399   5.481
  911WAT     H2 2976   8.682   8.434   5.623
  912WAT      O 2977   4.158   2.992   9.688
  912WAT     H1 2978   4.216   3.066   9.722
  912WAT     H2 2979   4.215   2.923   9.643
  913WAT      O 2980   4.358   4.332   3.969
  913WAT     H1 2981   4.387   4.239   3.950
  913WAT     H2 2982   4.278   4.331   4.029
  914WAT      O 2983   0.028   4.464   2.016
  914WAT     H1 2984   0.080   4.382   1.993
  914WAT     H2 2985   0.015   4.468   2.116
  915WAT      O 2986   0.855   1.987   7.131
  915WAT     H1 2987   0.881   2.027   7.219
  915WAT     H2 2988   0.756   1.989   7.121
  916WAT      O 2989   7.371   1.475   4.093
  916WAT     H1 2990   7.466   1.503   4.109
  916WAT     H2 2991   7.356   1.387   4.138
  917WAT      O 2992   9.191   2.735   9.441
  917WAT     H1 2993   9.254   2.803   9.404
  917WAT     H2 2994   9.238   2.676   9.506
  918WAT      O 2995   3.881   6.439   0.729
  918WAT     H1 2996   3.860   6.494   0.811
  918WAT     H2 2997   3.974   6.461   0.699
  919WAT      O 2998   3.738   8.584   0.097
  919WAT     H1 2999   3.647   8.587   0.056
  919WAT     H2 3000   3.732   8.612   0.193
  920WAT      O 3001   5.431   3.838   1.653
  920WAT     H1 3002   5.518   3.824   1.606
  920WAT     H2 3003   5.380   3.911   1.608
  921WAT      O 3004   1.501   9.165   0.651
  921WAT     H1 3005   1.544   9.171   0.741
  921WAT     H2 3006   1.404   9.189   0.659
  922WAT      O 3007   3.187   0.292   7.345
  922WAT     H1 3008   3.254   0.279   7.272
  922WAT     H2 3009   3.225   0.351   7.416
  923WAT      O 3010   2.523   2.634   7.694
  923WAT     H1 3011   2.459   2.588   7.631
  923WAT     H2 3012   2.517   2.733   7.681
  924WAT      O 3013   4.130   9.120   8.788
  924WAT     H1 3014   4.216   9.130   8.739
  924WAT     H2 3015   4.100   9.025   8.784
  925WAT      O 3016   5.559   9.773   6.255
  925WAT     H1 3017   5.517   9.840   6.194
  925WAT     H2 3018   5.645   9.810   6.292
  926WAT      O 3019   6.199   2.516   6.559
  926WAT     H1 3020   6.168   2.611   6.564
  926WAT     H2 3021   6.260   2.497   6.636
  927WAT      O 3022   5.509   1.453   3.932
  927WAT     H1 3023   5.500   1.381   3.863
  927WAT     H2 3024   5.604   1.457   3.963
  928WAT      O 3025   8.153   8.302   9.223
  928WAT     H1 3026   8.076   8.239   9.224
  928WAT     H2 3027   8.138   8.372   9.153
  929WAT      O 3028   7.052   1.356   0.655
  929WAT     H1 3029   6.996   1.391   0.730
  929WAT     H2 3030   7.106   1.431   0.617
  930WAT      O 3031   9.617   7.362   9.206
  930WAT     H1 3032   9.533   7.377   9.258
  930WAT     H2 3033   9.694   7.406   9.253
  931WAT      O 3034   1.724   5.788   4.632
  931WAT     H1 3035   1.731   5.810   4.534
  931WAT     H2 3036   1.708   5.690   4.643
  932WAT      O 3037   2.769   8.907   9.650
  932WAT     H1 3038   2.802   8.828   9.599
  932WAT     H2 3039   2.689   8.881   9.704
  933WAT      O 3040   8.461   1.503   3.081
  933WAT     H1 3041   8.428   1.582   3.132
  933WAT     H2 3042   8.513   1.443   3.142
  934WAT      O 3043   9.067   4.159   4.381
  934WAT     H1 3044   9.002   4.188   4.310
  934WAT     H2 3045   9.138   4.228   4.391
  935WAT      O 3046   8.562   3.783   9.151
  935WAT     H1 3047   8.480   3.763   9.098
  935WAT     H2 3048   8.550   3.752   9.245
  936WAT      O 3049   3.604   4.105   2.832
  936WAT     H1 3050   3.519   4.053   2.833
  936WAT     H2 3051   3.656   4.086   2.915
  937WAT      O 3052   8.333   1.392   1.573
  937WAT     H1 3053   8.347   1.335   1.654
  937WAT     H2 3054   8.407   1.459   1.567
  938WAT      O 3055   3.559   1.131   8.498
  938WAT     H1 3056   3.598   1.206   8.552
  938WAT     H2 3057   3.505   1.071   8.557
  939WAT      O 3058   7.597   6.189   4.058
  939WAT     H1 3059   7.663   6.257   4.027
  939WAT     H2 3060   7.631   6.146   4.142
  940WAT      O 3061   6.368   8.007   6.625
  940WAT     H1 3062   6.354   7.908   6.623
  940WAT     H2 3063   6.283   8.053   6.599
  941WAT      O 3064   6.480   4.942   1.613
  941WAT     H1 3065   6.524   5.010   1.553
  941WAT     H2 3066   6.433   4.874   1.557
  942WAT      O 3067   6.370   9.100   9.642
  942WAT     H1 3068   6.279   9.076   9.610
  942WAT     H2 3069   6.391   9.195   9.616
  943WAT      O 3070   7.139   8.325   5.027
  943WAT     H1 3071   7.124   8.363   4.936
  943WAT     H2 3072   7.236   8.306   5.040
  944WAT      O 3073   2.298   9.087   4.242
  944WAT     H1 3074   2.362   9.010   4.254
  944WAT     H2 3075   2.204   9.054   4.249
  945WAT      O 3076   2.526   3.241   8.822
  945WAT     H1 3077   2.499   3.318   8.764
  945WAT     H2 3078   2.503   3.155   8.776
  946WAT      O 3079   1.922   5.054   7.617
  946WAT     H1 3080   1.921   5.017   7.524
  946WAT     H2 3081   1.844   5.115   7.630
  947WAT      O 3082   0.464   0.017   4.047
  947WAT     H1 3083   0.388  -0.047   4.055
  947WAT     H2 3084   0.441   0.088   3.981
  948WAT      O 3085   0.792   7.415   3.961
  948WAT     H1 3086   0.761   7.498   3.915
  948WAT     H2 3087   0.757   7.335   3.913
  949WAT      O 3088   9.086   6.979   2.243
  949WAT     H1 3089   9.148   7.050   2.275
  949WAT     H2 3090   9.134   6.919   2.179
  950WAT      O 3091   2.217   0.178   9.101
  950WAT     H1 3092   2.201   0.108   9.031
  950WAT     H2 3093   2.315   0.196   9.108
  951WAT      O 3094   7.106   5.176   4.442
  951WAT     H1 3095   7.019   5.224   4.431
  951WAT     H2 3096   7.089   5.084   4.477
  952WAT      O 3097   7.594   0.151   7.978
  952WAT     H1 3098   7.666   0.115   8.038
  952WAT     H2 3099   7.540   0.218   8.028
  953WAT      O 3100   2.986   3.331   2.932
  953WAT     H1 3101   2.990   3.356   3.029
  953WAT     H2 3102   3.071   3.360   2.887
  954WAT      O 3103   6.053   0.627   0.121
  954WAT     H1 3104   6.052   0.621   0.221
  954WAT     H2 3105   6.008   0.711   0.092
  955WAT      O 3106   0.710   5.888   0.008
  955WAT     H1 3107   0.806   5.873   0.029
  955WAT     H2 3108   0.680   5.974   0.049
  956WAT      O 3109   7.463   3.686   8.306
  956WAT     H1 3110   7.427   3.637   8.226
  956WAT     H2 3111   7.389   3.737   8.349
  957WAT      O 3112   8.104   9.734   6.247
  957WAT     H1 3113   8.016   9.691   6.227
  957WAT     H2 3114   8.142   9.694   6.331
  958WAT      O 3115   0.531   9.405   6.567
  958WAT     H1 3116   0.608   9.399   6.629
  958WAT     H2 3117   0.446   9.408   6.619
  959WAT      O 3118   5.542   4.469   8.302
  959WAT     H1 3119   5.502   4.442   8.390
  959WAT     H2 3120   5.614   4.537   8.318
  960WAT      O 3121   2.208   0.173   6.333
  960WAT     H1 3122   2.238   0.242   6.267
  960WAT     H2 3123   2.210   0.082   6.290
  961WAT      O 3124   1.796   6.060   7.473
  961WAT     H1 3125   1.718   6.019   7.520
  961WAT     H2 3126   1.861   6.096   7.540
  962WAT      O 3127   7.433   1.145   2.674
  962WAT     H1 3128   7.341   1.181   2.686
  962WAT     H2 3129   7.443   1.059   2.724
  963WAT      O 3130   2.193   8.816   6.311
  963WAT     H1 3131   2.191   8.782   6.217
  963WAT     H2 3132   2.282   8.796   6.352
  964WAT      O 3133   0.675   9.387   4.798
  964WAT     H1 3134   0.612   9.330   4.851
  964WAT     H2 3135   0.643   9.482   4.798
  965WAT      O 3136   8.227   9.331   3.702
  965WAT     H1 3137   8.133   9.353   3.674
  965WAT     H2 3138   8.272   9.279   3.630
  966WAT      O 3139   8.772   1.985   2.166
  966WAT     H1 3140   8.868   1.959   2.160
  966WAT     H2 3141   8.720   1.911   2.209
  967WAT      O 3142   8.016   5.255   6.153
  967WAT     H1 3143   8.111   5.243   6.126
  967WAT     H2 3144   7.997   5.199   6.234
  968WAT      O 3145   9.111   3.545   8.949
  968WAT     H1 3146   9.062   3.490   9.017
  968WAT     H2 3147   9.063   3.631   8.934
  969WAT      O 3148   5.796   1.478   5.168
  969WAT     H1 3149   5.838   1.485   5.077
  969WAT     H2 3150   5.763   1.568   5.196
  970WAT      O 3151   4.779   7.966   3.235
  970WAT     H1 3152   4.822   8.056   3.227
  970WAT     H2 3153   4.700   7.962   3.173
  971WAT      O 3154   9.622   9.335   8.813
  971WAT     H1 3155   9.657   9.428   8.818
  971WAT     H2 3156   9.629   9.301   8.719
  972WAT      O 3157   2.478   8.693   8.528
  972WAT     H1 3158   2.574   8.678   8.504
  972WAT     H2 3159   2.473   8.764   8.598
  973WAT      O 3160   7.669   2.073   4.075
  973WAT     H1 3161   7.683   2.103   3.981
  973WAT     H2 3162   7.652   1.974   4.076
  974WAT      O 3163   9.107   8.981   4.752
  974WAT     H1 3164   9.070   9.074   4.745
  974WAT     H2 3165   9.205   8.983   4.733
  975WAT      O 3166   2.401   8.521   1.154
  975WAT     H1 3167   2.479   8.501   1.214
  975WAT     H2 3168   2.381   8.619   1.157
  976WAT      O 3169   1.112   2.981   7.826
  976WAT     H1 3170   1.178   3.049   7.794
  976WAT     H2 3171   1.130   2.959   7.922
  977WAT      O 3172   3.088   2.902   0.132
  977WAT     H1 3173   3.158   2.886   0.062
  977WAT     H2 3174   3.087   2.824   0.195
  978WAT      O 3175   2.837   4.945   5.736
  978WAT     H1 3176   2.755   5.001   5.727
  978WAT     H2 3177   2.866   4.943   5.832
  979WAT      O 3178   8.513   3.302   0.131
  979WAT     H1 3179   8.463   3.349   0.204
  979WAT     H2 3180   8.453   3.235   0.087
  980WAT      O 3181   9.428   8.791   4.544
  980WAT     H1 3182   9.349   8.737   4.514
  980WAT     H2 3183   9.471   8.747   4.622
  981WAT      O 3184   0.733   7.326   7.154
  981WAT     H1 3185   0.656   7.311   7.215
  981WAT     H2 3186   0.707   7.302   7.061
  982WAT      O 3187   0.536   2.674   5.780
  982WAT     H1 3188   0.603   2.726   5.833
  982WAT     H2 3189   0.449   2.723   5.779
  983WAT      O 3190   5.681   9.714   4.522
  983WAT     H1 3191   5.741   9.779   4.570
  983WAT     H2 3192   5.733   9.666   4.452
  984WAT      O 3193   8.271   4.788   8.881
  984WAT     H1 3194   8.226   4.816   8.796
  984WAT     H2 3195   8.248   4.692   8.901
  985WAT      O 3196   1.163   3.340   1.825
  985WAT     H1 3197   1.179   3.392   1.909
  985WAT     H2 3198   1.102   3.263   1.845
  986WAT      O 3199   7.170   1.985   6.670
  986WAT     H1 3200   7.221   2.070   6.681
  986WAT     H2 3201   7.198   1.940   6.585
  987WAT      O 3202   0.276   0.696   6.690
  987WAT     H1 3203   0.185   0.665   6.719
  987WAT     H2 3204   0.302   0.776   6.744
  988WAT      O 3205   7.718   6.237   9.474
  988WAT     H1 3206   7.768   6.154   9.500
  988WAT     H2 3207   7.630   6.211   9.434
  989WAT      O 3208   9.254   9.158   4.432
  989WAT     H1 3209   9.298   9.151   4.522
  989WAT     H2 3210   9.187   9.232   4.434
  990WAT      O 3211   1.504   0.111   9.619
  990WAT     H1 3212   1.416   0.073   9.591
  990WAT     H2 3213   1.491   0.174   9.696
  991WAT      O 3214   2.310   6.816   9.616
  991WAT     H1 3215   2.301   6.881   9.692
  991WAT     H2 3216   2.349   6.862   9.537
  992WAT      O 3217   3.938   5.862   3.615
  992WAT     H1 3218   3.876   5.878   3.538
  992WAT     H2 3219   4.007   5.795   3.589
  993WAT      O 3220   3.312   7.191   3.410
  993WAT     H1 3221   3.342   7.164   3.501
  993WAT     H2 3222   3.391   7.191   3.348
  994WAT      O 3223   1.283   0.144   1.885
  994WAT     H1 3224   1.353   0.204   1.847
  994WAT     H2 3225   1.254   0.179   1.974
  995WAT      O 3226   2.067   0.140   0.448
  995WAT     H1 3227   2.065   0.168   0.544
  995WAT     H2 3228   2.154   0.166   0.407
  996WAT      O 3229   3.889   0.295   2.943
  996WAT     H1 3230   3.838   0.242   3.012
  996WAT     H2 3231   3.957   0.236   2.899
  997WAT      O 3232   3.275   6.334   0.262
  997WAT     H1 3233   3.346   6.305   0.198
  997WAT     H2 3234   3.300   6.303   0.354
  998WAT      O 3235   2.389   9.544   0.521
  998WAT     H1 3236   2.452   9.591   0.460
  998WAT     H2 3237   2.317   9.500   0.468
  999WAT      O 3238   3.548   6.557   9.508
  999WAT     H1 3239   3.626   6.576   9.448
  999WAT     H2 3240   3.577   6.566   9.603
 1000WAT      O 3241   1.047   1.935   8.351
 1000WAT     H1 3242   1.134   1.978   8.328
 1000WAT     H2 3243   1.056   1.836   8.345
 1001WAT      O 3244   0.222   3.562   5.220
 1001WAT     H1 3245   0.255   3.656   5.232
 1001WAT     H2 3246   0.181   3.530   5.305
 1002WAT      O 3247   8.471   2.478   0.866
 1002WAT     H1 3248   8.515   2.432   0.788
 1002WAT     H2 3249   8.538   2.535   0.913
 1003WAT      O 3250   5.826   7.329   7.280
 1003WAT     H1 3251   5.895   7.259   7.266
 1003WAT     H2 3252   5.796   7.328   7.375
 1004WAT      O 3253   0.949   6.234   2.893
 1004WAT     H1 3254   0.963   6.255   2.990
 1004WAT     H2 3255   0.851   6.233   2.873
 1005WAT      O 3256   0.838   4.814   2.911
 1005WAT     H1 3257   0.814   4.717   2.920
 1005WAT     H2 3258   0.754   4.869   2.908
 1006WAT      O 3259   7.324   2.398   4.100
 1006WAT     H1 3260   7.251   2.331   4.097
 1006WAT     H2 3261   7.342   2.423   4.196
 1007WAT      O 3262   1.072   5.257   7.148
 1007WAT     H1 3263   1.003   5.329   7.152
 1007WAT     H2 3264   1.150   5.289   7.094
 1008WAT      O 3265   5.373   5.364   5.419
 1008WAT     H1 3266   5.329   5.327   5.501
 1008WAT     H2 3267   5.471   5.373   5.436
 1009WAT      O 3268   8.166   8.496   2.253
 1009WAT     H1 3269   8.249   8.448   2.226
 1009WAT     H2 3270   8.095   8.430   2.278
 1010WAT      O 3271   2.336   6.031   8.391
 1010WAT     H1 3272   2.372   5.966   8.324
 1010WAT     H2 3273   2.340   6.123   8.352
 1011WAT      O 3274   4.761   6.417   0.907
 1011WAT     H1 3275   4.682   6.471   0.877
 1011WAT     H2 3276   4.845   6.460   0.875
 1012WAT      O 3277   3.195   5.764   5.140
 1012WAT     H1 3278   3.098   5.777   5.160
 1012WAT     H2 3279   3.230   5.845   5.094
 1013WAT      O 3280   8.305   1.369   2.434
 1013WAT     H1 3281   8.392   1.321   2.451
 1013WAT     H2 3282   8.229   1.307   2.453
 1014WAT      O 3283   2.320   8.978   3.210
 1014WAT     H1 3284   2.322   9.059   3.151
 1014WAT     H2 3285   2.271   8.999   3.294
 1015WAT      O 3286   1.631   8.792   3.743
 1015WAT     H1 3287   1.563   8.852   3.786
 1015WAT     H2 3288   1.585   8.711   3.707
 1016WAT      O 3289   7.131   4.550   7.878
 1016WAT     H1 3290   7.094   4.609   7.806
 1016WAT     H2 3291   7.231   4.550   7.872
 1017WAT      O 3292   4.528   3.825   6.058
 1017WAT     H1 3293   4.600   3.761   6.084
 1017WAT     H2 3294   4.562   3.919   6.065
 1018WAT      O 3295   3.670   8.970   6.579
 1018WAT     H1 3296   3.570   8.967   6.573
 1018WAT     H2 3297   3.709   8.968   6.487
 1019WAT      O 3298   9.144   3.934   4.240
 1019WAT     H1 3299   9.109   4.020   4.277
 1019WAT     H2 3300   9.137   3.863   4.310
 1020WAT      O 3301   4.783   3.800   7.235
 1020WAT     H1 3302   4.753   3.806   7.330
 1020WAT     H2 3303   4.870   3.848   7.224
 1021WAT      O 3304   7.048   8.449   4.188
 1021WAT     H1 3305   7.111   8.438   4.110
 1021WAT     H2 3306   7.088   8.405   4.269
 1022WAT      O 3307   8.083   2.089   7.853
 1022WAT     H1 3308   8.158   2.069   7.915
 1022WAT     H2 3309   8.114   2.150   7.780
 1023WAT      O 3310   7.933   2.171   8.304
 1023WAT     H1 3311   7.842   2.212   8.308
 1023WAT     H2 3312   8.002   2.244   8.312
 1024WAT      O 3313   4.479   1.979   2.733
 1024WAT     H1 3314   4.473   2.078   2.727
 1024WAT     H2 3315   4.405   1.944   2.791
 1025WAT      O 3316   1.726   9.449   5.102
 1025WAT     H1 3317   1.773   9.490   5.023
 1025WAT     H2 3318   1.663   9.378   5.070
 1026WAT      O 3319   7.620   5.084   4.086
 1026WAT     H1 3320   7.620   5.181   4.108
 1026WAT     H2 3321   7.622   5.031   4.171
 1027WAT      O 3322   9.430   9.703   6.053
 1027WAT     H1 3323   9.400   9.686   6.147
 1027WAT     H2 3324   9.360   9.755   6.005
 1028WAT      O 3325   9.231   4.400   3.988
 1028WAT     H1 3326   9.166   4.472   4.015
 1028WAT     H2 3327   9.288   4.375   4.067
 1029WAT      O 3328   5.582   3.334   0.210
 1029WAT     H1 3329   5.517   3.353   0.284
 1029WAT     H2 3330   5.621   3.243   0.222
 1030WAT      O 3331   7.222   2.562   3.660
 1030WAT     H1 3332   7.234   2.580   3.758
 1030WAT     H2 3333   7.312   2.553   3.617
 1031WAT      O 3334   6.716   6.864   3.766
 1031WAT     H1 3335   6.619   6.889   3.769
 1031WAT     H2 3336   6.770   6.944   3.740
 1032WAT      O 3337   8.096   1.182   2.478
 1032WAT     H1 3338   8.068   1.147   2.389
 1032WAT     H2 3339   8.024   1.240   2.515
 1033WAT      O 3340   7.105   5.867   0.082
 1033WAT     H1 3341   7.143   5.788   0.131
 1033WAT     H2 3342   7.125   5.950   0.133
 1034WAT      O 3343   5.864   7.364   4.129
 1034WAT     H1 3344   5.846   7.273   4.092
 1034WAT     H2 3345   5.785   7.423   4.112
 1035WAT      O 3346   1.067   3.759   1.473
 1035WAT     H1 3347   1.166   3.769   1.467
 1035WAT     H2 3348   1.041   3.743   1.568
 1036WAT      O 3349   7.931   8.483   9.578
 1036WAT     H1 3350   8.024   8.447   9.570
 1036WAT     H2 3351   7.927   8.575   9.539
 1037WAT      O 3352   0.184   8.376   4.423
 1037WAT     H1 3353   0.115   8.385   4.496
 1037WAT     H2 3354   0.140   8.381   4.334
 1038WAT      O 3355   6.676   8.035   7.792
 1038WAT     H1 3356   6.607   8.062   7.725
 1038WAT     H2 3357   6.631   8.006   7.876
 1039WAT      O 3358   9.615   6.828   3.641
 1039WAT     H1 3359   9.619   6.738   3.684
 1039WAT     H2 3360   9.612   6.817   3.541
 1040WAT      O 3361   3.186   7.325   1.180
 1040WAT     H1 3362   3.164   7.307   1.276
 1040WAT     H2 3363   3.155   7.417   1.155
 1041WAT      O 3364   4.576   3.574   7.339
 1041WAT     H1 3365   4.667   3.600   7.308
 1041WAT     H2 3366   4.562   3.476   7.323
 1042WAT      O 3367   1.093   3.897   6.857
 1042WAT     H1 3368   1.116   3.982   6.904
 1042WAT     H2 3369   1.137   3.820   6.903
 1043WAT      O 3370   1.969   6.979   1.293
 1043WAT     H1 3371   2.022   6.916   1.237
 1043WAT     H2 3372   1.900   6.927   1.345
 1044WAT      O 3373   2.822   6.063   9.116
 1044WAT     H1 3374   2.772   5.976   9.112
 1044WAT     H2 3375   2.759   6.138   9.098
 1045WAT      O 3376   7.189   7.164   5.036
 1045WAT     H1 3377   7.178   7.073   5.076
 1045WAT     H2 3378   7.099   7.197   5.004
 1046WAT      O 3379   8.107   8.358   3.280
 1046WAT     H1 3380   8.102   8.456   3.260
 1046WAT     H2 3381   8.040   8.310   3.223
 1047WAT      O 3382   5.230   4.592   4.215
 1047WAT     H1 3383   5.145   4.611   4.166
 1047WAT     H2 3384   5.306   4.591   4.151
 1048WAT      O 3385   0.662   9.459   9.391
 1048WAT     H1 3386   0.601   9.380   9.393
 1048WAT     H2 3387   0.610   9.541   9.413
 1049WAT      O 3388   5.039   1.536   4.614
 1049WAT     H1 3389   5.128   1.577   4.597
 1049WAT     H2 3390   5.043   1.437   4.601
 1050WAT      O 3391   1.298   5.027   5.535
 1050WAT     H1 3392   1.294   4.938   5.581
 1050WAT     H2 3393   1.210   5.047   5.493
 1051WAT      O 3394   0.666   6.597   2.492
 1051WAT     H1 3395   0.702   6.676   2.441
 1051WAT     H2 3396   0.577   6.622   2.532
 1052WAT      O 3397   2.055   7.804   8.819
 1052WAT     H1 3398   2.060   7.851   8.907
 1052WAT     H2 3399   2.146   7.770   8.795
 1053WAT      O 3400   9.756   1.949   1.306
 1053WAT     H1 3401   9.748   2.021   1.375
 1053WAT     H2 3402   9.755   1.860   1.351
 1054WAT      O 3403   6.586   2.751   8.022
 1054WAT     H1 3404   6.672   2.706   7.999
 1054WAT     H2 3405   6.604   2.842   8.061
 1055WAT      O 3406   5.891   8.223   8.048
 1055WAT     H1 3407   5.848   8.187   7.965
 1055WAT     H2 3408   5.867   8.165   8.126
 1056WAT      O 3409   4.440   0.020   6.070
 1056WAT     H1 3410   4.488   0.040   5.985
 1056WAT     H2 3411   4.351   0.067   6.070
 1057WAT      O 3412   3.072   0.749   7.496
 1057WAT     H1 3413   3.059   0.735   7.398
 1057WAT     H2 3414   3.167   0.774   7.515
 1058WAT      O 3415   6.415   6.135   8.826
 1058WAT     H1 3416   6.337   6.196   8.819
 1058WAT     H2 3417   6.384   6.042   8.848
 1059WAT      O 3418   9.350   0.980   4.928
 1059WAT     H1 3419   9.324   1.034   5.008
 1059WAT     H2 3420   9.383   1.042   4.856
 1060WAT      O 3421   2.673   5.933   2.424
 1060WAT     H1 3422   2.651   6.030   2.414
 1060WAT     H2 3423   2.634   5.899   2.509
 1061WAT      O 3424   4.879   6.013   1.432
 1061WAT     H1 3425   4.843   6.048   1.345
 1061WAT     H2 3426   4.896   6.089   1.495
 1062WAT      O 3427   7.117   8.907   9.688
 1062WAT     H1 3428   7.043   8.940   9.746
 1062WAT     H2 3429   7.133   8.972   9.614
 1063WAT      O 3430   3.345   4.615   6.850
 1063WAT     H1 3431   3.441   4.592   6.833
 1063WAT     H2 3432   3.294   4.608   6.765
 1064WAT      O 3433   6.062   7.056   3.892
 1064WAT     H1 3434   5.999   7.120   3.936
 1064WAT     H2 3435   6.156   7.081   3.914
 1065WAT      O 3436   0.085   6.323   9.277
 1065WAT     H1 3437   0.093   6.379   9.359
 1065WAT     H2 3438   0.176   6.308   9.238
 1066WAT      O 3439   2.102   4.895   7.771
 1066WAT     H1 3440   2.039   4.929   7.701
 1066WAT     H2 3441   2.172   4.963   7.789
 1067WAT      O 3442   3.355   9.793   7.751
 1067WAT     H1 3443   3.308   9.730   7.689
 1067WAT     H2 3444   3.356   9.884   7.711
 1068WAT      O 3445   9.091   3.609   6.357
 1068WAT     H1 3446   9.168   3.559   6.319
 1068WAT     H2 3447   9.073   3.577   6.450
 1069WAT      O 3448   1.341   4.794   5.698
 1069WAT     H1 3449   1.427   4.839   5.719
 1069WAT     H2 3450   1.326   4.719   5.762
 1070WAT      O 3451   7.248   9.068   9.195
 1070WAT     H1 3452   7.200   9.024   9.119
 1070WAT     H2 3453   7.325   9.011   9.224
 1071WAT      O 3454   9.334   6.741   8.405
 1071WAT     H1 3455   9.387   6.820   8.375
 1071WAT     H2 3456   9.238   6.767   8.416
 1072WAT      O 3457   1.745   8.461   6.808
 1072WAT     H1 3458   1.710   8.512   6.887
 1072WAT     H2 3459   1.680   8.388   6.784
 1073WAT      O 3460   2.722   1.596   4.479
 1073WAT     H1 3461   2.785   1.595   4.402
 1073WAT     H2 3462   2.632   1.563   4.449
 1074WAT      O 3463   2.919   0.064   2.895
 1074WAT     H1 3464   2.894   0.161   2.890
 1074WAT     H2 3465   2.837   0.009   2.911
 1075WAT      O 3466   0.266   7.252   2.520
 1075WAT     H1 3467   0.338   7.299   2.570
 1075WAT     H2 3468   0.178   7.265   2.566
 1076WAT      O 3469   4.798   7.983   6.928
 1076WAT     H1 3470   4.868   8.016   6.865
 1076WAT     H2 3471   4.713   8.034   6.913
 1077WAT      O 3472   7.140   5.732   9.392
 1077WAT     H1 3473   7.200   5.808   9.417
 1077WAT     H2 3474   7.192   5.667   9.336
 1078WAT      O 3475   0.374   5.788   2.688
 1078WAT     H1 3476   0.398   5.700   2.728
 1078WAT     H2 3477   0.424   5.801   2.602
 1079WAT      O 3478   2.788   8.243   6.913
 1079WAT     H1 3479   2.875   8.269   6.954
 1079WAT     H2 3480   2.805   8.180   6.837
 1080WAT      O 3481   8.179   9.599   2.810
 1080WAT     H1 3482   8.171   9.584   2.909
 1080WAT     H2 3483   8.171   9.696   2.791
 1081WAT      O 3484   2.550   5.849   4.875
 1081WAT     H1 3485   2.496   5.914   4.822
 1081WAT     H2 3486   2.496   5.817   4.953
 1082WAT      O 3487   9.020   4.967   3.182
 1082WAT     H1 3488   9.054   5.016   3.102
 1082WAT     H2 3489   9.027   4.868   3.167
 1083WAT      O 3490   6.525   4.450   3.349
 1083WAT     H1 3491   6.565   4.367   3.312
 1083WAT     H2 3492   6.585   4.528   3.329
 1084WAT      O 3493   4.021   2.787   0.274
 1084WAT     H1 3494   3.968   2.714   0.318
 1084WAT     H2 3495   4.119   2.768   0.286
 1085WAT      O 3496   6.575   0.850   2.516
 1085WAT     H1 3497   6.629   0.898   2.586
 1085WAT     H2 3498   6.591   0.893   2.427
 1086WAT      O 3499   8.330   4.216   0.773
 1086WAT     H1 3500   8.409   4.157   0.790
 1086WAT     H2 3501   8.292   4.197   0.683
 1087WAT      O 3502   4.878   7.051   6.152
 1087WAT     H1 3503   4.849   6.957   6.133
 1087WAT     H2 3504   4.942   7.081   6.081
 1088WAT      O 3505   4.008   7.841   0.325
 1088WAT     H1 3506   3.929   7.855   0.267
 1088WAT     H2 3507   4.011   7.745   0.355
 1089WAT      O 3508   9.835   0.854   1.565
 1089WAT     H1 3509   9.824   0.953   1.558
 1089WAT     H2 3510   9.844   0.828   1.661
 1090WAT      O 3511   1.348   4.111   5.825
 1090WAT     H1 3512   1.349   4.077   5.731
 1090WAT     H2 3513   1.352   4.211   5.825
 1091WAT      O 3514   6.106   0.084   7.609
 1091WAT     H1 3515   6.183   0.120   7.663
 1091WAT     H2 3516   6.122  -0.013   7.589
 1092WAT      O 3517   0.004   7.605   9.862
 1092WAT     H1 3518  -0.093   7.614   9.887
 1092WAT     H2 3519   0.061   7.633   9.939
 1093WAT      O 3520   1.574   1.464   8.788
 1093WAT     H1 3521   1.592   1.547   8.840
 1093WAT     H2 3522   1.579   1.385   8.849
 1094WAT      O 3523   5.596   1.108   1.382
 1094WAT     H1 3524   5.592   1.025   1.328
 1094WAT     H2 3525   5.528   1.173   1.348
 1095WAT      O 3526   6.582   4.033   1.518
 1095WAT     H1 3527   6.503   4.056   1.461
 1095WAT     H2 3528   6.551   3.998   1.607
 1096WAT      O 3529   8.683   7.659   9.840
 1096WAT     H1 3530   8.616   7.587   9.861
 1096WAT     H2 3531   8.748   7.625   9.772
 1097WAT      O 3532   3.521   8.861   6.783
 1097WAT     H1 3533   3.467   8.874   6.866
 1097WAT     H2 3534   3.591   8.932   6.776
 1098WAT      O 3535   5.589   0.874   1.220
 1098WAT     H1 3536   5.562   0.836   1.132
 1098WAT     H2 3537   5.659   0.817   1.262
 1099WAT      O 3538   2.912   7.012   8.701
 1099WAT     H1 3539   3.006   7.045   8.711
 1099WAT     H2 3540   2.909   6.942   8.631
 1100WAT      O 3541   8.195   9.653   0.053
 1100WAT     H1 3542   8.168   9.741   0.093
 1100WAT     H2 3543   8.291   9.635   0.075
 1101WAT      O 3544   8.493   0.031   5.598
 1101WAT     H1 3545   8.442  -0.055   5.598
 1101WAT     H2 3546   8.432   0.106   5.622
 1102WAT      O 3547   4.418   8.559   3.609
 1102WAT     H1 3548   4.344   8.553   3.542
 1102WAT     H2 3549   4.501   8.519   3.570
 1103WAT      O 3550   7.953   3.415   4.967
 1103WAT     H1 3551   7.936   3.378   5.058
 1103WAT     H2 3552   8.044   3.386   4.936
 1104WAT      O 3553   3.607   2.488   8.991
 1104WAT     H1 3554   3.613   2.584   9.017
 1104WAT     H2 3555   3.514   2.467   8.961
 1105WAT      O 3556   8.808   6.337   3.326
 1105WAT     H1 3557   8.903   6.352   3.297
 1105WAT     H2 3558   8.807   6.282   3.410
 1106WAT      O 3559   6.395   8.221   1.521
 1106WAT     H1 3560   6.346   8.301   1.556
 1106WAT     H2 3561   6.330   8.149   1.499
 1107WAT      O 3562   7.031   3.586   6.690
 1107WAT     H1 3563   7.058   3.602   6.595
 1107WAT     H2 3564   7.081   3.508   6.726
 1108WAT      O 3565   9.880   1.466   6.032
 1108WAT     H1 3566   9.841   1.434   6.118
 1108WAT     H2 3567   9.815   1.448   5.958
 1109WAT      O 3568   6.796   1.715   0.453
 1109WAT     H1 3569   6.859   1.710   0.375
 1109WAT     H2 3570   6.724   1.780   0.433
 1110WAT      O 3571   2.028   7.600   4.016
 1110WAT     H1 3572   2.053   7.687   3.974
 1110WAT     H2 3573   1.991   7.539   3.947
 1111WAT      O 3574   0.732   7.131   5.813
 1111WAT     H1 3575   0.820   7.178   5.824
 1111WAT     H2 3576   0.745   7.033   5.825
 1112WAT      O 3577   1.105   0.511   8.548
 1112WAT     H1 3578   1.176   0.567   8.590
 1112WAT     H2 3579   1.139   0.476   8.461
 1113WAT      O 3580   9.465   3.539   0.711
 1113WAT     H1 3581   9.477   3.446   0.677
 1113WAT     H2 3582   9.417   3.594   0.641
 1114WAT      O 3583   9.351   5.002   4.056
 1114WAT     H1 3584   9.281   5.064   4.021
 1114WAT     H2 3585   9.436   5.052   4.071
 1115WAT      O 3586   4.820   4.552   1.290
 1115WAT     H1 3587   4.753   4.489   1.328
 1115WAT     H2 3588   4.856   4.516   1.204
 1116WAT      O 3589   2.781   4.857   4.470
 1116WAT     H1 3590   2.850   4.793   4.503
 1116WAT     H2 3591   2.747   4.827   4.381
 1117WAT      O 3592   0.915   1.274   3.455
 1117WAT     H1 3593   0.898   1.314   3.545
 1117WAT     H2 3594   1.009   1.292   3.427
 1118WAT      O 3595   1.126   4.403   5.530
 1118WAT     H1 3596   1.147   4.493   5.492
 1118WAT     H2 3597   1.209   4.348   5.535
 1119WAT      O 3598   1.909   3.906   3.355
 1119WAT     H1 3599   1.838   3.849   3.315
 1119WAT     H2 3600   1.876   4.000   3.363
 1120WAT      O 3601   6.810   0.841   5.812
 1120WAT     H1 3602   6.786   0.927   5.856
 1120WAT     H2 3603   6.905   0.819   5.832
 1121WAT      O 3604   3.208   8.346   8.803
 1121WAT     H1 3605   3.159   8.258   8.802
 1121WAT     H2 3606   3.169   8.404   8.874
 1122WAT      O 3607   9.163   3.355   8.397
 1122WAT     H1 3608   9.202   3.340   8.306
 1122WAT     H2 3609   9.229   3.326   8.467
 1123WAT      O 3610   1.686   3.301   7.364
 1123WAT     H1 3611   1.738   3.217   7.352
 1123WAT     H2 3612   1.719   3.371   7.301
 1124WAT      O 3613   8.245   6.694   0.556
 1124WAT     H1 3614   8.291   6.620   0.506
 1124WAT     H2 3615   8.193   6.750   0.492
 1125WAT      O 3616   3.254   2.101   9.724
 1125WAT     H1 3617   3.295   2.033   9.784
 1125WAT     H2 3618   3.156   2.108   9.744
 1126WAT      O 3619   1.833   1.944   6.697
 1126WAT     H1 3620   1.787   1.882   6.760
 1126WAT     H2 3621   1.818   2.038   6.725
 1127WAT      O 3622   3.339   8.891   7.019
 1127WAT     H1 3623   3.306   8.982   6.992
 1127WAT     H2 3624   3.354   8.890   7.118
 1128WAT      O 3625   8.933   1.506   3.489
 1128WAT     H1 3626   8.913   1.487   3.585
 1128WAT     H2 3627   8.911   1.426   3.434
 1129WAT      O 3628   5.319   3.858   8.803
 1129WAT     H1 3629   5.282   3.945   8.835
 1129WAT     H2 3630   5.278   3.835   8.715
 1130WAT      O 3631   1.363   5.364   8.227
 1130WAT     H1 3632   1.332   5.275   8.195
 1130WAT     H2 3633   1.288   5.409   8.275
 1131WAT      O 3634   6.438   3.210   0.735
 1131WAT     H1 3635   6.374   3.245   0.666
 1131WAT     H2 3636   6.413   3.116   0.757
 1132WAT      O 3637   3.702   0.659   1.376
 1132WAT     H1 3638   3.684   0.752   1.343
 1132WAT     H2 3639   3.770   0.662   1.449
 1133WAT      O 3640   0.482   6.689   0.850
 1133WAT     H1 3641   0.569   6.639   0.850
 1133WAT     H2 3642   0.407   6.624   0.843
 1134WAT      O 3643   6.082   4.412   6.001
 1134WAT     H1 3644   6.097   4.341   5.933
 1134WAT     H2 3645   6.145   4.488   5.985
 1135WAT      O 3646   2.275   5.072   1.382
 1135WAT     H1 3647   2.332   4.993   1.360
 1135WAT     H2 3648   2.331   5.154   1.385
 1136WAT      O 3649   0.251   4.146   9.617
 1136WAT     H1 3650   0.266   4.052   9.645
 1136WAT     H2 3651   0.328   4.203   9.645
 1137WAT      O 3652   2.510   8.886   8.719
 1137WAT     H1 3653   2.560   8.941   8.652
 1137WAT     H2 3654   2.463   8.946   8.783
 1138WAT      O 3655   3.138   1.978   0.518
 1138WAT     H1 3656   3.066   1.921   0.559
 1138WAT     H2 3657   3.180   2.034   0.590
 1139WAT      O 3658   0.989   3.942   5.126
 1139WAT     H1 3659   0.929   3.939   5.206
 1139WAT     H2 3660   1.029   3.851   5.112
 1140WAT      O 3661   5.193   5.007   3.291
 1140WAT     H1 3662   5.106   4.981   3.249
 1140WAT     H2 3663   5.249   4.925   3.304
 1141WAT      O 3664   0.323   8.316   6.310
 1141WAT     H1 3665   0.396   8.383   6.324
 1141WAT     H2 3666   0.252   8.329   6.379
 1142WAT      O 3667   1.480   7.541   8.932
 1142WAT     H1 3668   1.474   7.579   8.840
 1142WAT     H2 3669   1.391   7.552   8.978
 1143WAT      O 3670   2.958   0.962   1.955
 1143WAT     H1 3671   3.005   1.043   1.922
 1143WAT     H2 3672   3.003   0.928   2.038
 1144WAT      O 3673   8.570   4.570   5.006
 1144WAT     H1 3674   8.670   4.574   5.004
 1144WAT     H2 3675   8.534   4.643   5.064
 1145WAT      O 3676   9.685   0.608   7.792
 1145WAT     H1 3677   9.638   0.567   7.870
 1145WAT     H2 3678   9.693   0.541   7.719
 1146WAT      O 3679   1.083   9.152   0.831
 1146WAT     H1 3680   1.012   9.108   0.776
 1146WAT     H2 3681   1.110   9.092   0.906
 1147WAT      O 3682   2.053   2.094   9.247
 1147WAT     H1 3683   2.050   2.184   9.203
 1147WAT     H2 3684   2.005   2.098   9.335
 1148WAT      O 3685   4.567   4.230   8.344
 1148WAT     H1 3686   4.475   4.241   8.306
 1148WAT     H2 3687   4.631   4.206   8.271
 1149WAT      O 3688   7.134   7.494   7.471
 1149WAT     H1 3689   7.119   7.512   7.374
 1149WAT     H2 3690   7.214   7.546   7.502
 1150WAT      O 3691   5.642   0.774   0.542
 1150WAT     H1 3692   5.649   0.803   0.638
 1150WAT     H2 3693   5.548   0.788   0.510
 1151WAT      O 3694   8.589   0.089   9.044
 1151WAT     H1 3695   8.493   0.116   9.043
 1151WAT     H2 3696   8.626   0.094   8.952
 1152WAT      O 3697   7.482   2.065   2.820
 1152WAT     H1 3698   7.533   1.987   2.786
 1152WAT     H2 3699   7.453   2.048   2.914
 1153WAT      O 3700   6.738   1.368   4.133
 1153WAT     H1 3701   6.779   1.418   4.209
 1153WAT     H2 3702   6.644   1.400   4.118
 1154WAT      O 3703   5.889   0.927   9.205
 1154WAT     H1 3704   5.833   0.879   9.137
 1154WAT     H2 3705   5.952   0.862   9.248
 1155WAT      O 3706   2.903   6.347   4.865
 1155WAT     H1 3707   2.936   6.269   4.918
 1155WAT     H2 3708   2.937   6.432   4.906
 1156WAT      O 3709   3.523   0.784   9.752
 1156WAT     H1 3710   3.607   0.747   9.792
 1156WAT     H2 3711   3.476   0.713   9.701
 1157WAT      O 3712   7.767   2.136   6.931
 1157WAT     H1 3713   7.864   2.111   6.921
 1157WAT     H2 3714   7.712   2.052   6.935
 1158WAT      O 3715   8.525   8.320   2.604
 1158WAT     H1 3716   8.458   8.246   2.611
 1158WAT     H2 3717   8.477   8.407   2.588
 1159WAT      O 3718   0.404   2.570   4.642
 1159WAT     H1 3719   0.447   2.637   4.581
 1159WAT     H2 3720   0.389   2.485   4.593
 1160WAT      O 3721   0.730   3.315   4.600
 1160WAT     H1 3722   0.755   3.243   4.535
 1160WAT     H2 3723   0.756   3.287   4.692
 1161WAT      O 3724   1.265   1.987   8.196
 1161WAT     H1 3725   1.302   1.899   8.225
 1161WAT     H2 3726   1.236   1.981   8.101
 1162WAT      O 3727   6.939   5.061   5.298
 1162WAT     H1 3728   6.959   4.964   5.315
 1162WAT     H2 3729   6.952   5.081   5.201
 1163WAT      O 3730   3.662   1.498   5.478
 1163WAT     H1 3731   3.570   1.490   5.516
 1163WAT     H2 3732   3.701   1.406   5.466
 1164WAT      O 3733   0.013   8.969   6.891
 1164WAT     H1 3734   0.047   8.934   6.804
 1164WAT     H2 3735   0.013   9.069   6.890
 1165WAT      O 3736   2.793   3.809   9.451
 1165WAT     H1 3737   2.842   3.857   9.524
 1165WAT     H2 3738   2.830   3.716   9.442
 1166WAT      O 3739   6.241   4.601   4.511
 1166WAT     H1 3740   6.173   4.642   4.572
 1166WAT     H2 3741   6.311   4.669   4.488
 1167WAT      O 3742   8.106   5.456   3.128
 1167WAT     H1 3743   8.048   5.513   3.187
 1167WAT     H2 3744   8.111   5.496   3.037
 1168WAT      O 3745   6.790   4.642   4.349
 1168WAT     H1 3746   6.744   4.572   4.295
 1168WAT     H2 3747   6.887   4.618   4.360
 1169WAT      O 3748   0.094   6.477   2.645
 1169WAT     H1 3749   0.007   6.508   2.607
 1169WAT     H2 3750   0.138   6.414   2.581
 1170WAT      O 3751   6.214   9.478   6.864
 1170WAT     H1 3752   6.133   9.430   6.831
 1170WAT     H2 3753   6.247   9.435   6.948
 1171WAT      O 3754   4.470   1.887   0.744
 1171WAT     H1 3755   4.376   1.865   0.769
 1171WAT     H2 3756   4.477   1.895   0.644
 1172WAT      O 3757   5.030   5.965   3.387
 1172WAT     H1 3758   5.059   5.910   3.466
 1172WAT     H2 3759   4.947   5.926   3.348
 1173WAT      O 3760   6.132   1.630   1.417
 1173WAT     H1 3761   6.209   1.612   1.478
 1173WAT     H2 3762   6.050   1.652   1.470
 1174WAT      O 3763   5.880   0.909   2.484
 1174WAT     H1 3764   5.796   0.884   2.435
 1174WAT     H2 3765   5.876   0.874   2.578
 1175WAT      O 3766   4.147   8.944   4.100
 1175WAT     H1 3767   4.110   8.857   4.132
 1175WAT     H2 3768   4.082   9.017   4.119
 1176WAT      O 3769   4.319   7.358   5.061
 1176WAT     H1 3770   4.233   7.369   5.010
 1176WAT     H2 3771   4.395   7.383   5.002
 1177WAT      O 3772   1.511   0.470   0.230
 1177WAT     H1 3773   1.481   0.450   0.323
 1177WAT     H2 3774   1.611   0.467   0.225
 1178WAT      O 3775   7.762   2.542   1.839
 1178WAT     H1 3776   7.855   2.579   1.839
 1178WAT     H2 3777   7.754   2.473   1.912
 1179WAT      O 3778   0.187   2.720   9.552
 1179WAT     H1 3779   0.235   2.741   9.637
 1179WAT     H2 3780   0.249   2.674   9.489
 1180WAT      O 3781   8.624   8.872   4.837
 1180WAT     H1 3782   8.704   8.908   4.789
 1180WAT     H2 3783   8.570   8.949   4.872
 1181WAT      O 3784   6.264   4.231   2.169
 1181WAT     H1 3785   6.356   4.208   2.199
 1181WAT     H2 3786   6.201   4.156   2.192
 1182WAT      O 3787   2.162   6.393   7.742
 1182WAT     H1 3788   2.095   6.397   7.816
 1182WAT     H2 3789   2.244   6.444   7.768
 1183WAT      O 3790   2.624   7.259   4.011
 1183WAT     H1 3791   2.569   7.266   4.094
 1183WAT     H2 3792   2.563   7.254   3.931
 1184WAT      O 3793   8.851   6.507   1.322
 1184WAT     H1 3794   8.898   6.539   1.240
 1184WAT     H2 3795   8.756   6.538   1.320
 1185WAT      O 3796   0.918   2.942   1.777
 1185WAT     H1 3797   0.839   3.002   1.766
 1185WAT     H2 3798   0.959   2.922   1.688
 1186WAT      O 3799   5.246   3.701   2.138
 1186WAT     H1 3800   5.279   3.790   2.167
 1186WAT     H2 3801   5.182   3.712   2.062
 1187WAT      O 3802   8.652   0.916   2.318
 1187WAT     H1 3803   8.663   0.929   2.416
 1187WAT     H2 3804   8.724   0.856   2.283
 1188WAT      O 3805   0.695   1.801   3.868
 1188WAT     H1 3806   0.789   1.813   3.900
 1188WAT     H2 3807   0.671   1.704   3.871
 1189WAT      O 3808   3.332   8.843   9.682
 1189WAT     H1 3809   3.262   8.772   9.670
 1189WAT     H2 3810   3.291   8.933   9.666
 1190WAT      O 3811   8.658   5.262   9.011
 1190WAT     H1 3812   8.715   5.340   9.033
 1190WAT     H2 3813   8.611   5.230   9.094
 1191WAT      O 3814   3.133   4.531   9.170
 1191WAT     H1 3815   3.182   4.608   9.211
 1191WAT     H2 3816   3.171   4.512   9.079
 1192WAT      O 3817   1.695   1.025   4.174
 1192WAT     H1 3818   1.648   0.958   4.116
 1192WAT     H2 3819   1.644   1.037   4.259
 1193WAT      O 3820   0.988   7.530   5.498
 1193WAT     H1 3821   1.036   7.523   5.410
 1193WAT     H2 3822   0.923   7.454   5.506
 1194WAT      O 3823   4.393   9.113   8.707
 1194WAT     H1 3824   4.414   9.063   8.623
 1194WAT     H2 3825   4.462   9.183   8.722
 1195WAT      O 3826   7.578   2.669   2.539
 1195WAT     H1 3827   7.535   2.625   2.460
 1195WAT     H2 3828   7.673   2.692   2.518
 1196WAT      O 3829   2.738   1.489   0.777
 1196WAT     H1 3830   2.664   1.421   0.778
 1196WAT     H2 3831   2.803   1.466   0.704
 1197WAT      O 3832   2.800   3.401   7.984
 1197WAT     H1 3833   2.731   3.465   8.015
 1197WAT     H2 3834   2.887   3.422   8.029
 1198WAT      O 3835   1.651   3.885   6.730
 1198WAT     H1 3836   1.747   3.904   6.750
 1198WAT     H2 3837   1.606   3.851   6.812
 1199WAT      O 3838   5.700   6.781   1.026
 1199WAT     H1 3839   5.609   6.809   1.057
 1199WAT     H2 3840   5.750   6.862   0.994
 1200WAT      O 3841   4.986   1.236   1.221
 1200WAT     H1 3842   4.940   1.304   1.277
 1200WAT     H2 3843   4.992   1.269   1.127
 1201WAT      O 3844   2.271   6.492   7.315
 1201WAT     H1 3845   2.351   6.460   7.264
 1201WAT     H2 3846   2.188   6.450   7.276
 1202WAT      O 3847   5.748   0.443   5.135
 1202WAT     H1 3848   5.829   0.396   5.172
 1202WAT     H2 3849   5.737   0.531   5.180
 1203WAT      O 3850   1.831   6.228   2.181
 1203WAT     H1 3851   1.834   6.139   2.136
 1203WAT     H2 3852   1.853   6.217   2.278
 1204WAT      O 3853   0.677   4.130   0.869
 1204WAT     H1 3854   0.643   4.176   0.788
 1204WAT     H2 3855   0.636   4.039   0.875
 1205WAT      O 3856   5.489   0.909   7.194
 1205WAT     H1 3857   5.541   0.980   7.146
 1205WAT     H2 3858   5.433   0.951   7.265
 1206WAT      O 3859   1.215   8.056   5.417
 1206WAT     H1 3860   1.145   7.987   5.397
 1206WAT     H2 3861   1.270   8.072   5.335
 1207WAT      O 3862   2.739   1.137   1.088
 1207WAT     H1 3863   2.762   1.131   1.185
 1207WAT     H2 3864   2.818   1.169   1.036
 1208WAT      O 3865   3.345   5.812   3.817
 1208WAT     H1 3866   3.321   5.906   3.790
 1208WAT     H2 3867   3.364   5.758   3.735
 1209WAT      O 3868   4.852   0.633   4.986
 1209WAT     H1 3869   4.808   0.589   4.908
 1209WAT     H2 3870   4.929   0.578   5.017
 1210WAT      O 3871   0.831   2.851   4.810
 1210WAT     H1 3872   0.844   2.818   4.716
 1210WAT     H2 3873   0.879   2.790   4.873
 1211WAT      O 3874   1.313   3.214   2.078
 1211WAT     H1 3875   1.412   3.205   2.080
 1211WAT     H2 3876   1.272   3.129   2.045
 1212WAT      O 3877   8.197   0.265   2.186
 1212WAT     H1 3878   8.253   0.266   2.103
 1212WAT     H2 3879   8.207   0.177   2.232
 1213WAT      O 3880   4.497   2.876   6.767
 1213WAT     H1 3881   4.427   2.947   6.762
 1213WAT     H2 3882   4.555   2.892   6.847
 1214WAT      O 3883   8.962   5.470   6.386
 1214WAT     H1 3884   8.884   5.441   6.331
 1214WAT     H2 3885   9.026   5.522   6.329
 1215WAT      O 3886   9.724   1.940   8.008
 1215WAT     H1 3887   9.707   1.883   7.928
 1215WAT     H2 3888   9.670   1.908   8.085
 1216WAT      O 3889   6.046   3.335   0.239
 1216WAT     H1 3890   5.989   3.285   0.305
 1216WAT     H2 3891   6.054   3.430   0.267
 1217WAT      O 3892   2.029   3.562   5.896
 1217WAT     H1 3893   2.004   3.652   5.934
 1217WAT     H2 3894   1.948   3.520   5.856
 1218WAT      O 3895   9.382   7.195   8.126
 1218WAT     H1 3896   9.303   7.134   8.120
 1218WAT     H2 3897   9.368   7.273   8.065
 1219WAT      O 3898   6.714   4.534   7.746
 1219WAT     H1 3899   6.703   4.612   7.685
 1219WAT     H2 3900   6.695   4.449   7.697
 1220WAT      O 3901   0.742   1.446   4.961
 1220WAT     H1 3902   0.728   1.459   5.059
 1220WAT     H2 3903   0.691   1.517   4.911
 1221WAT      O 3904   2.630   2.546   2.663
 1221WAT     H1 3905   2.618   2.645   2.659
 1221WAT     H2 3906   2.702   2.524   2.729
 1222WAT      O 3907   2.630   7.019   2.313
 1222WAT     H1 3908   2.699   7.055   2.377
 1222WAT     H2 3909   2.567   6.960   2.362
 1223WAT      O 3910   0.436   2.786   5.394
 1223WAT     H1 3911   0.493   2.795   5.312
 1223WAT     H2 3912   0.352   2.839   5.382
 1224WAT      O 3913   4.953   5.544   0.109
 1224WAT     H1 3914   4.974   5.625   0.165
 1224WAT     H2 3915   4.863   5.555   0.067
 1225WAT      O 3916   3.493   2.315   7.690
 1225WAT     H1 3917   3.463   2.346   7.600
 1225WAT     H2 3918   3.572   2.255   7.681
 1226WAT      O 3919   9.416   3.984   8.102
 1226WAT     H1 3920   9.450   4.077   8.116
 1226WAT     H2 3921   9.406   3.938   8.191
 1227WAT      O 3922   0.127   6.256   6.324
 1227WAT     H1 3923   0.166   6.287   6.237
 1227WAT     H2 3924   0.101   6.160   6.317
 1228WAT      O 3925   3.474   3.957   9.775
 1228WAT     H1 3926   3.474   3.907   9.689
 1228WAT     H2 3927   3.411   3.914   9.839
 1229WAT      O 3928   4.483   4.443   2.027
 1229WAT     H1 3929   4.484   4.344   2.038
 1229WAT     H2 3930   4.560   4.472   1.970
 1230WAT      O 3931   2.666   5.840   2.670
 1230WAT     H1 3932   2.706   5.748   2.669
 1230WAT     H2 3933   2.589   5.842   2.734
 1231WAT      O 3934   0.424   8.534   9.826
 1231WAT     H1 3935   0.338   8.575   9.798
 1231WAT     H2 3936   0.500   8.588   9.790
 1232WAT      O 3937   4.392   5.534   9.872
 1232WAT     H1 3938   4.340   5.592   9.810
 1232WAT     H2 3939   4.379   5.566   9.966
 1233WAT      O 3940   1.330   3.825   0.409
 1233WAT     H1 3941   1.237   3.790   0.404
 1233WAT     H2 3942   1.358   3.859   0.319
 1234WAT      O 3943   8.379   8.511   7.707
 1234WAT     H1 3944   8.347   8.417   7.694
 1234WAT     H2 3945   8.301   8.572   7.712
 1235WAT      O 3946   2.069   7.106   5.444
 1235WAT     H1 3947   2.053   7.164   5.524
 1235WAT     H2 3948   2.069   7.162   5.362
 1236WAT      O 3949   1.418   1.275   4.901
 1236WAT     H1 3950   1.347   1.241   4.839
 1236WAT     H2 3951   1.446   1.201   4.963
 1237WAT      O 3952   8.334   8.150   9.338
 1237WAT     H1 3953   8.271   8.205   9.283
 1237WAT     H2 3954   8.383   8.209   9.402
 1238WAT      O 3955   1.501   9.176   6.553
 1238WAT     H1 3956   1.506   9.174   6.653
 1238WAT     H2 3957   1.437   9.106   6.521
 1239WAT      O 3958   7.109   5.103   0.386
 1239WAT     H1 3959   7.023   5.063   0.355
 1239WAT     H2 3960   7.093   5.195   0.421
 1240WAT      O 3961   9.522   6.565   6.119
 1240WAT     H1 3962   9.456   6.595   6.188
 1240WAT     H2 3963   9.557   6.645   6.069
 1241WAT      O 3964   8.511   6.504   7.705
 1241WAT     H1 3965   8.481   6.599   7.703
 1241WAT     H2 3966   8.470   6.455   7.628
 1242WAT      O 3967   1.846   9.226   8.498
 1242WAT     H1 3968   1.817   9.309   8.452
 1242WAT     H2 3969   1.801   9.147   8.455
 1243WAT      O 3970   2.354   5.000   8.025
 1243WAT     H1 3971   2.314   5.048   8.104
 1243WAT     H2 3972   2.305   5.025   7.942
 1244WAT      O 3973   0.979   2.478   4.536
 1244WAT     H1 3974   1.024   2.395   4.503
 1244WAT     H2 3975   0.942   2.462   4.627
 1245WAT      O 3976   7.904   3.269   9.639
 1245WAT     H1 3977   7.930   3.222   9.723
 1245WAT     H2 3978   7.985   3.285   9.583
 1246WAT      O 3979   5.173   8.927   5.202
 1246WAT     H1 3980   5.081   8.932   5.241
 1246WAT     H2 3981   5.233   8.877   5.264
 1247WAT      O 3982   8.284   6.720   0.160
 1247WAT     H1 3983   8.214   6.759   0.219
 1247WAT     H2 3984   8.284   6.768   0.072
 1248WAT      O 3985   6.198   5.415   5.427
 1248WAT     H1 3986   6.210   5.415   5.327
 1248WAT     H2 3987   6.212   5.508   5.461
 1249WAT      O 3988   7.521   4.299   7.824
 1249WAT     H1 3989   7.532   4.317   7.726
 1249WAT     H2 3990   7.444   4.236   7.838
 1250WAT      O 3991   0.901   7.573   3.138
 1250WAT     H1 3992   0.942   7.587   3.048
 1250WAT     H2 3993   0.900   7.475   3.159
 1251WAT      O 3994   0.984   9.754   0.506
 1251WAT     H1 3995   1.045   9.702   0.566
 1251WAT     H2 3996   0.896   9.707   0.499
 1252WAT      O 3997   6.581   7.029   2.721
 1252WAT     H1 3998   6.642   6.967   2.672
 1252WAT     H2 3999   6.606   7.031   2.818
 1253WAT      O 4000   5.070   3.036   7.076
 1253WAT     H1 4001   5.076   3.003   6.982
 1253WAT     H2 4002   5.002   3.109   7.081
 1254WAT      O 4003   9.182   7.919   2.237
 1254WAT     H1 4004   9.226   8.008   2.233
 1254WAT     H2 4005   9.157   7.889   2.145
 1255WAT      O 4006   4.037   7.336   4.405
 1255WAT     H1 4007   4.098   7.410   4.377
 1255WAT     H2 4008   3.942   7.366   4.396
 1256WAT      O 4009   2.585   2.830   4.021
 1256WAT     H1 4010   2.588   2.927   4.044
 1256WAT     H2 4011   2.581   2.776   4.105
 1257WAT      O 4012   5.472   6.341   2.917
 1257WAT     H1 4013   5.449   6.270   2.984
 1257WAT     H2 4014   5.444   6.310   2.826
 1258WAT      O 4015   7.636   7.520   8.224
 1258WAT     H1 4016   7.712   7.476   8.176
 1258WAT     H2 4017   7.640   7.498   8.321
 1259WAT      O 4018   7.598   5.991   9.663
 1259WAT     H1 4019   7.554   6.080   9.677
 1259WAT     H2 4020   7.624   5.953   9.751
 1260WAT      O 4021   8.867   9.661   0.390
 1260WAT     H1 4022   8.949   9.710   0.419
 1260WAT     H2 4023   8.807   9.723   0.339
 1261WAT      O 4024   4.425   2.392   7.294
 1261WAT     H1 4025   4.344   2.416   7.240
 1261WAT     H2 4026   4.444   2.295   7.285
 1262WAT      O 4027   3.540   6.597   7.188
 1262WAT     H1 4028   3.635   6.617   7.166
 1262WAT     H2 4029   3.489   6.576   7.105
 1263WAT      O 4030   1.980   4.701   2.274
 1263WAT     H1 4031   2.054   4.682   2.209
 1263WAT     H2 4032   1.916   4.625   2.275
 1264WAT      O 4033   0.912   1.560   4.060
 1264WAT     H1 4034   0.913   1.653   4.022
 1264WAT     H2 4035   0.973   1.557   4.140
 1265WAT      O 4036   6.810   0.346   2.679
 1265WAT     H1 4037   6.766   0.369   2.766
 1265WAT     H2 4038   6.895   0.400   2.670
 1266WAT      O 4039   2.039   0.189   2.326
 1266WAT     H1 4040   2.060   0.123   2.254
 1266WAT     H2 4041   2.106   0.182   2.399
 1267WAT      O 4042   7.077   2.731   1.906
 1267WAT     H1 4043   7.101   2.811   1.961
 1267WAT     H2 4044   7.159   2.675   1.893
 1268WAT      O 4045   2.317   0.071   6.004
 1268WAT     H1 4046   2.296   0.026   5.918
 1268WAT     H2 4047   2.265   0.157   6.011
 1269WAT      O 4048   9.764   3.809   5.116
 1269WAT     H1 4049   9.732   3.754   5.193
 1269WAT     H2 4050   9.803   3.895   5.150
 1270WAT      O 4051   4.666   7.366   3.893
 1270WAT     H1 4052   4.760   7.333   3.903
 1270WAT     H2 4053   4.665   7.449   3.837
 1271WAT      O 4054   1.883   4.803   5.695
 1271WAT     H1 4055   1.951   4.873   5.676
 1271WAT     H2 4056   1.892   4.772   5.789
 1272WAT      O 4057   4.364   2.572   2.101
 1272WAT     H1 4058   4.453   2.617   2.094
 1272WAT     H2 4059   4.377   2.473   2.103
 1273WAT      O 4060   9.531   6.413   0.859
 1273WAT     H1 4061   9.583   6.493   0.891
 1273WAT     H2 4062   9.433   6.431   0.870
 1274WAT      O 4063   6.087   7.121   2.973
 1274WAT     H1 4064   6.136   7.035   2.963
 1274WAT     H2 4065   6.007   7.121   2.913
 1275WAT      O 4066   4.616   5.813   6.343
 1275WAT     H1 4067   4.615   5.889   6.277
 1275WAT     H2 4068   4.610   5.849   6.436
 1276WAT      O 4069   2.423   6.857   7.743
 1276WAT     H1 4070   2.354   6.864   7.814
 1276WAT     H2 4071   2.382   6.820   7.659
 1277WAT      O 4072   7.465   9.181   3.862
 1277WAT     H1 4073   7.493   9.159   3.769
 1277WAT     H2 4074   7.398   9.256   3.859
 1278WAT      O 4075   0.924   4.089   3.539
 1278WAT     H1 4076   0.995   4.020   3.524
 1278WAT     H2 4077   0.835   4.044   3.545
 1279WAT      O 4078   8.435   5.397   2.576
 1279WAT     H1 4079   8.455   5.437   2.666
 1279WAT     H2 4080   8.510   5.336   2.550
 1280WAT      O 4081   1.468   1.207   2.019
 1280WAT     H1 4082   1.437   1.282   2.077
 1280WAT     H2 4083   1.481   1.240   1.925
 1281WAT      O 4084   4.704   2.996   7.335
 1281WAT     H1 4085   4.694   2.976   7.237
 1281WAT     H2 4086   4.715   2.910   7.385
 1282WAT      O 4087   3.289   5.643   1.769
 1282WAT     H1 4088   3.375   5.604   1.801
 1282WAT     H2 4089   3.261   5.717   1.831
 1283WAT      O 4090   2.218   9.502   2.028
 1283WAT     H1 4091   2.251   9.596   2.026
 1283WAT     H2 4092   2.213   9.470   2.123
 1284WAT      O 4093   5.506   7.211   5.666
 1284WAT     H1 4094   5.519   7.141   5.738
 1284WAT     H2 4095   5.411   7.243   5.668
 1285WAT      O 4096   1.341   3.216   4.175
 1285WAT     H1 4097   1.414   3.284   4.163
 1285WAT     H2 4098   1.347   3.148   4.102
 1286WAT      O 4099   4.654   5.426   2.663
 1286WAT     H1 4100   4.620   5.516   2.690
 1286WAT     H2 4101   4.738   5.406   2.713
 1287WAT      O 4102   7.127   9.816   2.973
 1287WAT     H1 4103   7.055   9.748   2.960
 1287WAT     H2 4104   7.098   9.904   2.935
 1288WAT      O 4105   6.699   5.277   2.072
 1288WAT     H1 4106   6.610   5.307   2.105
 1288WAT     H2 4107   6.700   5.276   1.972
 1289WAT      O 4108   5.527   8.714   9.875
 1289WAT     H1 4109   5.590   8.644   9.908
 1289WAT     H2 4110   5.552   8.803   9.914
 1290WAT      O 4111   7.243   7.804   3.034
 1290WAT     H1 4112   7.255   7.875   3.103
 1290WAT     H2 4113   7.146   7.788   3.019
 1291WAT      O 4114   1.439   5.217   0.579
 1291WAT     H1 4115   1.348   5.185   0.551
 1291WAT     H2 4116   1.506   5.192   0.509
 1292WAT      O 4117   2.335   2.493   1.566
 1292WAT     H1 4118   2.292   2.408   1.532
 1292WAT     H2 4119   2.360   2.481   1.662
 1293WAT      O 4120   5.275   1.666   4.567
 1293WAT     H1 4121   5.257   1.706   4.477
 1293WAT     H2 4122   5.328   1.730   4.622
 1294WAT      O 4123   9.788   3.626   7.404
 1294WAT     H1 4124   9.736   3.585   7.479
 1294WAT     H2 4125   9.750   3.716   7.383
 1295WAT      O 4126   8.923   8.019   5.338
 1295WAT     H1 4127   8.965   8.103   5.373
 1295WAT     H2 4128   8.986   7.973   5.276
 1296WAT      O 4129   1.130   4.941   9.712
 1296WAT     H1 4130   1.051   4.880   9.716
 1296WAT     H2 4131   1.147   4.979   9.803
 1297WAT      O 4132   2.010   1.637   5.014
 1297WAT     H1 4133   2.091   1.677   4.971
 1297WAT     H2 4134   1.927   1.672   4.970
 1298WAT      O 4135   8.798   1.355   9.684
 1298WAT     H1 4136   8.745   1.331   9.603
 1298WAT     H2 4137   8.736   1.380   9.759
 1299WAT      O 4138   1.260   1.587   5.849
 1299WAT     H1 4139   1.297   1.554   5.762
 1299WAT     H2 4140   1.283   1.683   5.861
 1300WAT      O 4141   0.288   6.647   3.431
 1300WAT     H1 4142   0.203   6.610   3.394
 1300WAT     H2 4143   0.341   6.689   3.357
 1301WAT      O 4144   6.186   0.567   8.471
 1301WAT     H1 4145   6.134   0.647   8.501
 1301WAT     H2 4146   6.195   0.503   8.547
 1302WAT      O 4147   4.518   5.057   5.530
 1302WAT     H1 4148   4.500   5.054   5.628
 1302WAT     H2 4149   4.462   4.988   5.484
 1303WAT      O 4150   4.730   9.612   3.524
 1303WAT     H1 4151   4.761   9.707   3.515
 1303WAT     H2 4152   4.633   9.611   3.545
 1304WAT      O 4153   4.743   2.577   5.498
 1304WAT     H1 4154   4.816   2.646   5.494
 1304WAT     H2 4155   4.670   2.603   5.434
 1305WAT      O 4156   7.485   1.156   8.242
 1305WAT     H1 4157   7.413   1.096   8.206
 1305WAT     H2 4158   7.461   1.185   8.334
 1306WAT      O 4159   3.816   2.068   6.416
 1306WAT     H1 4160   3.766   2.093   6.333
 1306WAT     H2 4161   3.897   2.126   6.425
 1307WAT      O 4162   1.755   3.056   9.891
 1307WAT     H1 4163   1.839   3.044   9.838
 1307WAT     H2 4164   1.750   3.150   9.925
 1308WAT      O 4165   9.543   0.590   4.311
 1308WAT     H1 4166   9.453   0.616   4.276
 1308WAT     H2 4167   9.615   0.629   4.253
 1309WAT      O 4168   8.547   7.367   6.316
 1309WAT     H1 4169   8.454   7.404   6.313
 1309WAT     H2 4170   8.577   7.361   6.412
 1310WAT      O 4171   3.248   2.077   2.293
 1310WAT     H1 4172   3.304   2.013   2.346
 1310WAT     H2 4173   3.238   2.044   2.199
 1311WAT      O 4174   8.634   9.015   6.111
 1311WAT     H1 4175   8.684   8.972   6.186
 1311WAT     H2 4176   8.662   8.975   6.024
 1312WAT      O 4177   0.158   6.191   4.662
 1312WAT     H1 4178   0.137   6.289   4.655
 1312WAT     H2 4179   0.099   6.149   4.730
 1313WAT      O 4180   8.778   4.470   5.322
 1313WAT     H1 4181   8.682   4.485   5.345
 1313WAT     H2 4182   8.835   4.537   5.369
 1314WAT      O 4183   6.168   9.233   2.690
 1314WAT     H1 4184   6.170   9.178   2.774
 1314WAT     H2 4185   6.261   9.263   2.669
 1315WAT      O 4186   4.415   6.578   9.668
 1315WAT     H1 4187   4.429   6.677   9.672
 1315WAT     H2 4188   4.468   6.541   9.591
 1316WAT      O 4189   1.564   5.779   9.272
 1316WAT     H1 4190   1.614   5.719   9.210
 1316WAT     H2 4191   1.487   5.729   9.312
 1317WAT      O 4192   8.561   5.144   6.339
 1317WAT     H1 4193   8.639   5.099   6.384
 1317WAT     H2 4194   8.481   5.139   6.398
 1318WAT      O 4195   1.334   5.755   0.937
 1318WAT     H1 4196   1.392   5.829   0.905
 1318WAT     H2 4197   1.388   5.690   0.990
 1319WAT      O 4198   5.322   2.888   7.116
 1319WAT     H1 4199   5.356   2.865   7.207
 1319WAT     H2 4200   5.248   2.955   7.123
 1320WAT      O 4201   5.254   6.818   4.503
 1320WAT     H1 4202   5.298   6.841   4.416
 1320WAT     H2 4203   5.200   6.897   4.534
 1321WAT      O 4204   7.267   6.244   5.269
 1321WAT     H1 4205   7.329   6.167   5.255
 1321WAT     H2 4206   7.248   6.255   5.366
 1322WAT      O 4207   1.426   1.072   2.515
 1322WAT     H1 4208   1.384   1.056   2.426
 1322WAT     H2 4209   1.372   1.025   2.586
 1323WAT      O 4210   5.885   4.049   2.026
 1323WAT     H1 4211   5.944   4.122   1.990
 1323WAT     H2 4212   5.820   4.022   1.955
 1324WAT      O 4213   8.578   1.079   0.034
 1324WAT     H1 4214   8.544   1.122   0.118
 1324WAT     H2 4215   8.618   0.990   0.056
 1325WAT      O 4216   4.337   9.477   4.513
 1325WAT     H1 4217   4.375   9.421   4.440
 1325WAT     H2 4218   4.351   9.574   4.491
 1326WAT      O 4219   1.198   2.398   7.668
 1326WAT     H1 4220   1.243   2.467   7.725
 1326WAT     H2 4221   1.264   2.360   7.604
 1327WAT      O 4222   3.266   1.253   6.400
 1327WAT     H1 4223   3.190   1.264   6.464
 1327WAT     H2 4224   3.299   1.343   6.371
 1328WAT      O 4225   4.288   1.621   6.169
 1328WAT     H1 4226   4.268   1.547   6.105
 1328WAT     H2 4227   4.303   1.706   6.118
 1329WAT      O 4228   5.077   8.579   5.023
 1329WAT     H1 4229   4.994   8.632   5.035
 1329WAT     H2 4230   5.054   8.481   5.018
 1330WAT      O 4231   6.726   9.011   2.814
 1330WAT     H1 4232   6.821   8.991   2.793
 1330WAT     H2 4233   6.705   9.106   2.790
 1331WAT      O 4234   1.583   6.904   6.086
 1331WAT     H1 4235   1.626   6.922   6.175
 1331WAT     H2 4236   1.649   6.922   6.013
 1332WAT      O 4237   4.712   8.499   6.397
 1332WAT     H1 4238   4.794   8.526   6.345
 1332WAT     H2 4239   4.650   8.449   6.337
 1333WAT      O 4240   3.961   0.223   9.199
 1333WAT     H1 4241   3.877   0.218   9.254
 1333WAT     H2 4242   3.940   0.197   9.105
 1334WAT      O 4243   2.111   6.913   0.243
 1334WAT     H1 4244   2.044   6.986   0.226
 1334WAT     H2 4245   2.198   6.937   0.199
 1335WAT      O 4246   7.303   7.883   8.772
 1335WAT     H1 4247   7.354   7.871   8.686
 1335WAT     H2 4248   7.326   7.809   8.835
 1336WAT      O 4249   7.386   8.826   8.979
 1336WAT     H1 4250   7.449   8.901   8.958
 1336WAT     H2 4251   7.315   8.821   8.908
 1337WAT      O 4252   8.935   1.258   6.641
 1337WAT     H1 4253   9.001   1.271   6.567
 1337WAT     H2 4254   8.895   1.347   6.665
 1338WAT      O 4255   4.003   0.019   3.919
 1338WAT     H1 4256   4.053   0.025   3.833
 1338WAT     H2 4257   4.017  -0.071   3.959
 1339WAT      O 4258   9.629   7.457   7.205
 1339WAT     H1 4259   9.720   7.461   7.246
 1339WAT     H2 4260   9.561   7.447   7.277
 1340WAT      O 4261   1.335   6.755   7.832
 1340WAT     H1 4262   1.381   6.713   7.910
 1340WAT     H2 4263   1.294   6.842   7.860
 1341WAT      O 4264   2.165   2.050   9.857
 1341WAT     H1 4265   2.082   2.104   9.867
 1341WAT     H2 4266   2.169   2.012   9.765
 1342WAT      O 4267   3.119   8.076   0.974
 1342WAT     H1 4268   3.127   8.102   0.878
 1342WAT     H2 4269   3.119   7.976   0.982
 1343WAT      O 4270   9.449   2.303   1.036
 1343WAT     H1 4271   9.368   2.308   0.979
 1343WAT     H2 4272   9.441   2.226   1.100
 1344WAT      O 4273   7.582   1.927   6.961
 1344WAT     H1 4274   7.540   1.922   7.052
 1344WAT     H2 4275   7.606   1.834   6.931
 1345WAT      O 4276   9.476   0.551   3.580
 1345WAT     H1 4277   9.521   0.624   3.529
 1345WAT     H2 4278   9.462   0.472   3.521
 1346WAT      O 4279   7.115   8.296   1.703
 1346WAT     H1 4280   7.114   8.308   1.802
 1346WAT     H2 4281   7.136   8.383   1.659
 1347WAT      O 4282   3.696   4.458   5.560
 1347WAT     H1 4283   3.675   4.449   5.463
 1347WAT     H2 4284   3.618   4.498   5.608
 1348WAT      O 4285   5.592   5.606   5.285
 1348WAT     H1 4286   5.535   5.578   5.362
 1348WAT     H2 4287   5.580   5.704   5.268
 1349WAT      O 4288   2.550   3.978   4.946
 1349WAT     H1 4289   2.535   4.066   4.901
 1349WAT     H2 4290   2.467   3.922   4.938
 1350WAT      O 4291   9.082   4.886   6.998
 1350WAT     H1 4292   9.149   4.839   7.055
 1350WAT     H2 4293   9.020   4.939   7.057
 1351WAT      O 4294   7.287   3.669   7.282
 1351WAT     H1 4295   7.252   3.756   7.315
 1351WAT     H2 4296   7.376   3.683   7.238
 1352WAT      O 4297   5.297   8.615   5.163
 1352WAT     H1 4298   5.215   8.626   5.108
 1352WAT     H2 4299   5.378   8.632   5.106
 1353WAT      O 4300   7.246   2.714   6.766
 1353WAT     H1 4301   7.183   2.780   6.725
 1353WAT     H2 4302   7.212   2.687   6.856
 1354WAT      O 4303   7.397   8.262   1.487
 1354WAT     H1 4304   7.411   8.188   1.553
 1354WAT     H2 4305   7.396   8.224   1.395
 1355WAT      O 4306   7.076   8.237   7.257
 1355WAT     H1 4307   7.035   8.273   7.341
 1355WAT     H2 4308   7.005   8.201   7.198
 1356WAT      O 4309   8.010   8.070   8.829
 1356WAT     H1 4310   7.965   8.006   8.892
 1356WAT     H2 4311   8.104   8.086   8.859
 1357WAT      O 4312   2.911   1.249   9.209
 1357WAT     H1 4313   3.002   1.288   9.216
 1357WAT     H2 4314   2.844   1.310   9.251
 1358WAT      O 4315   5.784   8.842   4.614
 1358WAT     H1 4316   5.814   8.850   4.709
 1358WAT     H2 4317   5.810   8.925   4.564
 1359WAT      O 4318   7.735   5.105   7.986
 1359WAT     H1 4319   7.797   5.082   8.061
 1359WAT     H2 4320   7.782   5.093   7.899
 1360WAT      O 4321   0.593   8.935   8.590
 1360WAT     H1 4322   0.542   9.011   8.629
 1360WAT     H2 4323   0.530   8.878   8.536
 1361WAT      O 4324   2.690   2.564   5.590
 1361WAT     H1 4325   2.782   2.604   5.587
 1361WAT     H2 4326   2.646   2.577   5.501
 1362WAT      O 4327   9.289   2.351   0.838
 1362WAT     H1 4328   9.344   2.321   0.759
 1362WAT     H2 4329   9.252   2.442   0.821
 1363WAT      O 4330   2.579   4.260   3.141
 1363WAT     H1 4331   2.482   4.283   3.151
 1363WAT     H2 4332   2.602   4.185   3.203
 1364WAT      O 4333   6.689   2.489   3.154
 1364WAT     H1 4334   6.745   2.443   3.085
 1364WAT     H2 4335   6.741   2.565   3.193
 1365WAT      O 4336   4.241   7.900   2.695
 1365WAT     H1 4337   4.285   7.964   2.758
 1365WAT     H2 4338   4.299   7.819   2.684
 1366WAT      O 4339   2.177   9.448   3.960
 1366WAT     H1 4340   2.245   9.386   3.999
 1366WAT     H2 4341   2.153   9.518   4.028
 1367WAT      O 4342   6.401   9.381   1.403
 1367WAT     H1 4343   6.461   9.333   1.339
 1367WAT     H2 4344   6.430   9.362   1.497
 1368WAT      O 4345   4.202   1.600   0.071
 1368WAT     H1 4346   4.118   1.644   0.102
 1368WAT     H2 4347   4.205   1.507   0.105
 1369WAT      O 4348   2.097   1.422   2.000
 1369WAT     H1 4349   2.160   1.498   1.985
 1369WAT     H2 4350   2.134   1.339   1.959
 1370WAT      O 4351   6.720   1.093   5.934
 1370WAT     H1 4352   6.673   1.050   6.011
 1370WAT     H2 4353   6.722   1.192   5.947
 1371WAT      O 4354   0.218   5.334   7.702
 1371WAT     H1 4355   0.228   5.349   7.603
 1371WAT     H2 4356   0.308   5.340   7.745
 1372WAT      O 4357   7.310   2.300   3.321
 1372WAT     H1 4358   7.243   2.263   3.385
 1372WAT     H2 4359   7.279   2.285   3.227
 1373WAT      O 4360   8.661   7.006   6.234
 1373WAT     H1 4361   8.604   6.958   6.167
 1373WAT     H2 4362   8.707   7.083   6.190
 1374WAT      O 4363   2.674   8.263   5.003
 1374WAT     H1 4364   2.684   8.243   5.100
 1374WAT     H2 4365   2.616   8.344   4.992
 1375WAT      O 4366   7.210   7.252   7.179
 1375WAT     H1 4367   7.213   7.319   7.105
 1375WAT     H2 4368   7.299   7.248   7.224
 1376WAT      O 4369   4.101   3.242   6.309
 1376WAT     H1 4370   4.171   3.313   6.309
 1376WAT     H2 4371   4.043   3.253   6.228
 1377WAT      O 4372   3.997   3.138   0.369
 1377WAT     H1 4373   4.001   3.125   0.270
 1377WAT     H2 4374   4.086   3.117   0.410
 1378WAT      O 4375   9.240   2.083   2.714
 1378WAT     H1 4376   9.246   2.067   2.616
 1378WAT     H2 4377   9.158   2.039   2.750
 1379WAT      O 4378   1.974   3.545   5.055
 1379WAT     H1 4379   1.966   3.588   4.966
 1379WAT     H2 4380   1.896   3.484   5.070
 1380WAT      O 4381   9.313   4.914   4.594
 1380WAT     H1 4382   9.260   4.986   4.550
 1380WAT     H2 4383   9.408   4.918   4.563
 1381WAT      O 4384   3.290   0.470   7.512
 1381WAT     H1 4385   3.325   0.562   7.494
 1381WAT     H2 4386   3.273   0.459   7.610
 1382WAT      O 4387   8.209   8.722   5.838
 1382WAT     H1 4388   8.236   8.818   5.841
 1382WAT     H2 4389   8.167   8.697   5.926
 1383WAT      O 4390   6.876   3.911   9.009
 1383WAT     H1 4391   6.925   3.961   9.080
 1383WAT     H2 4392   6.928   3.916   8.923
 1384WAT      O 4393   0.132   7.630   2.457
 1384WAT     H1 4394   0.176   7.642   2.547
 1384WAT     H2 4395   0.048   7.577   2.468
 1385WAT      O 4396   6.928   7.005   1.367
 1385WAT     H1 4397   7.027   6.994   1.374
 1385WAT     H2 4398   6.897   7.070   1.436
 1386WAT      O 4399   9.103   2.730   3.721
 1386WAT     H1 4400   9.183   2.739   3.781
 1386WAT     H2 4401   9.112   2.647   3.666
 1387WAT      O 4402   6.426   9.343   0.597
 1387WAT     H1 4403   6.472   9.350   0.685
 1387WAT     H2 4404   6.338   9.390   0.601
 1388WAT      O 4405   6.709   8.409   9.563
 1388WAT     H1 4406   6.744   8.452   9.646
 1388WAT     H2 4407   6.611   8.426   9.555
 1389WAT      O 4408   4.625   9.114   4.538
 1389WAT     H1 4409   4.724   9.129   4.533
 1389WAT     H2 4410   4.602   9.074   4.627
 1390WAT      O 4411   9.091   0.225   0.115
 1390WAT     H1 4412   9.175   0.175   0.094
 1390WAT     H2 4413   9.085   0.242   0.214
 1391WAT      O 4414   5.297   5.094   1.712
 1391WAT     H1 4415   5.326   5.170   1.770
 1391WAT     H2 4416   5.199   5.101   1.695
 1392WAT      O 4417   4.643   1.733   3.297
 1392WAT     H1 4418   4.606   1.772   3.381
 1392WAT     H2 4419   4.688   1.646   3.317
 1393WAT      O 4420   0.819   2.102   7.703
 1393WAT     H1 4421   0.866   2.179   7.746
 1393WAT     H2 4422   0.727   2.130   7.677
 1394WAT      O 4423   7.307   1.354   6.988
 1394WAT     H1 4424   7.370   1.408   6.931
 1394WAT     H2 4425   7.360   1.289   7.042
 1395WAT      O 4426   0.679   3.292   6.447
 1395WAT     H1 4427   0.766   3.329   6.414
 1395WAT     H2 4428   0.603   3.339   6.402
 1396WAT      O 4429   6.688   1.939   3.197
 1396WAT     H1 4430   6.625   1.945   3.274
 1396WAT     H2 4431   6.678   1.850   3.152
 1397WAT      O 4432   9.383   7.760   8.346
 1397WAT     H1 4433   9.371   7.800   8.438
 1397WAT     H2 4434   9.305   7.785   8.289
 1398WAT      O 4435   2.892   0.986   5.408
 1398WAT     H1 4436   2.941   0.986   5.320
 1398WAT     H2 4437   2.815   0.922   5.403
 1399WAT      O 4438   3.383   8.369   6.427
 1399WAT     H1 4439   3.320   8.328   6.492
 1399WAT     H2 4440   3.340   8.449   6.384
 1400WAT      O 4441   2.619   7.701   5.780
 1400WAT     H1 4442   2.715   7.721   5.799
 1400WAT     H2 4443   2.564   7.784   5.794
 1401WAT      O 4444   5.725   5.504   4.496
 1401WAT     H1 4445   5.697   5.600   4.492
 1401WAT     H2 4446   5.808   5.497   4.552
 1402WAT      O 4447   3.571   9.676   1.975
 1402WAT     H1 4448   3.569   9.582   2.010
 1402WAT     H2 4449   3.480   9.716   1.984
 1403WAT      O 4450   6.665   9.756   6.207
 1403WAT     H1 4451   6.714   9.669   6.196
 1403WAT     H2 4452   6.687   9.816   6.130
 1404WAT      O 4453   3.052   4.606   7.145
 1404WAT     H1 4454   3.047   4.506   7.149
 1404WAT     H2 4455   3.147   4.634   7.132
 1405WAT      O 4456   2.045   6.134   5.513
 1405WAT     H1 4457   2.140   6.123   5.486
 1405WAT     H2 4458   1.994   6.180   5.440
 1406WAT      O 4459   0.290   0.685   4.573
 1406WAT     H1 4460   0.357   0.674   4.500
 1406WAT     H2 4461   0.204   0.719   4.535
 1407WAT      O 4462   6.598   5.750   7.319
 1407WAT     H1 4463   6.681   5.797   7.347
 1407WAT     H2 4464   6.520   5.812   7.326
 1408WAT      O 4465   5.672   4.791   0.884
 1408WAT     H1 4466   5.675   4.715   0.819
 1408WAT     H2 4467   5.608   4.770   0.958
 1409WAT      O 4468   2.787   5.571   5.522
 1409WAT     H1 4469   2.809   5.474   5.534
 1409WAT     H2 4470   2.869   5.622   5.497
 1410WAT      O 4471   1.094   9.105   8.166
 1410WAT     H1 4472   1.003   9.065   8.156
 1410WAT     H2 4473   1.129   9.132   8.076
 1411WAT      O 4474   0.646   5.536   2.372
 1411WAT     H1 4475   0.715   5.534   2.445
 1411WAT     H2 4476   0.609   5.444   2.359
 1412WAT      O 4477   0.147   0.084   5.808
 1412WAT     H1 4478   0.112   0.044   5.893
 1412WAT     H2 4479   0.208   0.160   5.830
 1413WAT      O 4480   9.678   5.434   3.563
 1413WAT     H1 4481   9.611   5.366   3.593
 1413WAT     H2 4482   9.636   5.495   3.496
 1414WAT      O 4483   5.464   8.755   9.257
 1414WAT     H1 4484   5.540   8.695   9.282
 1414WAT     H2 4485   5.460   8.764   9.157
 1415WAT      O 4486   1.522   5.991   6.788
 1415WAT     H1 4487   1.547   5.894   6.780
 1415WAT     H2 4488   1.446   6.010   6.725
 1416WAT      O 4489   8.321   5.903   8.844
 1416WAT     H1 4490   8.303   5.994   8.807
 1416WAT     H2 4491   8.268   5.835   8.792
 1417WAT      O 4492   5.852   4.905   3.050
 1417WAT     H1 4493   5.780   4.868   2.991
 1417WAT     H2 4494   5.811   4.967   3.117
 1418WAT      O 4495   2.989   0.520   8.460
 1418WAT     H1 4496   3.034   0.609   8.470
 1418WAT     H2 4497   2.903   0.532   8.410
 1419WAT      O 4498   4.121   9.671   7.369
 1419WAT     H1 4499   4.055   9.702   7.300
 1419WAT     H2 4500   4.073   9.636   7.449
 1420WAT      O 4501   9.781   1.087   5.594
 1420WAT     H1 4502   9.817   1.040   5.675
 1420WAT     H2 4503   9.681   1.088   5.598
 1421WAT      O 4504   1.681   5.356   1.638
 1421WAT     H1 4505   1.681   5.402   1.726
 1421WAT     H2 4506   1.625   5.273   1.643
 1422WAT      O 4507   3.513   5.442   8.588
 1422WAT     H1 4508   3.513   5.347   8.556
 1422WAT     H2 4509   3.440   5.492   8.543
 1423WAT      O 4510   9.502   6.097   2.873
 1423WAT     H1 4511   9.469   6.014   2.916
 1423WAT     H2 4512   9.595   6.117   2.904
 1424WAT      O 4513   8.106   8.563   4.398
 1424WAT     H1 4514   8.149   8.487   4.447
 1424WAT     H2 4515   8.056   8.527   4.319
 1425WAT      O 4516   7.803   1.614   4.504
 1425WAT     H1 4517   7.791   1.656   4.594
 1425WAT     H2 4518   7.883   1.553   4.507
 1426WAT      O 4519   9.316   2.601   2.554
 1426WAT     H1 4520   9.411   2.570   2.548
 1426WAT     H2 4521   9.259   2.528   2.592
 1427WAT      O 4522   3.951   0.548   7.973
 1427WAT     H1 4523   3.992   0.615   7.911
 1427WAT     H2 4524   3.853   0.565   7.981
 1428WAT      O 4525   6.453   7.610   7.353
 1428WAT     H1 4526   6.508   7.538   7.398
 1428WAT     H2 4527   6.358   7.602   7.383
 1429WAT      O 4528   3.031   5.563   4.404
 1429WAT     H1 4529   3.075   5.504   4.472
 1429WAT     H2 4530   2.931   5.552   4.410
 1430WAT      O 4531   0.133   0.956   2.334
 1430WAT     H1 4532   0.054   0.966   2.395
 1430WAT     H2 4533   0.196   1.032   2.348
 1431WAT      O 4534   0.834   7.444   9.828
 1431WAT     H1 4535   0.815   7.349   9.805
 1431WAT     H2 4536   0.757   7.501   9.799
 1432WAT      O 4537   5.067   4.378   2.869
 1432WAT     H1 4538   5.142   4.399   2.931
 1432WAT     H2 4539   5.030   4.288   2.892
 1433WAT      O 4540   3.269   6.121   7.697
 1433WAT     H1 4541   3.314   6.035   7.724
 1433WAT     H2 4542   3.222   6.159   7.777
 1434WAT      O 4543   7.472   7.440   1.428
 1434WAT     H1 4544   7.509   7.445   1.335
 1434WAT     H2 4545   7.450   7.532   1.460
 1435WAT      O 4546   0.393   3.525   8.062
 1435WAT     H1 4547   0.365   3.444   8.113
 1435WAT     H2 4548   0.371   3.607   8.113
 1436WAT      O 4549   4.251   5.689   8.998
 1436WAT     H1 4550   4.320   5.670   9.067
 1436WAT     H2 4551   4.211   5.779   9.014
 1437WAT      O 4552   8.672   1.456   4.485
 1437WAT     H1 4553   8.655   1.548   4.448
 1437WAT     H2 4554   8.605   1.392   4.448
 1438WAT      O 4555   4.300   2.372   9.100
 1438WAT     H1 4556   4.282   2.287   9.049
 1438WAT     H2 4557   4.214   2.422   9.111
 1439WAT      O 4558   3.669   4.538   1.965
 1439WAT     H1 4559   3.672   4.538   1.865
 1439WAT     H2 4560   3.725   4.613   2.000
 1440WAT      O 4561   5.472   4.075   7.847
 1440WAT     H1 4562   5.519   4.051   7.762
 1440WAT     H2 4563   5.520   4.150   7.892
 1441WAT      O 4564   0.224   2.082   6.260
 1441WAT     H1 4565   0.144   2.104   6.317
 1441WAT     H2 4566   0.227   2.145   6.183
 1442WAT      O 4567   1.743   4.260   4.651
 1442WAT     H1 4568   1.838   4.231   4.640
 1442WAT     H2 4569   1.697   4.256   4.563
 1443WAT      O 4570   3.756   5.882   1.638
 1443WAT     H1 4571   3.690   5.826   1.586
 1443WAT     H2 4572   3.707   5.952   1.689
 1444WAT      O 4573   9.563   7.389   5.406
 1444WAT     H1 4574   9.595   7.343   5.323
 1444WAT     H2 4575   9.544   7.320   5.476
 1445WAT      O 4576   6.174   8.305   8.034
 1445WAT     H1 4577   6.219   8.219   8.011
 1445WAT     H2 4578   6.081   8.287   8.064
 1446WAT      O 4579   4.526   5.931   4.893
 1446WAT     H1 4580   4.590   5.986   4.839
 1446WAT     H2 4581   4.477   5.990   4.957
 1447WAT      O 4582   8.471   6.453   4.902
 1447WAT     H1 4583   8.559   6.406   4.909
 1447WAT     H2 4584   8.447   6.492   4.990
 1448WAT      O 4585   6.510   3.928   7.585
 1448WAT     H1 4586   6.609   3.916   7.594
 1448WAT     H2 4587   6.478   3.995   7.652
 1449WAT      O 4588   2.777   8.583   4.826
 1449WAT     H1 4589   2.768   8.625   4.736
 1449WAT     H2 4590   2.872   8.586   4.855
 1450WAT      O 4591   4.903   3.439   6.975
 1450WAT     H1 4592   4.935   3.389   6.894
 1450WAT     H2 4593   4.932   3.534   6.970
 1451WAT      O 4594   7.104   9.110   0.193
 1451WAT     H1 4595   7.040   9.106   0.270
 1451WAT     H2 4596   7.175   9.178   0.212
 1452WAT      O 4597   7.022   1.511   5.804
 1452WAT     H1 4598   7.072   1.485   5.721
 1452WAT     H2 4599   7.085   1.514   5.882
 1453WAT      O 4600   5.595   7.187   1.169
 1453WAT     H1 4601   5.602   7.286   1.158
 1453WAT     H2 4602   5.659   7.157   1.241
 1454WAT      O 4603   0.510   1.111   0.457
 1454WAT     H1 4604   0.582   1.179   0.468
 1454WAT     H2 4605   0.483   1.076   0.546
 1455WAT      O 4606   6.850   0.136   5.504
 1455WAT     H1 4607   6.798   0.210   5.462
 1455WAT     H2 4608   6.796   0.051   5.499
 1456WAT      O 4609   7.055   8.771   5.077
 1456WAT     H1 4610   7.122   8.837   5.110
 1456WAT     H2 4611   6.997   8.742   5.154
 1457WAT      O 4612   5.162   9.023   8.126
 1457WAT     H1 4613   5.259   9.045   8.131
 1457WAT     H2 4614   5.146   8.932   8.164
 1458WAT      O 4615   8.939   5.931   5.807
 1458WAT     H1 4616   9.010   5.891   5.749
 1458WAT     H2 4617   8.862   5.868   5.815
 1459WAT      O 4618   2.345   3.511   7.650
 1459WAT     H1 4619   2.358   3.517   7.749
 1459WAT     H2 4620   2.434   3.509   7.605
 1460WAT      O 4621   4.160   7.922   7.801
 1460WAT     H1 4622   4.129   8.017   7.795
 1460WAT     H2 4623   4.259   7.918   7.800
 1461WAT      O 4624   4.831   2.924   2.634
 1461WAT     H1 4625   4.744   2.876   2.635
 1461WAT     H2 4626   4.903   2.861   2.603
 1462WAT      O 4627   1.920   2.987   7.827
 1462WAT     H1 4628   1.958   3.079   7.820
 1462WAT     H2 4629   1.871   2.965   7.743
 1463WAT      O 4630   0.361   3.457   0.149
 1463WAT     H1 4631   0.360   3.545   0.198
 1463WAT     H2 4632   0.278   3.449   0.094
 1464WAT      O 4633   9.574   8.883   2.478
 1464WAT     H1 4634   9.596   8.903   2.382
 1464WAT     H2 4635   9.481   8.915   2.498
 1465WAT      O 4636   2.320   5.544   2.780
 1465WAT     H1 4637   2.277   5.525   2.868
 1465WAT     H2 4638   2.367   5.632   2.784
 1466WAT      O 4639   8.504   4.318   5.060
 1466WAT     H1 4640   8.548   4.289   5.145
 1466WAT     H2 4641   8.521   4.416   5.046
 1467WAT      O 4642   8.734   1.070   6.365
 1467WAT     H1 4643   8.713   1.151   6.311
 1467WAT     H2 4644   8.707   0.988   6.315
 1468WAT      O 4645   2.285   3.834   1.850
 1468WAT     H1 4646   2.235   3.913   1.885
 1468WAT     H2 4647   2.356   3.866   1.787
 1469WAT      O 4648   2.505   4.034   5.312
 1469WAT     H1 4649   2.599   4.051   5.340
 1469WAT     H2 4650   2.503   3.998   5.219
 1470WAT      O 4651   0.187   6.683   7.100
 1470WAT     H1 4652   0.160   6.613   7.034
 1470WAT     H2 4653   0.233   6.757   7.053
 1471WAT      O 4654   9.843   0.324   0.227
 1471WAT     H1 4655   9.774   0.395   0.217
 1471WAT     H2 4656   9.918   0.340   0.163
 1472WAT      O 4657   3.292   8.535   2.492
 1472WAT     H1 4658   3.223   8.579   2.436
 1472WAT     H2 4659   3.316   8.446   2.453
 1473WAT      O 4660   8.961   4.153   6.923
 1473WAT     H1 4661   8.912   4.190   7.002
 1473WAT     H2 4662   9.001   4.229   6.871
 1474WAT      O 4663   0.452   0.779   9.563
 1474WAT     H1 4664   0.519   0.713   9.598
 1474WAT     H2 4665   0.435   0.760   9.466
 1475WAT      O 4666   7.384   7.613   7.543
 1475WAT     H1 4667   7.408   7.673   7.467
 1475WAT     H2 4668   7.467   7.572   7.582
 1476WAT      O 4669   7.555   1.234   6.648
 1476WAT     H1 4670   7.595   1.238   6.556
 1476WAT     H2 4671   7.584   1.149   6.693
 1477WAT      O 4672   6.274   9.076   0.610
 1477WAT     H1 4673   6.328   9.150   0.570
 1477WAT     H2 4674   6.265   9.090   0.708
 1478WAT      O 4675   7.237   2.083   4.256
 1478WAT     H1 4676   7.165   2.138   4.213
 1478WAT     H2 4677   7.196   2.021   4.323
 1479WAT      O 4678   2.191   0.592   5.201
 1479WAT     H1 4679   2.126   0.664   5.174
 1479WAT     H2 4680   2.223   0.544   5.119
 1480WAT      O 4681   2.823   4.845   5.475
 1480WAT     H1 4682   2.851   4.892   5.559
 1480WAT     H2 4683   2.734   4.879   5.446
 1481WAT      O 4684   3.067   7.478   6.487
 1481WAT     H1 4685   3.051   7.577   6.489
 1481WAT     H2 4686   3.068   7.443   6.580
 1482WAT      O 4687   2.549   8.155   2.723
 1482WAT     H1 4688   2.557   8.128   2.627
 1482WAT     H2 4689   2.464   8.118   2.760
 1483WAT      O 4690   3.426   1.184   1.738
 1483WAT     H1 4691   3.414   1.237   1.654
 1483WAT     H2 4692   3.413   1.244   1.818
 1484WAT      O 4693   0.672   8.604   0.138
 1484WAT     H1 4694   0.602   8.665   0.099
 1484WAT     H2 4695   0.640   8.569   0.226
 1485WAT      O 4696   2.374   0.089   1.342
 1485WAT     H1 4697   2.359   0.177   1.297
 1485WAT     H2 4698   2.347   0.015   1.280
 1486WAT      O 4699   7.725   1.263   0.386
 1486WAT     H1 4700   7.665   1.268   0.306
 1486WAT     H2 4701   7.718   1.172   0.428
 1487WAT      O 4702   9.066   0.373   3.777
 1487WAT     H1 4703   9.120   0.436   3.721
 1487WAT     H2 4704   9.126   0.301   3.812
 1488WAT      O 4705   6.402   5.605   9.237
 1488WAT     H1 4706   6.421   5.511   9.264
 1488WAT     H2 4707   6.461   5.630   9.160
 1489WAT      O 4708   8.276   3.469   7.561
 1489WAT     H1 4709   8.212   3.453   7.486
 1489WAT     H2 4710   8.225   3.489   7.645
 1490WAT      O 4711   8.678   7.726   4.583
 1490WAT     H1 4712   8.701   7.639   4.628
 1490WAT     H2 4713   8.723   7.731   4.494
 1491WAT      O 4714   7.143   0.147   1.173
 1491WAT     H1 4715   7.226   0.124   1.123
 1491WAT     H2 4716   7.086   0.065   1.182
 1492WAT      O 4717   2.661   9.798   2.889
 1492WAT     H1 4718   2.663   9.803   2.789
 1492WAT     H2 4719   2.573   9.760   2.919
 1493WAT      O 4720   9.846   1.663   2.581
 1493WAT     H1 4721   9.783   1.587   2.595
 1493WAT     H2 4722   9.915   1.663   2.654
 1494WAT      O 4723   0.286   4.620   9.660
 1494WAT     H1 4724   0.365   4.654   9.608
 1494WAT     H2 4725   0.226   4.697   9.683
 1495WAT      O 4726   1.486   9.237   7.137
 1495WAT     H1 4727   1.539   9.179   7.199
 1495WAT     H2 4728   1.502   9.333   7.159
 1496WAT      O 4729   6.739   3.921   7.741
 1496WAT     H1 4730   6.707   3.851   7.804
 1496WAT     H2 4731   6.807   3.979   7.786
 1497WAT      O 4732   5.350   9.309   7.801
 1497WAT     H1 4733   5.263   9.264   7.823
 1497WAT     H2 4734   5.375   9.371   7.875
 1498WAT      O 4735   0.298   1.061   4.774
 1498WAT     H1 4736   0.217   1.031   4.825
 1498WAT     H2 4737   0.369   1.089   4.838
 1499WAT      O 4738   2.387   8.919   9.110
 1499WAT     H1 4739   2.434   8.965   9.034
 1499WAT     H2 4740   2.288   8.927   9.097
 1500WAT      O 4741   0.084   2.811   4.547
 1500WAT     H1 4742   0.002   2.861   4.520
 1500WAT     H2 4743   0.157   2.831   4.481
 1501WAT      O 4744   0.187   9.612   9.630
 1501WAT     H1 4745   0.209   9.625   9.534
 1501WAT     H2 4746   0.184   9.700   9.677
 1502WAT      O 4747   6.117   8.391   9.849
 1502WAT     H1 4748   6.123   8.294   9.825
 1502WAT     H2 4749   6.062   8.439   9.780
 1503WAT      O 4750   8.308   7.589   5.761
 1503WAT     H1 4751   8.398   7.614   5.797
 1503WAT     H2 4752   8.281   7.656   5.691
 1504WAT      O 4753   2.676   1.413   8.533
 1504WAT     H1 4754   2.736   1.370   8.465
 1504WAT     H2 4755   2.584   1.421   8.496
 1505WAT      O 4756   5.155   1.290   3.324
 1505WAT     H1 4757   5.250   1.317   3.309
 1505WAT     H2 4758   5.105   1.293   3.237
 1506WAT      O 4759   2.045   0.232   7.413
 1506WAT     H1 4760   2.108   0.242   7.335
 1506WAT     H2 4761   2.066   0.301   7.482
 1507WAT      O 4762   5.075   8.531   3.296
 1507WAT     H1 4763   5.129   8.564   3.219
 1507WAT     H2 4764   5.135   8.513   3.374
 1508WAT      O 4765   7.694   1.186   7.349
 1508WAT     H1 4766   7.627   1.261   7.349
 1508WAT     H2 4767   7.766   1.206   7.415
 1509WAT      O 4768   3.970   4.674   9.305
 1509WAT     H1 4769   3.876   4.679   9.339
 1509WAT     H2 4770   4.019   4.601   9.353
 1510WAT      O 4771   6.010   5.020   9.332
 1510WAT     H1 4772   6.082   5.024   9.401
 1510WAT     H2 4773   5.959   4.935   9.342
 1511WAT      O 4774   6.131   6.247   6.103
 1511WAT     H1 4775   6.136   6.156   6.061
 1511WAT     H2 4776   6.179   6.245   6.191
 1512WAT      O 4777   3.199   8.968   0.675
 1512WAT     H1 4778   3.170   8.923   0.759
 1512WAT     H2 4779   3.295   8.997   0.683
 1513WAT      O 4780   8.195   0.103   7.251
 1513WAT     H1 4781   8.284   0.088   7.293
 1513WAT     H2 4782   8.145   0.172   7.303
 1514WAT      O 4783   8.451   5.277   1.274
 1514WAT     H1 4784   8.439   5.267   1.176
 1514WAT     H2 4785   8.430   5.371   1.301
 1515WAT      O 4786   7.751   9.121   8.230
 1515WAT     H1 4787   7.745   9.173   8.145
 1515WAT     H2 4788   7.707   9.171   8.304
 1516WAT      O 4789   9.001   4.370   0.574
 1516WAT     H1 4790   8.934   4.307   0.535
 1516WAT     H2 4791   9.059   4.407   0.501
 1517WAT      O 4792   0.740   3.357   7.289
 1517WAT     H1 4793   0.669   3.288   7.274
 1517WAT     H2 4794   0.789   3.373   7.203
 1518WAT      O 4795   2.242   2.506   3.869
 1518WAT     H1 4796   2.338   2.486   3.849
 1518WAT     H2 4797   2.186   2.426   3.850
 1519WAT      O 4798   3.725   4.232   6.791
 1519WAT     H1 4799   3.790   4.280   6.849
 1519WAT     H2 4800   3.774   4.185   6.717
 1520WAT      O 4801   5.904   5.995   5.640
 1520WAT     H1 4802   5.825   5.940   5.669
 1520WAT     H2 4803   5.946   5.952   5.560
 1521WAT      O 4804   5.643   4.791   2.508
 1521WAT     H1 4805   5.726   4.756   2.466
 1521WAT     H2 4806   5.666   4.858   2.579
 1522WAT      O 4807   7.315   4.038   4.068
 1522WAT     H1 4808   7.280   3.982   4.144
 1522WAT     H2 4809   7.256   4.026   3.989
 1523WAT      O 4810   3.857   2.492   5.899
 1523WAT     H1 4811   3.876   2.589   5.916
 1523WAT     H2 4812   3.920   2.436   5.953
 1524WAT      O 4813   6.489   5.302   5.137
 1524WAT     H1 4814   6.580   5.294   5.097
 1524WAT     H2 4815   6.451   5.211   5.152
 1525WAT      O 4816   7.080   2.084   7.008
 1525WAT     H1 4817   7.112   2.153   6.944
 1525WAT     H2 4818   6.996   2.042   6.973
 1526WAT      O 4819   3.318   8.128   0.110
 1526WAT     H1 4820   3.328   8.202   0.176
 1526WAT     H2 4821   3.404   8.115   0.060
 1527WAT      O 4822   1.464   0.688   0.045
 1527WAT     H1 4823   1.536   0.695  -0.024
 1527WAT     H2 4824   1.476   0.604   0.098
 1528WAT      O 4825   4.384   4.149   0.321
 1528WAT     H1 4826   4.300   4.124   0.369
 1528WAT     H2 4827   4.463   4.109   0.368
 1529WAT      O 4828   6.563   8.727   7.877
 1529WAT     H1 4829   6.504   8.651   7.849
 1529WAT     H2 4830   6.533   8.760   7.967
 1530WAT      O 4831   1.120   8.790   2.235
 1530WAT     H1 4832   1.024   8.761   2.232
 1530WAT     H2 4833   1.124   8.890   2.241
 1531WAT      O 4834   0.859   0.371   8.087
 1531WAT     H1 4835   0.821   0.452   8.042
 1531WAT     H2 4836   0.950   0.392   8.123
 1532WAT      O 4837   8.552   2.553   6.804
 1532WAT     H1 4838   8.622   2.551   6.876
 1532WAT     H2 4839   8.461   2.549   6.845
 1533WAT      O 4840   4.214   0.227   1.707
 1533WAT     H1 4841   4.255   0.228   1.616
 1533WAT     H2 4842   4.196   0.321   1.737
 1534WAT      O 4843   8.243   0.338   8.132
 1534WAT     H1 4844   8.167   0.395   8.102
 1534WAT     H2 4845   8.274   0.367   8.222
 1535WAT      O 4846   4.509   6.316   3.523
 1535WAT     H1 4847   4.584   6.258   3.555
 1535WAT     H2 4848   4.439   6.259   3.479
 1536WAT      O 4849   5.522   0.747   1.654
 1536WAT     H1 4850   5.558   0.681   1.588
 1536WAT     H2 4851   5.501   0.833   1.607
 1537WAT      O 4852   8.609   4.477   1.889
 1537WAT     H1 4853   8.577   4.566   1.921
 1537WAT     H2 4854   8.702   4.461   1.921
 1538WAT      O 4855   3.494   5.049   9.058
 1538WAT     H1 4856   3.414   5.036   9.116
 1538WAT     H2 4857   3.572   5.077   9.114
 1539WAT      O 4858   3.886   1.657   9.268
 1539WAT     H1 4859   3.981   1.625   9.265
 1539WAT     H2 4860   3.852   1.671   9.175
 1540WAT      O 4861   9.261   4.434   0.726
 1540WAT     H1 4862   9.229   4.524   0.756
 1540WAT     H2 4863   9.187   4.387   0.677
 1541WAT      O 4864   8.027   4.604   6.181
 1541WAT     H1 4865   8.027   4.608   6.082
 1541WAT     H2 4866   7.936   4.579   6.214
 1542WAT      O 4867   4.111   1.089   8.452
 1542WAT     H1 4868   4.169   1.069   8.531
 1542WAT     H2 4869   4.028   1.136   8.483
 1543WAT      O 4870   2.187   3.248   9.670
 1543WAT     H1 4871   2.247   3.185   9.619
 1543WAT     H2 4872   2.161   3.324   9.611
 1544WAT      O 4873   1.602   4.464   8.103
 1544WAT     H1 4874   1.689   4.488   8.059
 1544WAT     H2 4875   1.558   4.547   8.136
 1545WAT      O 4876   0.762   2.473   0.081
 1545WAT     H1 4877   0.733   2.435   0.169
 1545WAT     H2 4878   0.694   2.539   0.048
 1546WAT      O 4879   3.174   1.359   9.181
 1546WAT     H1 4880   3.249   1.419   9.211
 1546WAT     H2 4881   3.208   1.297   9.110
 1547WAT      O 4882   3.849   3.668   3.412
 1547WAT     H1 4883   3.764   3.652   3.462
 1547WAT     H2 4884   3.827   3.694   3.318
 1548WAT      O 4885   5.043   3.666   3.018
 1548WAT     H1 4886   5.078   3.759   3.033
 1548WAT     H2 4887   4.963   3.669   2.959
 1549WAT      O 4888   9.158   0.494   3.532
 1549WAT     H1 4889   9.151   0.593   3.548
 1549WAT     H2 4890   9.252   0.472   3.504
 1550WAT      O 4891   3.615   7.119   8.352
 1550WAT     H1 4892   3.691   7.168   8.393
 1550WAT     H2 4893   3.642   7.024   8.334
 1551WAT      O 4894   1.154   7.117   5.938
 1551WAT     H1 4895   1.251   7.097   5.923
 1551WAT     H2 4896   1.112   7.041   5.987
 1552WAT      O 4897   6.671   1.104   8.435
 1552WAT     H1 4898   6.706   1.123   8.343
 1552WAT     H2 4899   6.743   1.064   8.491
 1553WAT      O 4900   3.374   0.789   1.525
 1553WAT     H1 4901   3.448   0.808   1.460
 1553WAT     H2 4902   3.288   0.826   1.489
 1554WAT      O 4903   8.926   3.061   8.228
 1554WAT     H1 4904   8.934   2.970   8.269
 1554WAT     H2 4905   8.993   3.070   8.155
 1555WAT      O 4906   8.365   8.003   1.317
 1555WAT     H1 4907   8.299   7.928   1.314
 1555WAT     H2 4908   8.321   8.085   1.351
 1556WAT      O 4909   3.727   9.079   9.418
 1556WAT     H1 4910   3.632   9.107   9.402
 1556WAT     H2 4911   3.787   9.159   9.412
 1557WAT      O 4912   2.035   9.090   8.641
 1557WAT     H1 4913   1.992   9.160   8.583
 1557WAT     H2 4914   2.023   9.000   8.599
 1558WAT      O 4915   6.443   2.092   9.375
 1558WAT     H1 4916   6.369   2.114   9.311
 1558WAT     H2 4917   6.407   2.037   9.450
 1559WAT      O 4918   4.110   2.482   7.776
 1559WAT     H1 4919   4.113   2.561   7.836
 1559WAT     H2 4920   4.067   2.507   7.689
 1560WAT      O 4921   4.118   7.422   8.454
 1560WAT     H1 4922   4.058   7.434   8.374
 1560WAT     H2 4923   4.185   7.350   8.434
 1561WAT      O 4924   1.037   7.108   8.574
 1561WAT     H1 4925   0.943   7.115   8.540
 1561WAT     H2 4926   1.054   7.182   8.640
 1562WAT      O 4927   0.982   5.674   2.351
 1562WAT     H1 4928   1.043   5.602   2.385
 1562WAT     H2 4929   1.010   5.700   2.259
 1563WAT      O 4930   6.044   8.330   2.571
 1563WAT     H1 4931   6.131   8.371   2.600
 1563WAT     H2 4932   5.973   8.355   2.636
 1564WAT      O 4933   2.888   4.935   8.495
 1564WAT     H1 4934   2.883   5.028   8.531
 1564WAT     H2 4935   2.979   4.897   8.512
 1565WAT      O 4936   1.351   1.344   0.585
 1565WAT     H1 4937   1.374   1.370   0.678
 1565WAT     H2 4938   1.253   1.354   0.570
 1566WAT      O 4939   7.288   1.148   6.191
 1566WAT     H1 4940   7.203   1.117   6.234
 1566WAT     H2 4941   7.300   1.246   6.208
 1567WAT      O 4942   8.312   3.793   5.242
 1567WAT     H1 4943   8.315   3.882   5.197
 1567WAT     H2 4944   8.287   3.723   5.175
 1568WAT      O 4945   4.920   3.338   2.949
 1568WAT     H1 4946   4.956   3.254   2.908
 1568WAT     H2 4947   4.974   3.416   2.919
 1569WAT      O 4948   7.802   3.487   2.306
 1569WAT     H1 4949   7.716   3.502   2.354
 1569WAT     H2 4950   7.785   3.438   2.221
 1570WAT      O 4951   3.721   4.802   5.444
 1570WAT     H1 4952   3.801   4.835   5.394
 1570WAT     H2 4953   3.676   4.730   5.390
 1571WAT      O 4954   5.956   5.674   1.067
 1571WAT     H1 4955   5.916   5.587   1.035
 1571WAT     H2 4956   5.951   5.679   1.166
 1572WAT      O 4957   5.147   7.298   1.420
 1572WAT     H1 4958   5.060   7.251   1.435
 1572WAT     H2 4959   5.193   7.259   1.340
 1573WAT      O 4960   3.340   0.582   0.557
 1573WAT     H1 4961   3.398   0.547   0.483
 1573WAT     H2 4962   3.283   0.509   0.593
 1574WAT      O 4963   6.275   0.414   7.962
 1574WAT     H1 4964   6.255   0.402   8.059
 1574WAT     H2 4965   6.336   0.492   7.950
 1575WAT      O 4966   6.502   6.791   7.252
 1575WAT     H1 4967   6.469   6.771   7.159
 1575WAT     H2 4968   6.562   6.870   7.250
 1576WAT      O 4969   1.184   7.133   6.375
 1576WAT     H1 4970   1.275   7.092   6.379
 1576WAT     H2 4971   1.184   7.219   6.427
 1577WAT      O 4972   3.154   2.298   8.809
 1577WAT     H1 4973   3.060   2.298   8.841
 1577WAT     H2 4974   3.159   2.255   8.719
 1578WAT      O 4975   5.484   9.444   3.028
 1578WAT     H1 4976   5.434   9.456   3.114
 1578WAT     H2 4977   5.504   9.347   3.014
 1579WAT      O 4978   3.415   2.871   8.504
 1579WAT     H1 4979   3.481   2.918   8.563
 1579WAT     H2 4980   3.403   2.922   8.420
 1580WAT      O 4981   8.750   4.214   6.228
 1580WAT     H1 4982   8.822   4.155   6.192
 1580WAT     H2 4983   8.723   4.182   6.319
 1581WAT      O 4984   1.693   6.704   1.050
 1581WAT     H1 4985   1.699   6.620   1.103
 1581WAT     H2 4986   1.702   6.682   0.952
 1582WAT      O 4987   4.207   0.763   5.298
 1582WAT     H1 4988   4.261   0.843   5.272
 1582WAT     H2 4989   4.111   0.787   5.304
 1583WAT      O 4990   7.773   4.578   4.340
 1583WAT     H1 4991   7.846   4.547   4.278
 1583WAT     H2 4992   7.814   4.613   4.424
 1584WAT      O 4993   6.537   1.606   0.215
 1584WAT     H1 4994   6.438   1.595   0.224
 1584WAT     H2 4995   6.583   1.525   0.254
 1585WAT      O 4996   2.362   6.626   5.009
 1585WAT     H1 4997   2.278   6.624   4.955
 1585WAT     H2 4998   2.395   6.721   5.016
 1586WAT      O 4999   3.561   9.652   1.539
 1586WAT     H1 5000   3.530   9.713   1.466
 1586WAT     H2 5001   3.638   9.695   1.587
 1587WAT      O 5002   2.202   4.603   6.804
 1587WAT     H1 5003   2.179   4.516   6.847
 1587WAT     H2 5004   2.287   4.594   6.752
 1588WAT      O 5005   8.751   8.880   5.901
 1588WAT     H1 5006   8.836   8.929   5.922
 1588WAT     H2 5007   8.744   8.798   5.957
 1589WAT      O 5008   5.990   6.887   1.391
 1589WAT     H1 5009   6.058   6.832   1.342
 1589WAT     H2 5010   5.912   6.830   1.416
 1590WAT      O 5011   0.529   0.488   9.417
 1590WAT     H1 5012   0.596   0.545   9.465
 1590WAT     H2 5013   0.525   0.516   9.321
 1591WAT      O 5014   8.945   0.299   6.480
 1591WAT     H1 5015   8.901   0.216   6.447
 1591WAT     H2 5016   8.997   0.342   6.406
 1592WAT      O 5017   8.755   1.968   1.295
 1592WAT     H1 5018   8.677   1.918   1.332
 1592WAT     H2 5019   8.816   1.995   1.369
 1593WAT      O 5020   7.910   0.019   4.822
 1593WAT     H1 5021   7.860  -0.006   4.739
 1593WAT     H2 5022   7.927  -0.063   4.876
 1594WAT      O 5023   3.893   9.586   3.143
 1594WAT     H1 5024   3.886   9.622   3.050
 1594WAT     H2 5025   3.849   9.649   3.207
 1595WAT      O 5026   3.145   6.835   0.534
 1595WAT     H1 5027   3.146   6.857   0.631
 1595WAT     H2 5028   3.205   6.758   0.516
 1596WAT      O 5029   0.800   1.895   3.320
 1596WAT     H1 5030   0.755   1.806   3.317
 1596WAT     H2 5031   0.895   1.885   3.289
 1597WAT      O 5032   1.602   8.844   2.450
 1597WAT     H1 5033   1.540   8.907   2.402
 1597WAT     H2 5034   1.694   8.855   2.414
 1598WAT      O 5035   8.617   0.275   1.179
 1598WAT     H1 5036   8.522   0.258   1.154
 1598WAT     H2 5037   8.671   0.287   1.096
 1599WAT      O 5038   7.483   6.122   6.458
 1599WAT     H1 5039   7.483   6.047   6.392
 1599WAT     H2 5040   7.501   6.208   6.411
 1600WAT      O 5041   1.898   2.879   0.624
 1600WAT     H1 5042   1.802   2.857   0.638
 1600WAT     H2 5043   1.913   2.976   0.642
 1601WAT      O 5044   1.729   4.768   5.094
 1601WAT     H1 5045   1.687   4.816   5.017
 1601WAT     H2 5046   1.722   4.824   5.176
 1602WAT      O 5047   7.995   1.085   5.121
 1602WAT     H1 5048   7.959   1.044   5.037
 1602WAT     H2 5049   8.095   1.080   5.120
 1603WAT      O 5050   4.949   0.375   0.742
 1603WAT     H1 5051   4.973   0.284   0.775
 1603WAT     H2 5052   4.853   0.376   0.713
 1604WAT      O 5053   6.732   8.429   2.327
 1604WAT     H1 5054   6.634   8.413   2.334
 1604WAT     H2 5055   6.775   8.352   2.279
 1605WAT      O 5056   0.062   9.279   7.312
 1605WAT     H1 5057   0.053   9.197   7.257
 1605WAT     H2 5058   0.156   9.287   7.346
 1606WAT      O 5059   2.654   0.786   7.600
 1606WAT     H1 5060   2.631   0.689   7.592
 1606WAT     H2 5061   2.741   0.796   7.648
 1607WAT      O 5062   3.247   7.979   8.418
 1607WAT     H1 5063   3.288   7.987   8.327
 1607WAT     H2 5064   3.266   7.889   8.456
 1608WAT      O 5065   0.956   5.557   9.467
 1608WAT     H1 5066   0.947   5.491   9.392
 1608WAT     H2 5067   0.891   5.534   9.539
 1609WAT      O 5068   6.431   5.069   0.597
 1609WAT     H1 5069   6.414   5.014   0.679
 1609WAT     H2 5070   6.344   5.092   0.554
 1610WAT      O 5071   9.165   6.429   6.053
 1610WAT     H1 5072   9.175   6.331   6.038
 1610WAT     H2 5073   9.110   6.470   5.980
 1611WAT      O 5074   4.588   2.732   1.247
 1611WAT     H1 5075   4.532   2.767   1.172
 1611WAT     H2 5076   4.629   2.645   1.221
 1612WAT      O 5077   8.052   4.158   7.016
 1612WAT     H1 5078   8.131   4.112   6.977
 1612WAT     H2 5079   8.022   4.231   6.954
 1613WAT      O 5080   1.098   8.271   6.002
 1613WAT     H1 5081   1.198   8.276   6.005
 1613WAT     H2 5082   1.067   8.283   5.907
 1614WAT      O 5083   4.322   9.175   5.552
 1614WAT     H1 5084   4.403   9.194   5.607
 1614WAT     H2 5085   4.315   9.076   5.536
 1615WAT      O 5086   3.260   9.407   1.807
 1615WAT     H1 5087   3.235   9.471   1.880
 1615WAT     H2 5088   3.177   9.365   1.770
 1616WAT      O 5089   8.413   1.993   4.227
 1616WAT     H1 5090   8.341   2.050   4.266
 1616WAT     H2 5091   8.371   1.912   4.185
 1617WAT      O 5092   1.463   8.872   3.353
 1617WAT     H1 5093   1.409   8.861   3.270
 1617WAT     H2 5094   1.557   8.894   3.330
 1618WAT      O 5095   1.229   5.132   0.799
 1618WAT     H1 5096   1.233   5.081   0.713
 1618WAT     H2 5097   1.253   5.071   0.875
 1619WAT      O 5098   3.277   8.331   3.944
 1619WAT     H1 5099   3.238   8.270   3.875
 1619WAT     H2 5100   3.206   8.359   4.009
 1620WAT      O 5101   5.271   8.017   7.211
 1620WAT     H1 5102   5.229   7.940   7.162
 1620WAT     H2 5103   5.315   7.984   7.294
 1621WAT      O 5104   9.116   0.006   4.183
 1621WAT     H1 5105   9.046  -0.045   4.232
 1621WAT     H2 5106   9.159   0.071   4.245
 1622WAT      O 5107   8.287   3.236   7.181
 1622WAT     H1 5108   8.367   3.268   7.131
 1622WAT     H2 5109   8.308   3.150   7.227
 1623WAT      O 5110   1.197   8.327   5.435
 1623WAT     H1 5111   1.188   8.237   5.479
 1623WAT     H2 5112   1.294   8.345   5.418
 1624WAT      O 5113   3.460   1.709   2.892
 1624WAT     H1 5114   3.519   1.675   2.819
 1624WAT     H2 5115   3.496   1.795   2.927
 1625WAT      O 5116   6.265   8.619   1.414
 1625WAT     H1 5117   6.168   8.638   1.400
 1625WAT     H2 5118   6.316   8.650   1.333
 1626WAT      O 5119   5.703   9.479   0.158
 1626WAT     H1 5120   5.726   9.549   0.090
 1626WAT     H2 5121   5.749   9.393   0.135
 1627WAT      O 5122   3.413   3.626   5.481
 1627WAT     H1 5123   3.434   3.723   5.495
 1627WAT     H2 5124   3.334   3.601   5.537
 1628WAT      O 5125   3.297   4.409   3.292
 1628WAT     H1 5126   3.249   4.482   3.341
 1628WAT     H2 5127   3.279   4.417   3.194
 1629WAT      O 5128   0.028   5.471   5.189
 1629WAT     H1 5129  -0.003   5.537   5.121
 1629WAT     H2 5130  -0.050   5.443   5.246
 1630WAT      O 5131   1.793   9.805   7.235
 1630WAT     H1 5132   1.825   9.806   7.140
 1630WAT     H2 5133   1.832   9.725   7.282
 1631WAT      O 5134   9.479   4.000   2.518
 1631WAT     H1 5135   9.540   4.011   2.439
 1631WAT     H2 5136   9.530   4.020   2.602
 1632WAT      O 5137   8.313   3.512   2.504
 1632WAT     H1 5138   8.401   3.532   2.461
 1632WAT     H2 5139   8.289   3.586   2.567
 1633WAT      O 5140   2.838   7.701   1.110
 1633WAT     H1 5141   2.738   7.711   1.113
 1633WAT     H2 5142   2.881   7.781   1.152
 1634WAT      O 5143   7.855   5.077   7.737
 1634WAT     H1 5144   7.921   5.105   7.667
 1634WAT     H2 5145   7.794   5.008   7.698
 1635WAT      O 5146   5.839   8.993   7.976
 1635WAT     H1 5147   5.830   9.092   7.973
 1635WAT     H2 5148   5.750   8.950   7.967
 1636WAT      O 5149   7.326   4.669   8.410
 1636WAT     H1 5150   7.267   4.597   8.446
 1636WAT     H2 5151   7.312   4.753   8.463
 1637WAT      O 5152   0.400   4.094   9.323
 1637WAT     H1 5153   0.462   4.146   9.382
 1637WAT     H2 5154   0.379   4.006   9.366
 1638WAT      O 5155   5.703   3.330   2.758
 1638WAT     H1 5156   5.796   3.363   2.779
 1638WAT     H2 5157   5.644   3.347   2.837
 1639WAT      O 5158   3.265   2.245   0.939
 1639WAT     H1 5159   3.313   2.231   1.026
 1639WAT     H2 5160   3.209   2.327   0.944
 1640WAT      O 5161   7.842   8.260   8.957
 1640WAT     H1 5162   7.856   8.240   9.054
 1640WAT     H2 5163   7.915   8.217   8.904
 1641WAT      O 5164   4.689   7.459   1.677
 1641WAT     H1 5165   4.594   7.446   1.704
 1641WAT     H2 5166   4.744   7.381   1.708
 1642WAT      O 5167   3.581   3.035   0.283
 1642WAT     H1 5168   3.599   2.937   0.276
 1642WAT     H2 5169   3.644   3.076   0.349
 1643WAT      O 5170   6.896   4.063   5.266
 1643WAT     H1 5171   6.946   3.997   5.210
 1643WAT     H2 5172   6.818   4.018   5.308
 1644WAT      O 5173   0.389   7.390   3.049
 1644WAT     H1 5174   0.338   7.325   2.993
 1644WAT     H2 5175   0.397   7.477   3.001
 1645WAT      O 5176   2.096   0.037   4.161
 1645WAT     H1 5177   2.181   0.046   4.108
 1645WAT     H2 5178   2.059  -0.055   4.149
 1646WAT      O 5179   2.907   7.975   7.242
 1646WAT     H1 5180   2.879   7.996   7.336
 1646WAT     H2 5181   2.937   7.880   7.236
 1647WAT      O 5182   7.070   2.143   1.571
 1647WAT     H1 5183   7.152   2.172   1.521
 1647WAT     H2 5184   7.048   2.211   1.640
 1648WAT      O 5185   6.808   8.411   9.170
 1648WAT     H1 5186   6.814   8.317   9.137
 1648WAT     H2 5187   6.849   8.417   9.261
 1649WAT      O 5188   2.604   7.541   3.808
 1649WAT     H1 5189   2.531   7.476   3.830
 1649WAT     H2 5190   2.584   7.629   3.850
 1650WAT      O 5191   1.275   0.862   9.852
 1650WAT     H1 5192   1.347   0.805   9.891
 1650WAT     H2 5193   1.300   0.886   9.758
 1651WAT      O 5194   0.176   7.437   3.932
 1651WAT     H1 5195   0.150   7.343   3.951
 1651WAT     H2 5196   0.274   7.442   3.915
 1652WAT      O 5197   9.506   8.952   6.268
 1652WAT     H1 5198   9.600   8.986   6.274
 1652WAT     H2 5199   9.475   8.957   6.173
 1653WAT      O 5200   7.975   5.819   2.224
 1653WAT     H1 5201   7.940   5.784   2.311
 1653WAT     H2 5202   8.071   5.846   2.235
 1654WAT      O 5203   5.833   8.402   7.454
 1654WAT     H1 5204   5.828   8.501   7.439
 1654WAT     H2 5205   5.794   8.355   7.374
 1655WAT      O 5206   1.303   2.181   6.288
 1655WAT     H1 5207   1.224   2.227   6.247
 1655WAT     H2 5208   1.305   2.201   6.386
 1656WAT      O 5209   4.736   2.976   7.676
 1656WAT     H1 5210   4.762   3.060   7.629
 1656WAT     H2 5211   4.684   2.998   7.759
 1657WAT      O 5212   9.031   4.716   4.951
 1657WAT     H1 5213   9.082   4.748   4.872
 1657WAT     H2 5214   9.074   4.749   5.035
 1658WAT      O 5215   0.187   1.353   1.568
 1658WAT     H1 5216   0.272   1.388   1.530
 1658WAT     H2 5217   0.111   1.377   1.507
 1659WAT      O 5218   8.301   2.392   6.029
 1659WAT     H1 5219   8.308   2.468   6.095
 1659WAT     H2 5220   8.389   2.378   5.985
 1660WAT      O 5221   4.618   9.426   9.890
 1660WAT     H1 5222   4.682   9.446   9.816
 1660WAT     H2 5223   4.534   9.388   9.851
 1661WAT      O 5224   9.507   3.856   0.123
 1661WAT     H1 5225   9.514   3.922   0.198
 1661WAT     H2 5226   9.598   3.838   0.086
 1662WAT      O 5227   2.186   9.674   8.017
 1662WAT     H1 5228   2.225   9.650   7.928
 1662WAT     H2 5229   2.255   9.661   8.088
 1663WAT      O 5230   9.401   4.102   7.706
 1663WAT     H1 5231   9.339   4.071   7.634
 1663WAT     H2 5232   9.350   4.114   7.791
 1664WAT      O 5233   3.039   3.404   1.635
 1664WAT     H1 5234   2.956   3.358   1.604
 1664WAT     H2 5235   3.041   3.404   1.735
 1665WAT      O 5236   0.322   3.837   5.265
 1665WAT     H1 5237   0.307   3.878   5.175
 1665WAT     H2 5238   0.292   3.900   5.337
 1666WAT      O 5239   9.536   9.731   2.242
 1666WAT     H1 5240   9.459   9.694   2.190
 1666WAT     H2 5241   9.501   9.792   2.314
 1667WAT      O 5242   1.326   1.049   1.027
 1667WAT     H1 5243   1.256   1.040   0.956
 1667WAT     H2 5244   1.283   1.073   1.114
 1668WAT      O 5245   5.986   2.930   1.935
 1668WAT     H1 5246   5.949   2.866   1.868
 1668WAT     H2 5247   5.990   2.886   2.025
 1669WAT      O 5248   8.608   6.833   1.044
 1669WAT     H1 5249   8.523   6.781   1.033
 1669WAT     H2 5250   8.611   6.873   1.135
 1670WAT      O 5251   3.378   9.403   3.322
 1670WAT     H1 5252   3.390   9.478   3.256
 1670WAT     H2 5253   3.446   9.332   3.306
 1671WAT      O 5254   5.705   3.435   7.261
 1671WAT     H1 5255   5.649   3.393   7.190
 1671WAT     H2 5256   5.773   3.369   7.293
 1672WAT      O 5257   8.745   5.261   5.359
 1672WAT     H1 5258   8.686   5.182   5.341
 1672WAT     H2 5259   8.841   5.230   5.362
 1673WAT      O 5260   4.127   4.721   2.075
 1673WAT     H1 5261   4.114   4.759   2.166
 1673WAT     H2 5262   4.195   4.647   2.078
 1674WAT      O 5263   2.005   9.028   0.295
 1674WAT     H1 5264   2.057   9.021   0.380
 1674WAT     H2 5265   1.957   9.116   0.292
 1675WAT      O 5266   0.394   4.801   3.851
 1675WAT     H1 5267   0.295   4.789   3.857
 1675WAT     H2 5268   0.415   4.869   3.780
 1676WAT      O 5269   2.115   5.343   8.211
 1676WAT     H1 5270   2.196   5.285   8.220
 1676WAT     H2 5271   2.097   5.389   8.298
 1677WAT      O 5272   6.656   8.334   1.738
 1677WAT     H1 5273   6.566   8.321   1.778
 1677WAT     H2 5274   6.652   8.410   1.672
 1678WAT      O 5275   7.408   3.645   8.939
 1678WAT     H1 5276   7.338   3.688   8.997
 1678WAT     H2 5277   7.364   3.595   8.865
 1679WAT      O 5278   7.300   6.043   5.958
 1679WAT     H1 5279   7.352   6.123   5.989
 1679WAT     H2 5280   7.359   5.985   5.902
 1680WAT      O 5281   1.120   2.576   0.777
 1680WAT     H1 5282   1.073   2.594   0.691
 1680WAT     H2 5283   1.067   2.614   0.853
 1681WAT      O 5284   2.118   7.875   3.128
 1681WAT     H1 5285   2.075   7.790   3.098
 1681WAT     H2 5286   2.102   7.946   3.060
 1682WAT      O 5287   6.565   5.733   1.181
 1682WAT     H1 5288   6.647   5.760   1.131
 1682WAT     H2 5289   6.505   5.812   1.194
 1683WAT      O 5290   5.304   0.957   3.374
 1683WAT     H1 5291   5.277   0.933   3.281
 1683WAT     H2 5292   5.228   1.002   3.421
 1684WAT      O 5293   5.329   8.451   0.047
 1684WAT     H1 5294   5.389   8.431  -0.031
 1684WAT     H2 5295   5.381   8.443   0.132
 1685WAT      O 5296   9.347   3.016   2.261
 1685WAT     H1 5297   9.347   2.918   2.280
 1685WAT     H2 5298   9.278   3.061   2.318
 1686WAT      O 5299   0.246   8.016   8.718
 1686WAT     H1 5300   0.161   7.964   8.729
 1686WAT     H2 5301   0.238   8.077   8.639
 1687WAT      O 5302   0.276   8.229   8.943
 1687WAT     H1 5303   0.336   8.221   9.023
 1687WAT     H2 5304   0.237   8.140   8.920
 1688WAT      O 5305   1.628   4.894   3.155
 1688WAT     H1 5306   1.532   4.904   3.180
 1688WAT     H2 5307   1.672   4.829   3.216
 1689WAT      O 5308   1.841   0.568   5.644
 1689WAT     H1 5309   1.779   0.579   5.566
 1689WAT     H2 5310   1.885   0.479   5.640
 1690WAT      O 5311   4.936   7.478   5.835
 1690WAT     H1 5312   4.918   7.380   5.826
 1690WAT     H2 5313   4.966   7.498   5.928
 1691WAT      O 5314   5.213   1.797   8.854
 1691WAT     H1 5315   5.174   1.886   8.878
 1691WAT     H2 5316   5.307   1.809   8.824
 1692WAT      O 5317   1.892   5.907   7.265
 1692WAT     H1 5318   1.860   5.963   7.341
 1692WAT     H2 5319   1.988   5.882   7.280
 1693WAT      O 5320   1.341   0.254   1.466
 1693WAT     H1 5321   1.416   0.212   1.417
 1693WAT     H2 5322   1.256   0.205   1.446
 1694WAT      O 5323   2.105   9.056   0.989
 1694WAT     H1 5324   2.194   9.080   0.951
 1694WAT     H2 5325   2.045   9.022   0.916
 1695WAT      O 5326   5.674   6.755   7.580
 1695WAT     H1 5327   5.606   6.805   7.527
 1695WAT     H2 5328   5.754   6.814   7.596
 1696WAT      O 5329   0.947   5.456   0.654
 1696WAT     H1 5330   0.867   5.508   0.684
 1696WAT     H2 5331   1.017   5.519   0.621
 1697WAT      O 5332   8.427   4.280   7.823
 1697WAT     H1 5333   8.360   4.223   7.870
 1697WAT     H2 5334   8.488   4.222   7.769
 1698WAT      O 5335   5.955   8.868   8.209
 1698WAT     H1 5336   5.901   8.921   8.143
 1698WAT     H2 5337   5.896   8.804   8.258
 1699WAT      O 5338   5.550   7.546   7.875
 1699WAT     H1 5339   5.553   7.563   7.974
 1699WAT     H2 5340   5.505   7.623   7.830
 1700WAT      O 5341   2.946   2.443   8.587
 1700WAT     H1 5342   2.925   2.409   8.679
 1700WAT     H2 5343   2.880   2.514   8.562
 1701WAT      O 5344   8.903   2.403   3.391
 1701WAT     H1 5345   8.845   2.323   3.397
 1701WAT     H2 5346   8.958   2.398   3.307
 1702WAT      O 5347   7.411   4.899   3.624
 1702WAT     H1 5348   7.450   4.857   3.707
 1702WAT     H2 5349   7.317   4.927   3.642
 1703WAT      O 5350   4.260   9.741   5.327
 1703WAT     H1 5351   4.320   9.819   5.348
 1703WAT     H2 5352   4.270   9.671   5.398
 1704WAT      O 5353   1.014   5.290   8.707
 1704WAT     H1 5354   1.065   5.209   8.678
 1704WAT     H2 5355   0.916   5.275   8.693
 1705WAT      O 5356   0.547   9.424   5.946
 1705WAT     H1 5357   0.557   9.470   6.034
 1705WAT     H2 5358   0.625   9.364   5.931
 1706WAT      O 5359   8.407   9.005   6.542
 1706WAT     H1 5360   8.429   8.910   6.565
 1706WAT     H2 5361   8.402   9.015   6.443
 1707WAT      O 5362   6.385   1.764   1.308
 1707WAT     H1 5363   6.351   1.824   1.236
 1707WAT     H2 5364   6.313   1.701   1.337
 1708WAT      O 5365   0.372   8.548   4.454
 1708WAT     H1 5366   0.321   8.462   4.459
 1708WAT     H2 5367   0.330   8.609   4.387
 1709WAT      O 5368   3.173   0.938   1.155
 1709WAT     H1 5369   3.163   0.899   1.247
 1709WAT     H2 5370   3.090   0.988   1.131
 1710WAT      O 5371   3.709   4.900   3.325
 1710WAT     H1 5372   3.726   4.812   3.282
 1710WAT     H2 5373   3.639   4.950   3.273
 1711WAT      O 5374   9.388   5.105   0.953
 1711WAT     H1 5375   9.396   5.092   0.854
 1711WAT     H2 5376   9.316   5.171   0.972
 1712WAT      O 5377   7.655   4.355   8.555
 1712WAT     H1 5378   7.661   4.316   8.463
 1712WAT     H2 5379   7.617   4.447   8.550
 1713WAT      O 5380   8.278   1.101   8.435
 1713WAT     H1 5381   8.343   1.062   8.500
 1713WAT     H2 5382   8.213   1.160   8.483
 1714WAT      O 5383   4.132   4.306   7.913
 1714WAT     H1 5384   4.033   4.320   7.912
 1714WAT     H2 5385   4.176   4.383   7.959
 1715WAT      O 5386   1.420   0.031   6.152
 1715WAT     H1 5387   1.412   0.027   6.052
 1715WAT     H2 5388   1.348  -0.024   6.194
 1716WAT      O 5389   6.390   0.282   4.715
 1716WAT     H1 5390   6.311   0.328   4.673
 1716WAT     H2 5391   6.471   0.339   4.704
 1717WAT      O 5392   0.358   7.774   3.887
 1717WAT     H1 5393   0.444   7.738   3.923
 1717WAT     H2 5394   0.351   7.753   3.789
 1718WAT      O 5395   3.603   7.676   4.987
 1718WAT     H1 5396   3.521   7.650   4.937
 1718WAT     H2 5397   3.674   7.704   4.922
 1719WAT      O 5398   6.313   6.710   0.119
 1719WAT     H1 5399   6.395   6.735   0.170
 1719WAT     H2 5400   6.324   6.618   0.082
 1720WAT      O 5401   7.832   0.502   5.429
 1720WAT     H1 5402   7.882   0.457   5.504
 1720WAT     H2 5403   7.759   0.558   5.467
 1721WAT      O 5404   8.446   2.095   6.638
 1721WAT     H1 5405   8.430   2.105   6.540
 1721WAT     H2 5406   8.475   2.001   6.657
 1722WAT      O 5407   4.382   2.932   3.709
 1722WAT     H1 5408   4.475   2.930   3.674
 1722WAT     H2 5409   4.383   2.966   3.804
 1723WAT      O 5410   3.762   7.491   3.195
 1723WAT     H1 5411   3.762   7.565   3.128
 1723WAT     H2 5412   3.795   7.407   3.152
 1724WAT      O 5413   6.346   3.661   4.511
 1724WAT     H1 5414   6.404   3.697   4.583
 1724WAT     H2 5415   6.401   3.604   4.449
 1725WAT      O 5416   1.874   4.306   1.130
 1725WAT     H1 5417   1.955   4.358   1.100
 1725WAT     H2 5418   1.858   4.323   1.227
 1726WAT      O 5419   8.960   2.531   4.989
 1726WAT     H1 5420   8.948   2.630   4.977
 1726WAT     H2 5421   9.053   2.506   4.965
 1727WAT      O 5422   1.532   9.086   8.183
 1727WAT     H1 5423   1.555   9.053   8.092
 1727WAT     H2 5424   1.462   9.028   8.224
 1728WAT      O 5425   7.574   3.231   3.631
 1728WAT     H1 5426   7.577   3.295   3.708
 1728WAT     H2 5427   7.558   3.139   3.666
 1729WAT      O 5428   7.618   0.751   3.391
 1729WAT     H1 5429   7.656   0.754   3.299
 1729WAT     H2 5430   7.525   0.714   3.387
 1730WAT      O 5431   6.272   8.083   7.263
 1730WAT     H1 5432   6.204   8.142   7.306
 1730WAT     H2 5433   6.260   7.989   7.294
 1731WAT      O 5434   5.890   4.609   6.954
 1731WAT     H1 5435   5.821   4.580   6.888
 1731WAT     H2 5436   5.978   4.619   6.908
 1732WAT      O 5437   2.956   3.585   9.371
 1732WAT     H1 5438   3.024   3.564   9.300
 1732WAT     H2 5439   3.002   3.621   9.452
 1733WAT      O 5440   2.795   1.356   7.358
 1733WAT     H1 5441   2.708   1.405   7.364
 1733WAT     H2 5442   2.863   1.415   7.313
 1734WAT      O 5443   6.791   5.166   6.098
 1734WAT     H1 5444   6.754   5.224   6.170
 1734WAT     H2 5445   6.753   5.074   6.106
 1735WAT      O 5446   4.771   6.868   9.598
 1735WAT     H1 5447   4.718   6.853   9.514
 1735WAT     H2 5448   4.711   6.859   9.677
 1736WAT      O 5449   0.721   6.851   5.199
 1736WAT     H1 5450   0.735   6.752   5.188
 1736WAT     H2 5451   0.718   6.894   5.109
 1737WAT      O 5452   7.981   3.235   3.470
 1737WAT     H1 5453   7.914   3.296   3.511
 1737WAT     H2 5454   7.934   3.164   3.418
 1738WAT      O 5455   0.878   6.303   4.828
 1738WAT     H1 5456   0.936   6.383   4.849
 1738WAT     H2 5457   0.911   6.225   4.880
 1739WAT      O 5458   5.929   8.131   3.466
 1739WAT     H1 5459   5.861   8.135   3.392
 1739WAT     H2 5460   5.988   8.052   3.452
 1740WAT      O 5461   8.416   3.798   6.031
 1740WAT     H1 5462   8.501   3.781   6.081
 1740WAT     H2 5463   8.339   3.757   6.080
 1741WAT      O 5464   9.448   1.514   0.517
 1741WAT     H1 5465   9.451   1.452   0.595
 1741WAT     H2 5466   9.374   1.486   0.455
 1742WAT      O 5467   7.873   3.469   1.610
 1742WAT     H1 5468   7.876   3.566   1.634
 1742WAT     H2 5469   7.811   3.455   1.534
 1743WAT      O 5470   4.033   1.616   7.648
 1743WAT     H1 5471   4.126   1.646   7.672
 1743WAT     H2 5472   3.981   1.695   7.614
 1744WAT      O 5473   8.846   1.873   4.427
 1744WAT     H1 5474   8.817   1.943   4.492
 1744WAT     H2 5475   8.881   1.917   4.344
 1745WAT      O 5476   1.525   0.650   2.828
 1745WAT     H1 5477   1.524   0.744   2.862
 1745WAT     H2 5478   1.515   0.587   2.905
 1746WAT      O 5479   9.541   0.530   7.200
 1746WAT     H1 5480   9.503   0.621   7.183
 1746WAT     H2 5481   9.599   0.532   7.282
 1747WAT      O 5482   8.780   4.294   7.876
 1747WAT     H1 5483   8.793   4.368   7.941
 1747WAT     H2 5484   8.857   4.230   7.881
 1748WAT      O 5485   5.654   7.465   9.057
 1748WAT     H1 5486   5.671   7.499   8.964
 1748WAT     H2 5487   5.613   7.538   9.112
 1749WAT      O 5488   8.701   0.589   3.558
 1749WAT     H1 5489   8.691   0.521   3.630
 1749WAT     H2 5490   8.611   0.620   3.527
 1750WAT      O 5491   1.336   4.734   0.640
 1750WAT     H1 5492   1.364   4.802   0.572
 1750WAT     H2 5493   1.251   4.690   0.611
 1751WAT      O 5494   8.499   7.891   6.472
 1751WAT     H1 5495   8.481   7.916   6.567
 1751WAT     H2 5496   8.513   7.975   6.418
 1752WAT      O 5497   7.429   0.614   2.628
 1752WAT     H1 5498   7.494   0.561   2.682
 1752WAT     H2 5499   7.478   0.659   2.553
 1753WAT      O 5500   4.800   2.801   0.840
 1753WAT     H1 5501   4.753   2.743   0.773
 1753WAT     H2 5502   4.733   2.855   0.890
 1754WAT      O 5503   4.694   2.282   4.290
 1754WAT     H1 5504   4.695   2.243   4.198
 1754WAT     H2 5505   4.666   2.212   4.355
 1755WAT      O 5506   4.516   2.065   9.105
 1755WAT     H1 5507   4.585   1.998   9.078
 1755WAT     H2 5508   4.522   2.145   9.044
 1756WAT      O 5509   6.240   5.546   8.987
 1756WAT     H1 5510   6.246   5.578   8.893
 1756WAT     H2 5511   6.330   5.513   9.017
 1757WAT      O 5512   1.076   1.238   4.353
 1757WAT     H1 5513   1.083   1.313   4.287
 1757WAT     H2 5514   1.096   1.151   4.307
 1758WAT      O 5515   0.909   0.873   6.296
 1758WAT     H1 5516   1.002   0.900   6.320
 1758WAT     H2 5517   0.846   0.948   6.316
 1759WAT      O 5518   6.911   5.623   1.826
 1759WAT     H1 5519   6.873   5.569   1.750
 1759WAT     H2 5520   6.914   5.567   1.908
 1760WAT      O 5521   7.459   0.836   8.218
 1760WAT     H1 5522   7.556   0.857   8.232
 1760WAT     H2 5523   7.449   0.776   8.138
 1761WAT      O 5524   8.727   3.359   7.972
 1761WAT     H1 5525   8.752   3.454   7.952
 1761WAT     H2 5526   8.782   3.298   7.916
 1762WAT      O 5527   5.869   0.170   1.695
 1762WAT     H1 5528   5.905   0.077   1.680
 1762WAT     H2 5529   5.837   0.179   1.789
 1763WAT      O 5530   1.819   8.031   4.071
 1763WAT     H1 5531   1.817   8.011   4.169
 1763WAT     H2 5532   1.852   7.951   4.021
 1764WAT      O 5533   3.934   0.320   6.660
 1764WAT     H1 5534   3.947   0.287   6.567
 1764WAT     H2 5535   3.941   0.419   6.662
 1765WAT      O 5536   8.944   6.006   7.285
 1765WAT     H1 5537   8.947   5.944   7.363
 1765WAT     H2 5538   9.037   6.036   7.263
 1766WAT      O 5539   5.788   6.464   0.026
 1766WAT     H1 5540   5.802   6.420  -0.062
 1766WAT     H2 5541   5.740   6.551   0.013
 1767WAT      O 5542   0.878   2.054   5.082
 1767WAT     H1 5543   0.889   2.153   5.076
 1767WAT     H2 5544   0.904   2.023   5.174
 1768WAT      O 5545   1.222   9.300   6.118
 1768WAT     H1 5546   1.185   9.343   6.035
 1768WAT     H2 5547   1.146   9.263   6.172
 1769WAT      O 5548   4.449   1.328   9.839
 1769WAT     H1 5549   4.492   1.405   9.887
 1769WAT     H2 5550   4.412   1.360   9.751
 1770WAT      O 5551   2.845   0.971   8.085
 1770WAT     H1 5552   2.892   0.965   7.996
 1770WAT     H2 5553   2.860   1.062   8.124
 1771WAT      O 5554   3.723   3.934   3.956
 1771WAT     H1 5555   3.674   4.021   3.945
 1771WAT     H2 5556   3.803   3.933   3.896
 1772WAT      O 5557   9.020   5.686   3.968
 1772WAT     H1 5558   9.049   5.614   3.904
 1772WAT     H2 5559   9.063   5.772   3.943
 1773WAT      O 5560   4.870   6.528   1.533
 1773WAT     H1 5561   4.809   6.461   1.576
 1773WAT     H2 5562   4.816   6.597   1.485
 1774WAT      O 5563   8.781   5.671   3.366
 1774WAT     H1 5564   8.861   5.624   3.328
 1774WAT     H2 5565   8.788   5.769   3.346
 1775WAT      O 5566   8.944   6.864   9.142
 1775WAT     H1 5567   8.941   6.776   9.095
 1775WAT     H2 5568   9.009   6.924   9.096
 1776WAT      O 5569   4.757   3.217   6.672
 1776WAT     H1 5570   4.854   3.226   6.695
 1776WAT     H2 5571   4.743   3.131   6.623
 1777WAT      O 5572   8.019   1.513   6.553
 1777WAT     H1 5573   7.957   1.494   6.477
 1777WAT     H2 5574   7.973   1.493   6.639
 1778WAT      O 5575   4.204   1.034   3.018
 1778WAT     H1 5576   4.226   1.073   2.928
 1778WAT     H2 5577   4.152   1.101   3.072
 1779WAT      O 5578   6.427   1.718   2.817
 1779WAT     H1 5579   6.335   1.750   2.843
 1779WAT     H2 5580   6.429   1.696   2.720
 1780WAT      O 5581   8.902   5.257   7.045
 1780WAT     H1 5582   8.945   5.311   6.973
 1780WAT     H2 5583   8.824   5.307   7.082
 1781WAT      O 5584   4.220   5.348   7.803
 1781WAT     H1 5585   4.260   5.434   7.773
 1781WAT     H2 5586   4.155   5.315   7.734
 1782WAT      O 5587   3.639   2.748   0.826
 1782WAT     H1 5588   3.637   2.792   0.915
 1782WAT     H2 5589   3.582   2.666   0.828
 1783WAT      O 5590   8.304   5.426   6.734
 1783WAT     H1 5591   8.344   5.512   6.703
 1783WAT     H2 5592   8.247   5.387   6.661
 1784WAT      O 5593   6.603   2.473   1.229
 1784WAT     H1 5594   6.660   2.551   1.204
 1784WAT     H2 5595   6.620   2.397   1.166
 1785WAT      O 5596   3.973   4.435   1.341
 1785WAT     H1 5597   3.884   4.433   1.388
 1785WAT     H2 5598   4.023   4.351   1.362
 1786WAT      O 5599   4.676   6.790   2.750
 1786WAT     H1 5600   4.597   6.847   2.729
 1786WAT     H2 5601   4.760   6.843   2.735
 1787WAT      O 5602   8.989   8.650   6.926
 1787WAT     H1 5603   8.913   8.643   6.990
 1787WAT     H2 5604   9.072   8.614   6.969
 1788WAT      O 5605   7.458   0.866   6.551
 1788WAT     H1 5606   7.440   0.819   6.638
 1788WAT     H2 5607   7.555   0.859   6.529
 1789WAT      O 5608   2.540   7.221   1.890
 1789WAT     H1 5609   2.621   7.280   1.884
 1789WAT     H2 5610   2.488   7.227   1.805
 1790WAT      O 5611   1.672   0.764   0.344
 1790WAT     H1 5612   1.716   0.688   0.297
 1790WAT     H2 5613   1.653   0.738   0.439
 1791WAT      O 5614   7.344   7.470   2.341
 1791WAT     H1 5615   7.442   7.467   2.358
 1791WAT     H2 5616   7.327   7.502   2.248
 1792WAT      O 5617   6.967   2.857   0.950
 1792WAT     H1 5618   7.047   2.857   0.890
 1792WAT     H2 5619   6.894   2.804   0.907
 1793WAT      O 5620   4.677   5.642   3.773
 1793WAT     H1 5621   4.694   5.661   3.676
 1793WAT     H2 5622   4.754   5.589   3.810
 1794WAT      O 5623   3.663   1.595   9.384
 1794WAT     H1 5624   3.606   1.674   9.363
 1794WAT     H2 5625   3.753   1.606   9.342
 1795WAT      O 5626   1.759   7.046   9.328
 1795WAT     H1 5627   1.675   7.100   9.318
 1795WAT     H2 5628   1.764   7.008   9.420
 1796WAT      O 5629   5.798   3.838   3.443
 1796WAT     H1 5630   5.858   3.898   3.496
 1796WAT     H2 5631   5.853   3.769   3.396
 1797WAT      O 5632   1.436   4.994   5.299
 1797WAT     H1 5633   1.410   5.066   5.235
 1797WAT     H2 5634   1.380   5.000   5.381
 1798WAT      O 5635   4.285   9.434   9.269
 1798WAT     H1 5636   4.358   9.496   9.240
 1798WAT     H2 5637   4.221   9.420   9.194
 1799WAT      O 5638   9.274   3.128   6.933
 1799WAT     H1 5639   9.306   3.075   7.011
 1799WAT     H2 5640   9.246   3.219   6.964
 1800WAT      O 5641   7.886   8.476   6.122
 1800WAT     H1 5642   7.846   8.523   6.200
 1800WAT     H2 5643   7.851   8.382   6.118
 1801WAT      O 5644   8.868   0.542   2.048
 1801WAT     H1 5645   8.902   0.496   1.966
 1801WAT     H2 5646   8.849   0.475   2.119
 1802WAT      O 5647   3.872   4.820   5.067
 1802WAT     H1 5648   3.838   4.900   5.018
 1802WAT     H2 5649   3.896   4.846   5.161
 1803WAT      O 5650   2.725   6.743   0.337
 1803WAT     H1 5651   2.708   6.758   0.239
 1803WAT     H2 5652   2.792   6.670   0.349
 1804WAT      O 5653   6.163   4.642   1.290
 1804WAT     H1 5654   6.088   4.690   1.244
 1804WAT     H2 5655   6.163   4.546   1.262
 1805WAT      O 5656   9.852   1.479   0.164
 1805WAT     H1 5657   9.899   1.568   0.172
 1805WAT     H2 5658   9.915   1.406   0.188
 1806WAT      O 5659   6.583   4.180   9.027
 1806WAT     H1 5660   6.599   4.082   9.045
 1806WAT     H2 5661   6.489   4.204   9.052
 1807WAT      O 5662   4.915   7.185   3.499
 1807WAT     H1 5663   4.938   7.128   3.421
 1807WAT     H2 5664   4.824   7.225   3.487
 1808WAT      O 5665   0.748   7.664   9.435
 1808WAT     H1 5666   0.732   7.584   9.493
 1808WAT     H2 5667   0.773   7.742   9.493
 1809WAT      O 5668   1.527   5.953   3.736
 1809WAT     H1 5669   1.503   6.036   3.686
 1809WAT     H2 5670   1.449   5.891   3.736
 1810WAT      O 5671   5.471   2.739   6.187
 1810WAT     H1 5672   5.411   2.746   6.268
 1810WAT     H2 5673   5.556   2.788   6.205
 1811WAT      O 5674   3.740   4.156   1.679
 1811WAT     H1 5675   3.771   4.131   1.771
 1811WAT     H2 5676   3.640   4.150   1.675
 1812WAT      O 5677   3.565   2.784   7.380
 1812WAT     H1 5678   3.534   2.877   7.363
 1812WAT     H2 5679   3.488   2.721   7.373
 1813WAT      O 5680   6.199   7.519   3.564
 1813WAT     H1 5681   6.106   7.508   3.600
 1813WAT     H2 5682   6.245   7.431   3.563
 1814WAT      O 5683   6.932   8.562   2.469
 1814WAT     H1 5684   6.852   8.511   2.436
 1814WAT     H2 5685   6.953   8.533   2.562
 1815WAT      O 5686   4.457   8.323   1.593
 1815WAT     H1 5687   4.406   8.371   1.521
 1815WAT     H2 5688   4.554   8.350   1.589
 1816WAT      O 5689   4.175   5.891   9.291
 1816WAT     H1 5690   4.161   5.901   9.192
 1816WAT     H2 5691   4.095   5.924   9.340
 1817WAT      O 5692   2.848   6.655   5.243
 1817WAT     H1 5693   2.758   6.614   5.231
 1817WAT     H2 5694   2.850   6.746   5.200
 1818WAT      O 5695   3.665   8.159   4.280
 1818WAT     H1 5696   3.753   8.158   4.328
 1818WAT     H2 5697   3.638   8.065   4.258
 1819WAT      O 5698   1.333   2.837   6.706
 1819WAT     H1 5699   1.249   2.808   6.752
 1819WAT     H2 5700   1.405   2.769   6.721
 1820WAT      O 5701   6.645   4.442   9.481
 1820WAT     H1 5702   6.693   4.529   9.471
 1820WAT     H2 5703   6.689   4.387   9.551
 1821WAT      O 5704   2.359   0.773   7.394
 1821WAT     H1 5705   2.363   0.746   7.298
 1821WAT     H2 5706   2.445   0.815   7.421
 1822WAT      O 5707   6.222   7.019   7.997
 1822WAT     H1 5708   6.302   6.969   8.030
 1822WAT     H2 5709   6.191   6.979   7.911
 1823WAT      O 5710   3.904   2.888   1.463
 1823WAT     H1 5711   3.867   2.803   1.500
 1823WAT     H2 5712   4.001   2.896   1.487
 1824WAT      O 5713   9.541   7.092   8.326
 1824WAT     H1 5714   9.549   6.992   8.332
 1824WAT     H2 5715   9.487   7.117   8.246
 1825WAT      O 5716   5.555   0.390   4.969
 1825WAT     H1 5717   5.555   0.470   4.909
 1825WAT     H2 5718   5.634   0.396   5.031
 1826WAT      O 5719   1.812   4.045   9.568
 1826WAT     H1 5720   1.871   4.020   9.491
 1826WAT     H2 5721   1.865   4.043   9.652
 1827WAT      O 5722   4.234   9.169   1.765
 1827WAT     H1 5723   4.139   9.199   1.774
 1827WAT     H2 5724   4.256   9.104   1.837
 1828WAT      O 5725   6.708   5.490   7.332
 1828WAT     H1 5726   6.646   5.569   7.337
 1828WAT     H2 5727   6.655   5.407   7.316
 1829WAT      O 5728   6.284   2.977   6.470
 1829WAT     H1 5729   6.305   3.019   6.558
 1829WAT     H2 5730   6.368   2.972   6.415
 1830WAT      O 5731   7.738   5.373   0.978
 1830WAT     H1 5732   7.685   5.456   0.962
 1830WAT     H2 5733   7.711   5.333   1.066
 1831WAT      O 5734   4.898   6.164   9.297
 1831WAT     H1 5735   4.890   6.260   9.271
 1831WAT     H2 5736   4.992   6.144   9.325
 1832WAT      O 5737   4.704   3.323   3.127
 1832WAT     H1 5738   4.726   3.293   3.219
 1832WAT     H2 5739   4.787   3.327   3.072
 1833WAT      O 5740   5.132   7.008   4.651
 1833WAT     H1 5741   5.133   6.994   4.750
 1833WAT     H2 5742   5.061   7.074   4.627
 1834WAT      O 5743   6.928   1.409   2.028
 1834WAT     H1 5744   6.932   1.328   1.970
 1834WAT     H2 5745   6.842   1.410   2.079
 1835WAT      O 5746   8.151   8.549   2.966
 1835WAT     H1 5747   8.068   8.506   3.000
 1835WAT     H2 5748   8.219   8.479   2.944
 1836WAT      O 5749   1.570   6.182   2.763
 1836WAT     H1 5750   1.488   6.237   2.748
 1836WAT     H2 5751   1.545   6.085   2.769
 1837WAT      O 5752   8.882   7.316   9.863
 1837WAT     H1 5753   8.850   7.347   9.774
 1837WAT     H2 5754   8.852   7.380   9.934
 1838WAT      O 5755   8.836   8.626   3.412
 1838WAT     H1 5756   8.790   8.567   3.345
 1838WAT     H2 5757   8.807   8.599   3.504
 1839WAT      O 5758   1.854   8.527   1.808
 1839WAT     H1 5759   1.879   8.577   1.890
 1839WAT     H2 5760   1.914   8.554   1.733
 1840WAT      O 5761   4.161   4.220   0.029
 1840WAT     H1 5762   4.257   4.225   0.003
 1840WAT     H2 5763   4.136   4.125   0.049
 1841WAT      O 5764   8.548   1.347   3.681
 1841WAT     H1 5765   8.469   1.327   3.739
 1841WAT     H2 5766   8.601   1.263   3.668
 1842WAT      O 5767   0.672   2.422   5.846
 1842WAT     H1 5768   0.614   2.503   5.837
 1842WAT     H2 5769   0.762   2.449   5.881
 1843WAT      O 5770   9.055   7.106   6.645
 1843WAT     H1 5771   8.981   7.141   6.587
 1843WAT     H2 5772   9.121   7.178   6.662
 1844WAT      O 5773   2.701   7.000   3.887
 1844WAT     H1 5774   2.790   7.031   3.922
 1844WAT     H2 5775   2.635   7.075   3.894
 1845WAT      O 5776   6.055   6.213   6.857
 1845WAT     H1 5777   6.024   6.277   6.927
 1845WAT     H2 5778   6.045   6.119   6.889
 1846WAT      O 5779   8.186   9.170   8.458
 1846WAT     H1 5780   8.107   9.110   8.446
 1846WAT     H2 5781   8.270   9.115   8.454
 1847WAT      O 5782   7.950   5.752   6.079
 1847WAT     H1 5783   7.978   5.675   6.137
 1847WAT     H2 5784   7.984   5.837   6.117
 1848WAT      O 5785   4.944   1.856   3.351
 1848WAT     H1 5786   4.993   1.828   3.434
 1848WAT     H2 5787   4.847   1.867   3.372
 1849WAT      O 5788   6.408   9.721   4.588
 1849WAT     H1 5789   6.397   9.762   4.497
 1849WAT     H2 5790   6.365   9.779   4.657
 1850WAT      O 5791   1.144   1.703   1.966
 1850WAT     H1 5792   1.229   1.725   1.918
 1850WAT     H2 5793   1.073   1.679   1.899
 1851WAT      O 5794   0.013   5.027   8.887
 1851WAT     H1 5795   0.053   5.019   8.978
 1851WAT     H2 5796   0.083   5.009   8.818
 1852WAT      O 5797   5.576   7.319   9.280
 1852WAT     H1 5798   5.585   7.221   9.265
 1852WAT     H2 5799   5.621   7.369   9.206
 1853WAT      O 5800   3.905   0.133   5.626
 1853WAT     H1 5801   4.003   0.143   5.642
 1853WAT     H2 5802   3.889   0.110   5.529
 1854WAT      O 5803   2.603   7.546   3.404
 1854WAT     H1 5804   2.625   7.455   3.439
 1854WAT     H2 5805   2.504   7.554   3.392
 1855WAT      O 5806   7.255   7.938   0.224
 1855WAT     H1 5807   7.252   7.862   0.289
 1855WAT     H2 5808   7.324   8.004   0.254
 1856WAT      O 5809   8.140   1.722   0.387
 1856WAT     H1 5810   8.070   1.776   0.435
 1856WAT     H2 5811   8.223   1.719   0.442
 1857WAT      O 5812   8.456   0.657   6.563
 1857WAT     H1 5813   8.528   0.630   6.627
 1857WAT     H2 5814   8.494   0.661   6.471
 1858WAT      O 5815   3.575   7.162   8.010
 1858WAT     H1 5816   3.641   7.105   8.058
 1858WAT     H2 5817   3.484   7.122   8.017
 1859WAT      O 5818   5.711   9.813   9.657
 1859WAT     H1 5819   5.623   9.824   9.703
 1859WAT     H2 5820   5.700   9.752   9.578
 1860WAT      O 5821   9.448   3.604   3.637
 1860WAT     H1 5822   9.477   3.508   3.635
 1860WAT     H2 5823   9.470   3.643   3.726
 1861WAT      O 5824   9.033   0.932   0.643
 1861WAT     H1 5825   9.071   1.011   0.691
 1861WAT     H2 5826   9.012   0.958   0.548
 1862WAT      O 5827   5.510   9.118   7.696
 1862WAT     H1 5828   5.467   9.192   7.748
 1862WAT     H2 5829   5.455   9.035   7.705
 1863WAT      O 5830   7.270   5.898   4.866
 1863WAT     H1 5831   7.226   5.965   4.806
 1863WAT     H2 5832   7.358   5.934   4.898
 1864WAT      O 5833   1.277   7.520   3.619
 1864WAT     H1 5834   1.263   7.470   3.533
 1864WAT     H2 5835   1.193   7.520   3.672
 1865WAT      O 5836   2.790   8.584   3.156
 1865WAT     H1 5837   2.809   8.522   3.232
 1865WAT     H2 5838   2.852   8.565   3.080
 1866WAT      O 5839   4.318   5.594   0.227
 1866WAT     H1 5840   4.280   5.537   0.300
 1866WAT     H2 5841   4.244   5.644   0.182
 1867WAT      O 5842   2.778   8.078   0.688
 1867WAT     H1 5843   2.789   7.981   0.709
 1867WAT     H2 5844   2.864   8.115   0.654
 1868WAT      O 5845   8.153   2.740   0.583
 1868WAT     H1 5846   8.215   2.740   0.661
 1868WAT     H2 5847   8.109   2.830   0.576
 1869WAT      O 5848   9.682   2.603   8.075
 1869WAT     H1 5849   9.689   2.504   8.065
 1869WAT     H2 5850   9.586   2.629   8.080
 1870WAT      O 5851   1.887   0.582   8.524
 1870WAT     H1 5852   1.867   0.638   8.444
 1870WAT     H2 5853   1.878   0.486   8.502
 1871WAT      O 5854   9.125   1.885   8.711
 1871WAT     H1 5855   9.114   1.984   8.710
 1871WAT     H2 5856   9.086   1.847   8.795
 1872WAT      O 5857   7.815   3.327   2.060
 1872WAT     H1 5858   7.721   3.360   2.048
 1872WAT     H2 5859   7.822   3.235   2.022
 1873WAT      O 5860   2.078   5.980   5.983
 1873WAT     H1 5861   2.169   6.020   5.993
 1873WAT     H2 5862   2.052   5.981   5.886
 1874WAT      O 5863   2.063   1.801   7.812
 1874WAT     H1 5864   2.071   1.900   7.803
 1874WAT     H2 5865   1.982   1.780   7.867
 1875WAT      O 5866   4.283   1.102   1.996
 1875WAT     H1 5867   4.300   1.029   2.062
 1875WAT     H2 5868   4.311   1.072   1.905
 1876WAT      O 5869   1.773   4.342   8.407
 1876WAT     H1 5870   1.794   4.375   8.499
 1876WAT     H2 5871   1.676   4.321   8.400
 1877WAT      O 5872   4.327   6.179   3.369
 1877WAT     H1 5873   4.293   6.197   3.277
 1877WAT     H2 5874   4.262   6.121   3.417
 1878WAT      O 5875   1.100   5.526   7.800
 1878WAT     H1 5876   1.122   5.494   7.707
 1878WAT     H2 5877   1.004   5.550   7.805
 1879WAT      O 5878   6.890   2.649   6.646
 1879WAT     H1 5879   6.900   2.636   6.548
 1879WAT     H2 5880   6.960   2.713   6.679
 1880WAT      O 5881   8.846   2.264   1.881
 1880WAT     H1 5882   8.786   2.238   1.805
 1880WAT     H2 5883   8.793   2.315   1.949
 1881WAT      O 5884   9.496   1.726   2.117
 1881WAT     H1 5885   9.498   1.758   2.212
 1881WAT     H2 5886   9.511   1.627   2.115
 1882WAT      O 5887   3.998   3.400   0.457
 1882WAT     H1 5888   3.968   3.311   0.420
 1882WAT     H2 5889   4.097   3.405   0.456
 1883WAT      O 5890   6.142   7.400   1.295
 1883WAT     H1 5891   6.119   7.318   1.347
 1883WAT     H2 5892   6.162   7.374   1.200
 1884WAT      O 5893   9.052   4.291   0.242
 1884WAT     H1 5894   9.147   4.271   0.264
 1884WAT     H2 5895   9.036   4.389   0.252
 1885WAT      O 5896   3.394   9.236   8.749
 1885WAT     H1 5897   3.424   9.270   8.838
 1885WAT     H2 5898   3.415   9.139   8.741
 1886WAT      O 5899   4.423   0.904   2.141
 1886WAT     H1 5900   4.459   0.972   2.204
 1886WAT     H2 5901   4.494   0.879   2.074
 1887WAT      O 5902   5.697   2.084   8.320
 1887WAT     H1 5903   5.717   2.009   8.383
 1887WAT     H2 5904   5.644   2.154   8.367
 1888WAT      O 5905   2.132   9.485   6.379
 1888WAT     H1 5906   2.129   9.561   6.315
 1888WAT     H2 5907   2.218   9.436   6.370
 1889WAT      O 5908   6.623   6.652   1.117
 1889WAT     H1 5909   6.688   6.577   1.113
 1889WAT     H2 5910   6.658   6.724   1.176
 1890WAT      O 5911   1.262   0.751   2.432
 1890WAT     H1 5912   1.357   0.733   2.405
 1890WAT     H2 5913   1.240   0.700   2.514
 1891WAT      O 5914   2.551   3.236   9.343
 1891WAT     H1 5915   2.631   3.181   9.365
 1891WAT     H2 5916   2.571   3.333   9.361
 1892WAT      O 5917   9.478   2.722   1.464
 1892WAT     H1 5918   9.564   2.765   1.434
 1892WAT     H2 5919   9.436   2.778   1.536
 1893WAT      O 5920   8.265   9.543   5.180
 1893WAT     H1 5921   8.298   9.536   5.086
 1893WAT     H2 5922   8.229   9.455   5.210
 1894WAT      O 5923   5.753   1.850   8.479
 1894WAT     H1 5924   5.828   1.785   8.470
 1894WAT     H2 5925   5.686   1.815   8.545
 1895WAT      O 5926   3.204   1.825   5.859
 1895WAT     H1 5927   3.109   1.848   5.837
 1895WAT     H2 5928   3.228   1.865   5.947
 1896WAT      O 5929   9.770   1.103   7.064
 1896WAT     H1 5930   9.815   1.163   7.129
 1896WAT     H2 5931   9.743   1.018   7.109
 1897WAT      O 5932   5.689   7.790   0.090
 1897WAT     H1 5933   5.742   7.761   0.010
 1897WAT     H2 5934   5.748   7.791   0.170
 1898WAT      O 5935   9.363   2.650   1.228
 1898WAT     H1 5936   9.401   2.650   1.321
 1898WAT     H2 5937   9.294   2.577   1.221
 1899WAT      O 5938   0.616   3.214   1.446
 1899WAT     H1 5939   0.553   3.147   1.407
 1899WAT     H2 5940   0.569   3.302   1.457
 1900WAT      O 5941   7.945   6.201   2.501
 1900WAT     H1 5942   7.868   6.215   2.564
 1900WAT     H2 5943   7.983   6.110   2.514
 1901WAT      O 5944   9.470   4.903   6.227
 1901WAT     H1 5945   9.501   4.992   6.262
 1901WAT     H2 5946   9.397   4.868   6.285
 1902WAT      O 5947   8.139   7.440   2.722
 1902WAT     H1 5948   8.096   7.528   2.743
 1902WAT     H2 5949   8.239   7.450   2.727
 1903WAT      O 5950   8.591   5.405   3.035
 1903WAT     H1 5951   8.533   5.475   3.075
 1903WAT     H2 5952   8.566   5.392   2.939
 1904WAT      O 5953   0.314   1.300   5.328
 1904WAT     H1 5954   0.341   1.372   5.263
 1904WAT     H2 5955   0.219   1.273   5.310
 1905WAT      O 5956   9.169   4.686   1.124
 1905WAT     H1 5957   9.205   4.652   1.211
 1905WAT     H2 5958   9.243   4.688   1.056
 1906WAT      O 5959   4.170   8.806   6.287
 1906WAT     H1 5960   4.206   8.800   6.194
 1906WAT     H2 5961   4.219   8.743   6.347
 1907WAT      O 5962   9.452   8.385   9.293
 1907WAT     H1 5963   9.551   8.393   9.306
 1907WAT     H2 5964   9.421   8.295   9.324
 1908WAT      O 5965   7.879   2.304   5.282
 1908WAT     H1 5966   7.953   2.350   5.233
 1908WAT     H2 5967   7.809   2.372   5.306
 1909WAT      O 5968   8.683   2.952   2.368
 1909WAT     H1 5969   8.725   3.033   2.409
 1909WAT     H2 5970   8.751   2.901   2.316
 1910WAT      O 5971   9.481   3.715   9.604
 1910WAT     H1 5972   9.482   3.732   9.506
 1910WAT     H2 5973   9.494   3.802   9.652
 1911WAT      O 5974   6.896   3.097   1.596
 1911WAT     H1 5975   6.967   3.028   1.610
 1911WAT     H2 5976   6.812   3.069   1.642
 1912WAT      O 5977   3.556   5.813   2.718
 1912WAT     H1 5978   3.598   5.732   2.760
 1912WAT     H2 5979   3.557   5.803   2.619
 1913WAT      O 5980   7.669   8.383   1.787
 1913WAT     H1 5981   7.615   8.457   1.746
 1913WAT     H2 5982   7.717   8.418   1.868
 1914WAT      O 5983   0.232   3.132   7.568
 1914WAT     H1 5984   0.214   3.230   7.556
 1914WAT     H2 5985   0.152   3.089   7.611
 1915WAT      O 5986   6.791   7.447   7.142
 1915WAT     H1 5987   6.807   7.531   7.195
 1915WAT     H2 5988   6.788   7.470   7.045
 1916WAT      O 5989   6.943   4.909   1.661
 1916WAT     H1 5990   6.990   4.852   1.729
 1916WAT     H2 5991   6.858   4.943   1.700
 1917WAT      O 5992   1.002   3.228   9.547
 1917WAT     H1 5993   1.042   3.318   9.566
 1917WAT     H2 5994   1.053   3.158   9.597
 1918WAT      O 5995   1.286   9.337   7.410
 1918WAT     H1 5996   1.264   9.388   7.493
 1918WAT     H2 5997   1.336   9.395   7.346
 1919WAT      O 5998   7.898   8.326   4.723
 1919WAT     H1 5999   7.904   8.354   4.627
 1919WAT     H2 6000   7.880   8.406   4.780
 1920WAT      O 6001   9.616   7.831   0.415
 1920WAT     H1 6002   9.528   7.808   0.373
 1920WAT     H2 6003   9.600   7.879   0.501
 1921WAT      O 6004   3.929   0.112   9.733
 1921WAT     H1 6005   3.982   0.043   9.683
 1921WAT     H2 6006   3.835   0.114   9.699
 1922WAT      O 6007   2.760   8.854   2.406
 1922WAT     H1 6008   2.786   8.950   2.394
 1922WAT     H2 6009   2.763   8.831   2.503
 1923WAT      O 6010   8.147   6.719   2.991
 1923WAT     H1 6011   8.210   6.707   2.914
 1923WAT     H2 6012   8.199   6.749   3.072
 1924WAT      O 6013   3.629   2.801   9.448
 1924WAT     H1 6014   3.594   2.773   9.538
 1924WAT     H2 6015   3.710   2.746   9.426
 1925WAT      O 6016   4.518   5.834   7.428
 1925WAT     H1 6017   4.590   5.803   7.490
 1925WAT     H2 6018   4.433   5.848   7.479
 1926WAT      O 6019   3.188   4.646   3.362
 1926WAT     H1 6020   3.108   4.626   3.420
 1926WAT     H2 6021   3.191   4.744   3.343
 1927WAT      O 6022   8.232   8.405   6.039
 1927WAT     H1 6023   8.206   8.501   6.043
 1927WAT     H2 6024   8.184   8.360   5.964
 1928WAT      O 6025   5.303   0.529   1.765
 1928WAT     H1 6026   5.348   0.577   1.839
 1928WAT     H2 6027   5.354   0.445   1.743
 1929WAT      O 6028   4.021   1.525   1.569
 1929WAT     H1 6029   4.043   1.556   1.476
 1929WAT     H2 6030   3.922   1.517   1.579
 1930WAT      O 6031   2.464   3.291   3.639
 1930WAT     H1 6032   2.514   3.360   3.586
 1930WAT     H2 6033   2.372   3.280   3.599
 1931WAT      O 6034   0.110   7.313   0.405
 1931WAT     H1 6035   0.152   7.336   0.493
 1931WAT     H2 6036   0.177   7.326   0.332
 1932WAT      O 6037   6.777   1.218   5.309
 1932WAT     H1 6038   6.708   1.263   5.366
 1932WAT     H2 6039   6.737   1.196   5.220
 1933WAT      O 6040   2.412   2.193   2.329
 1933WAT     H1 6041   2.464   2.274   2.355
 1933WAT     H2 6042   2.470   2.130   2.278
 1934WAT      O 6043   9.571   2.215   4.441
 1934WAT     H1 6044   9.645   2.160   4.479
 1934WAT     H2 6045   9.604   2.267   4.362
 1935WAT      O 6046   0.118   6.946   8.171
 1935WAT     H1 6047   0.195   7.004   8.199
 1935WAT     H2 6048   0.093   6.886   8.247
 1936WAT      O 6049   4.408   0.573   4.064
 1936WAT     H1 6050   4.430   0.649   4.004
 1936WAT     H2 6051   4.473   0.499   4.050
 1937WAT      O 6052   2.916   9.665   6.365
 1937WAT     H1 6053   2.932   9.567   6.378
 1937WAT     H2 6054   2.826   9.678   6.322
 1938WAT      O 6055   7.630   5.320   5.448
 1938WAT     H1 6056   7.655   5.387   5.517
 1938WAT     H2 6057   7.713   5.286   5.403
 1939WAT      O 6058   8.847   0.985   1.646
 1939WAT     H1 6059   8.797   1.070   1.662
 1939WAT     H2 6060   8.944   1.005   1.634
 1940WAT      O 6061   7.360   0.902   6.272
 1940WAT     H1 6062   7.403   0.910   6.362
 1940WAT     H2 6063   7.325   0.991   6.244
 1941WAT      O 6064   1.711   8.032   3.091
 1941WAT     H1 6065   1.776   8.100   3.126
 1941WAT     H2 6066   1.630   8.078   3.056
 1942WAT      O 6067   9.242   8.014   1.742
 1942WAT     H1 6068   9.257   7.915   1.740
 1942WAT     H2 6069   9.248   8.046   1.837
 1943WAT      O 6070   6.458   7.692   4.332
 1943WAT     H1 6071   6.438   7.744   4.415
 1943WAT     H2 6072   6.387   7.710   4.263
 1944WAT      O 6073   6.012   5.506   1.930
 1944WAT     H1 6074   5.930   5.454   1.957
 1944WAT     H2 6075   6.046   5.473   1.842
 1945WAT      O 6076   4.475   8.298   4.752
 1945WAT     H1 6077   4.433   8.374   4.801
 1945WAT     H2 6078   4.560   8.329   4.710
 1946WAT      O 6079   8.709   6.133   5.986
 1946WAT     H1 6080   8.763   6.053   6.013
 1946WAT     H2 6081   8.730   6.210   6.045
 1947WAT      O 6082   7.347   1.244   5.760
 1947WAT     H1 6083   7.259   1.208   5.727
 1947WAT     H2 6084   7.422   1.194   5.716
 1948WAT      O 6085   7.996   4.034   6.666
 1948WAT     H1 6086   7.934   4.111   6.648
 1948WAT     H2 6087   8.075   4.040   6.605
 1949WAT      O 6088   7.953   0.734   0.971
 1949WAT     H1 6089   8.035   0.705   0.922
 1949WAT     H2 6090   7.931   0.668   1.043
 1950WAT      O 6091   8.711   3.585   1.131
 1950WAT     H1 6092   8.782   3.532   1.177
 1950WAT     H2 6093   8.625   3.575   1.181
 1951WAT      O 6094   6.877   9.367   9.324
 1951WAT     H1 6095   6.853   9.274   9.294
 1951WAT     H2 6096   6.795   9.424   9.325
 1952WAT      O 6097   5.106   2.193   4.170
 1952WAT     H1 6098   5.088   2.284   4.206
 1952WAT     H2 6099   5.053   2.126   4.222
 1953WAT      O 6100   4.012   4.689   1.697
 1953WAT     H1 6101   4.075   4.754   1.739
 1953WAT     H2 6102   4.034   4.597   1.729
 1954WAT      O 6103   4.421   2.001   4.191
 1954WAT     H1 6104   4.476   2.064   4.136
 1954WAT     H2 6105   4.367   2.054   4.258
 1955WAT      O 6106   2.348   5.811   5.622
 1955WAT     H1 6107   2.328   5.908   5.634
 1955WAT     H2 6108   2.408   5.799   5.544
 1956WAT      O 6109   2.877   8.810   6.156
 1956WAT     H1 6110   2.906   8.892   6.205
 1956WAT     H2 6111   2.928   8.731   6.190
 1957WAT      O 6112   5.021   3.714   3.573
 1957WAT     H1 6113   4.931   3.679   3.547
 1957WAT     H2 6114   5.010   3.787   3.641
 1958WAT      O 6115   9.110   9.731   4.508
 1958WAT     H1 6116   9.093   9.786   4.590
 1958WAT     H2 6117   9.092   9.635   4.528
 1959WAT      O 6118   4.094   2.520   0.750
 1959WAT     H1 6119   4.022   2.585   0.775
 1959WAT     H2 6120   4.077   2.433   0.796
 1960WAT      O 6121   9.800   4.077   7.864
 1960WAT     H1 6122   9.718   4.023   7.843
 1960WAT     H2 6123   9.864   4.021   7.916
 1961WAT      O 6124   5.155   2.935   7.619
 1961WAT     H1 6125   5.114   3.019   7.585
 1961WAT     H2 6126   5.180   2.876   7.542
 1962WAT      O 6127   1.166   2.533   1.987
 1962WAT     H1 6128   1.252   2.513   2.033
 1962WAT     H2 6129   1.183   2.562   1.893
 1963WAT      O 6130   6.897   5.532   7.109
 1963WAT     H1 6131   6.821   5.504   7.167
 1963WAT     H2 6132   6.940   5.451   7.070
 1964WAT      O 6133   8.597   3.310   7.253
 1964WAT     H1 6134   8.553   3.252   7.184
 1964WAT     H2 6135   8.686   3.340   7.220
 1965WAT      O 6136   2.033   8.457   4.605
 1965WAT     H1 6137   2.046   8.427   4.700
 1965WAT     H2 6138   2.114   8.506   4.575
 1966WAT      O 6139   0.196   8.616   8.242
 1966WAT     H1 6140   0.189   8.586   8.147
 1966WAT     H2 6141   0.132   8.691   8.259
 1967WAT      O 6142   0.153   0.359   8.188
 1967WAT     H1 6143   0.232   0.409   8.154
 1967WAT     H2 6144   0.070   0.413   8.174
 1968WAT      O 6145   2.822   8.481   0.758
 1968WAT     H1 6146   2.812   8.386   0.788
 1968WAT     H2 6147   2.880   8.485   0.677
 1969WAT      O 6148   9.518   4.004   1.940
 1969WAT     H1 6149   9.466   4.071   1.887
 1969WAT     H2 6150   9.615   4.013   1.918
 1970WAT      O 6151   7.905   0.353   9.363
 1970WAT     H1 6152   7.840   0.283   9.334
 1970WAT     H2 6153   7.931   0.409   9.285
 1971WAT      O 6154   6.647   1.042   5.674
 1971WAT     H1 6155   6.654   1.086   5.764
 1971WAT     H2 6156   6.555   1.059   5.637
 1972WAT      O 6157   3.249   9.198   6.524
 1972WAT     H1 6158   3.153   9.217   6.545
 1972WAT     H2 6159   3.301   9.193   6.609
 1973WAT      O 6160   8.066   4.800   3.503
 1973WAT     H1 6161   8.113   4.882   3.536
 1973WAT     H2 6162   8.127   4.748   3.443
 1974WAT      O 6163   3.018   0.637   0.417
 1974WAT     H1 6164   3.037   0.667   0.324
 1974WAT     H2 6165   3.044   0.541   0.427
 1975WAT      O 6166   0.675   6.152   3.865
 1975WAT     H1 6167   0.715   6.105   3.787
 1975WAT     H2 6168   0.638   6.240   3.836
 1976WAT      O 6169   4.092   9.338   2.565
 1976WAT     H1 6170   4.016   9.388   2.525
 1976WAT     H2 6171   4.058   9.273   2.632
 1977WAT      O 6172   4.031   6.815   7.795
 1977WAT     H1 6173   4.078   6.728   7.810
 1977WAT     H2 6174   3.994   6.849   7.881
 1978WAT      O 6175   0.125   4.359   5.694
 1978WAT     H1 6176   0.150   4.278   5.747
 1978WAT     H2 6177   0.202   4.422   5.691
 1979WAT      O 6178   8.010   0.499   3.079
 1979WAT     H1 6179   8.107   0.522   3.071
 1979WAT     H2 6180   7.955   0.572   3.039
 1980WAT      O 6181   2.719   8.531   3.714
 1980WAT     H1 6182   2.620   8.537   3.698
 1980WAT     H2 6183   2.760   8.621   3.699
 1981WAT      O 6184   3.638   8.966   1.346
 1981WAT     H1 6185   3.559   8.908   1.369
 1981WAT     H2 6186   3.702   8.966   1.423
 1982WAT      O 6187   0.654   9.057   5.440
 1982WAT     H1 6188   0.620   9.093   5.527
 1982WAT     H2 6189   0.580   9.014   5.390
 1983WAT      O 6190   4.320   2.639   0.876
 1983WAT     H1 6191   4.237   2.612   0.827
 1983WAT     H2 6192   4.371   2.557   0.902
 1984WAT      O 6193   0.167   9.590   0.844
 1984WAT     H1 6194   0.120   9.503   0.830
 1984WAT     H2 6195   0.145   9.653   0.770
 1985WAT      O 6196   0.824   0.969   0.408
 1985WAT     H1 6197   0.824   1.036   0.334
 1985WAT     H2 6198   0.745   0.908   0.398
 1986WAT      O 6199   8.679   6.404   9.263
 1986WAT     H1 6200   8.586   6.400   9.226
 1986WAT     H2 6201   8.694   6.494   9.305
 1987WAT      O 6202   6.379   9.240   3.319
 1987WAT     H1 6203   6.388   9.272   3.413
 1987WAT     H2 6204   6.352   9.316   3.260
 1988WAT      O 6205   2.395   6.530   4.231
 1988WAT     H1 6206   2.492   6.551   4.238
 1988WAT     H2 6207   2.371   6.457   4.294
 1989WAT      O 6208   2.945   9.486   5.588
 1989WAT     H1 6209   2.845   9.498   5.587
 1989WAT     H2 6210   2.972   9.450   5.677
 1990WAT      O 6211   0.478   0.786   0.838
 1990WAT     H1 6212   0.381   0.768   0.854
 1990WAT     H2 6213   0.518   0.711   0.785
 1991WAT      O 6214   3.577   2.749   6.854
 1991WAT     H1 6215   3.675   2.730   6.867
 1991WAT     H2 6216   3.566   2.817   6.782
 1992WAT      O 6217   2.223   2.744   9.497
 1992WAT     H1 6218   2.229   2.757   9.596
 1992WAT     H2 6219   2.295   2.798   9.453
 1993WAT      O 6220   9.504   6.337   9.757
 1993WAT     H1 6221   9.590   6.332   9.807
 1993WAT     H2 6222   9.449   6.255   9.776
 1994WAT      O 6223   9.829   5.029   0.963
 1994WAT     H1 6224   9.891   4.995   1.033
 1994WAT     H2 6225   9.736   4.997   0.981
 1995WAT      O 6226   1.379   6.468   5.684
 1995WAT     H1 6227   1.331   6.381   5.675
 1995WAT     H2 6228   1.478   6.451   5.683
 1996WAT      O 6229   6.135   6.760   2.368
 1996WAT     H1 6230   6.036   6.746   2.360
 1996WAT     H2 6231   6.153   6.853   2.403
 1997WAT      O 6232   2.306   8.174   9.723
 1997WAT     H1 6233   2.303   8.096   9.660
 1997WAT     H2 6234   2.262   8.150   9.809
 1998WAT      O 6235   0.023   6.937   4.762
 1998WAT     H1 6236   0.119   6.919   4.739
 1998WAT     H2 6237   0.013   7.032   4.791
 1999WAT      O 6238   9.752   9.557   8.248
 1999WAT     H1 6239   9.741   9.468   8.202
 1999WAT     H2 6240   9.664   9.584   8.288
 2000WAT      O 6241   3.136   9.003   3.135
 2000WAT     H1 6242   3.070   9.052   3.077
 2000WAT     H2 6243   3.125   8.904   3.122
 2001WAT      O 6244   0.607   3.785   2.620
 2001WAT     H1 6245   0.635   3.810   2.528
 2001WAT     H2 6246   0.609   3.866   2.679
 2002WAT      O 6247   5.812   2.743   1.770
 2002WAT     H1 6248   5.724   2.773   1.733
 2002WAT     H2 6249   5.798   2.705   1.861
 2003WAT      O 6250   2.083   0.290   9.302
 2003WAT     H1 6251   2.116   0.236   9.224
 2003WAT     H2 6252   1.998   0.249   9.337
 2004WAT      O 6253   5.132   0.318   5.076
 2004WAT     H1 6254   5.118   0.280   4.985
 2004WAT     H2 6255   5.044   0.346   5.115
 2005WAT      O 6256   6.241   1.459   4.166
 2005WAT     H1 6257   6.190   1.392   4.112
 2005WAT     H2 6258   6.181   1.537   4.186
 2006WAT      O 6259   6.492   6.769   6.107
 2006WAT     H1 6260   6.403   6.739   6.072
 2006WAT     H2 6261   6.484   6.862   6.143
 2007WAT      O 6262   5.268   8.533   4.841
 2007WAT     H1 6263   5.178   8.555   4.879
 2007WAT     H2 6264   5.271   8.437   4.815
 2008WAT      O 6265   9.470   3.415   7.073
 2008WAT     H1 6266   9.538   3.401   7.146
 2008WAT     H2 6267   9.512   3.467   6.999
 2009WAT      O 6268   9.167   4.670   0.834
 2009WAT     H1 6269   9.250   4.711   0.873
 2009WAT     H2 6270   9.146   4.716   0.747
 2010WAT      O 6271   0.321   7.151   6.093
 2010WAT     H1 6272   0.323   7.214   6.171
 2010WAT     H2 6273   0.365   7.194   6.014
 2011WAT      O 6274   4.472   1.330   3.370
 2011WAT     H1 6275   4.489   1.233   3.389
 2011WAT     H2 6276   4.558   1.381   3.379
 2012WAT      O 6277   6.778   1.563   1.053
 2012WAT     H1 6278   6.830   1.592   1.134
 2012WAT     H2 6279   6.716   1.489   1.078
 2013WAT      O 6280   0.475   3.016   6.049
 2013WAT     H1 6281   0.438   3.050   6.135
 2013WAT     H2 6282   0.427   3.059   5.973
 2014WAT      O 6283   9.355   9.427   1.568
 2014WAT     H1 6284   9.455   9.427   1.561
 2014WAT     H2 6285   9.326   9.501   1.629
 2015WAT      O 6286   3.754   0.986   7.961
 2015WAT     H1 6287   3.680   1.053   7.952
 2015WAT     H2 6288   3.801   1.000   8.049
 2016WAT      O 6289   5.973   0.530   0.379
 2016WAT     H1 6290   5.969   0.630   0.372
 2016WAT     H2 6291   5.895   0.490   0.332
 2017WAT      O 6292   3.421   1.768   8.243
 2017WAT     H1 6293   3.497   1.814   8.198
 2017WAT     H2 6294   3.372   1.833   8.302
 2018WAT      O 6295   1.748   8.273   4.686
 2018WAT     H1 6296   1.791   8.270   4.595
 2018WAT     H2 6297   1.745   8.181   4.724
 2019WAT      O 6298   7.671   8.077   2.809
 2019WAT     H1 6299   7.645   8.120   2.723
 2019WAT     H2 6300   7.652   7.979   2.805
 2020WAT      O 6301   2.427   6.153   3.217
 2020WAT     H1 6302   2.374   6.237   3.201
 2020WAT     H2 6303   2.378   6.075   3.178
 2021WAT      O 6304   8.723   3.322   3.047
 2021WAT     H1 6305   8.640   3.365   3.082
 2021WAT     H2 6306   8.709   3.223   3.041
 2022WAT      O 6307   8.666   2.437   0.617
 2022WAT     H1 6308   8.696   2.384   0.697
 2022WAT     H2 6309   8.740   2.496   0.587
 2023WAT      O 6310   6.096   3.607   4.305
 2023WAT     H1 6311   6.146   3.677   4.255
 2023WAT     H2 6312   6.155   3.570   4.378
 2024WAT      O 6313   3.046   9.136   0.846
 2024WAT     H1 6314   3.134   9.145   0.893
 2024WAT     H2 6315   3.025   9.222   0.798
 2025WAT      O 6316   6.296   4.341   8.097
 2025WAT     H1 6317   6.310   4.340   8.196
 2025WAT     H2 6318   6.377   4.377   8.052
 2026WAT      O 6319   9.681   0.375   8.499
 2026WAT     H1 6320   9.703   0.467   8.532
 2026WAT     H2 6321   9.588   0.375   8.461
 2027WAT      O 6322   9.376   4.610   8.635
 2027WAT     H1 6323   9.407   4.541   8.571
 2027WAT     H2 6324   9.304   4.572   8.694
 2028WAT      O 6325   0.182   7.346   7.840
 2028WAT     H1 6326   0.101   7.291   7.860
 2028WAT     H2 6327   0.259   7.285   7.819
 2029WAT      O 6328   5.073   0.677   4.189
 2029WAT     H1 6329   4.979   0.659   4.220
 2029WAT     H2 6330   5.075   0.762   4.136
 2030WAT      O 6331   1.908   7.258   8.208
 2030WAT     H1 6332   1.879   7.271   8.303
 2030WAT     H2 6333   1.862   7.178   8.169
 2031WAT      O 6334   6.758   7.064   8.630
 2031WAT     H1 6335   6.791   7.066   8.725
 2031WAT     H2 6336   6.660   7.049   8.630
 2032WAT      O 6337   2.712   3.925   2.276
 2032WAT     H1 6338   2.635   3.862   2.267
 2032WAT     H2 6339   2.682   4.019   2.258
 2033WAT      O 6340   6.804   9.576   4.779
 2033WAT     H1 6341   6.790   9.526   4.694
 2033WAT     H2 6342   6.716   9.607   4.815
 2034WAT      O 6343   4.829   4.128   9.806
 2034WAT     H1 6344   4.791   4.203   9.751
 2034WAT     H2 6345   4.770   4.048   9.798
 2035WAT      O 6346   3.326   1.345   6.777
 2035WAT     H1 6347   3.387   1.306   6.708
 2035WAT     H2 6348   3.298   1.437   6.750
 2036WAT      O 6349   7.620   3.094   5.757
 2036WAT     H1 6350   7.536   3.057   5.719
 2036WAT     H2 6351   7.627   3.191   5.734
 2037WAT      O 6352   0.499   2.152   2.273
 2037WAT     H1 6353   0.572   2.092   2.239
 2037WAT     H2 6354   0.412   2.102   2.271
 2038WAT      O 6355   1.406   6.207   3.203
 2038WAT     H1 6356   1.493   6.214   3.153
 2038WAT     H2 6357   1.361   6.121   3.179
 2039WAT      O 6358   3.801   0.530   7.040
 2039WAT     H1 6359   3.728   0.486   7.092
 2039WAT     H2 6360   3.889   0.490   7.067
 2040WAT      O 6361   2.796   0.535   1.586
 2040WAT     H1 6362   2.709   0.562   1.544
 2040WAT     H2 6363   2.845   0.474   1.524
 2041WAT      O 6364   3.875   4.723   3.768
 2041WAT     H1 6365   3.863   4.803   3.826
 2041WAT     H2 6366   3.803   4.656   3.788
 2042WAT      O 6367   1.514   0.653   1.518
 2042WAT     H1 6368   1.597   0.614   1.478
 2042WAT     H2 6369   1.439   0.648   1.451
 2043WAT      O 6370   2.561   3.115   4.056
 2043WAT     H1 6371   2.554   3.180   3.980
 2043WAT     H2 6372   2.479   3.121   4.112
 2044WAT      O 6373   7.647   9.545   5.975
 2044WAT     H1 6374   7.557   9.547   6.019
 2044WAT     H2 6375   7.651   9.468   5.910
 2045WAT      O 6376   7.265   2.636   6.097
 2045WAT     H1 6377   7.210   2.715   6.126
 2045WAT     H2 6378   7.207   2.573   6.045
 2046WAT      O 6379   6.686   8.201   6.314
 2046WAT     H1 6380   6.749   8.209   6.237
 2046WAT     H2 6381   6.638   8.288   6.326
 2047WAT      O 6382   2.466   9.762   5.500
 2047WAT     H1 6383   2.400   9.836   5.517
 2047WAT     H2 6384   2.515   9.781   5.415
 2048WAT      O 6385   8.021   5.011   1.043
 2048WAT     H1 6386   8.052   4.918   1.021
 2048WAT     H2 6387   8.031   5.070   0.963
 2049WAT      O 6388   7.770   4.023   2.158
 2049WAT     H1 6389   7.742   4.005   2.063
 2049WAT     H2 6390   7.771   4.122   2.174
 2050WAT      O 6391   3.739   7.771   5.962
 2050WAT     H1 6392   3.702   7.831   6.033
 2050WAT     H2 6393   3.832   7.743   5.987
 2051WAT      O 6394   5.610   8.305   1.176
 2051WAT     H1 6395   5.583   8.263   1.263
 2051WAT     H2 6396   5.679   8.248   1.132
 2052WAT      O 6397   3.814   8.097   1.950
 2052WAT     H1 6398   3.822   8.125   2.046
 2052WAT     H2 6399   3.880   8.024   1.931
 2053WAT      O 6400   9.663   4.849   7.393
 2053WAT     H1 6401   9.629   4.879   7.304
 2053WAT     H2 6402   9.727   4.917   7.429
 2054WAT      O 6403   4.703   4.883   0.322
 2054WAT     H1 6404   4.741   4.794   0.346
 2054WAT     H2 6405   4.632   4.872   0.253
 2055WAT      O 6406   1.011   7.123   3.949
 2055WAT     H1 6407   1.019   7.040   4.005
 2055WAT     H2 6408   1.035   7.203   4.005
 2056WAT      O 6409   7.906   8.114   7.262
 2056WAT     H1 6410   7.976   8.156   7.204
 2056WAT     H2 6411   7.838   8.182   7.288
 2057WAT      O 6412   8.704  -0.000   4.473
 2057WAT     H1 6413   8.772  -0.025   4.403
 2057WAT     H2 6414   8.621   0.034   4.428
 2058WAT      O 6415   1.381   6.482   7.737
 2058WAT     H1 6416   1.395   6.576   7.771
 2058WAT     H2 6417   1.447   6.463   7.664
 2059WAT      O 6418   0.998   7.534   7.705
 2059WAT     H1 6419   1.036   7.609   7.759
 2059WAT     H2 6420   1.029   7.447   7.742
 2060WAT      O 6421   3.999   3.106   5.042
 2060WAT     H1 6422   4.019   3.008   5.045
 2060WAT     H2 6423   3.959   3.130   4.953
 2061WAT      O 6424   2.902   2.033   4.334
 2061WAT     H1 6425   2.913   1.944   4.289
 2061WAT     H2 6426   2.875   2.018   4.429
 2062WAT      O 6427   1.010   3.545   2.438
 2062WAT     H1 6428   0.963   3.597   2.367
 2062WAT     H2 6429   1.089   3.499   2.399
 2063WAT      O 6430   8.318   3.440   5.485
 2063WAT     H1 6431   8.410   3.425   5.521
 2063WAT     H2 6432   8.267   3.353   5.486
 2064WAT      O 6433   0.953   8.683   2.454
 2064WAT     H1 6434   0.951   8.677   2.354
 2064WAT     H2 6435   1.037   8.727   2.483
 2065WAT      O 6436   6.566   7.437   4.295
 2065WAT     H1 6437   6.521   7.527   4.291
 2065WAT     H2 6438   6.623   7.432   4.377
 2066WAT      O 6439   0.366   4.752   7.346
 2066WAT     H1 6440   0.390   4.835   7.396
 2066WAT     H2 6441   0.268   4.736   7.354
 2067WAT      O 6442   8.932   6.188   5.724
 2067WAT     H1 6443   9.002   6.198   5.654
 2067WAT     H2 6444   8.927   6.093   5.754
 2068WAT      O 6445   3.173   3.175   3.715
 2068WAT     H1 6446   3.183   3.100   3.781
 2068WAT     H2 6447   3.154   3.137   3.625
 2069WAT      O 6448   4.347   7.560   1.986
 2069WAT     H1 6449   4.377   7.552   2.081
 2069WAT     H2 6450   4.370   7.651   1.952
 2070WAT      O 6451   1.766   5.452   6.389
 2070WAT     H1 6452   1.799   5.491   6.475
 2070WAT     H2 6453   1.672   5.420   6.402
 2071WAT      O 6454   5.839   3.448   3.530
 2071WAT     H1 6455   5.749   3.491   3.530
 2071WAT     H2 6456   5.896   3.490   3.459
 2072WAT      O 6457   4.682   7.244   2.384
 2072WAT     H1 6458   4.671   7.263   2.482
 2072WAT     H2 6459   4.719   7.325   2.338
 2073WAT      O 6460   4.752   5.417   7.271
 2073WAT     H1 6461   4.822   5.347   7.252
 2073WAT     H2 6462   4.734   5.469   7.187
 2074WAT      O 6463   9.808   0.692   5.535
 2074WAT     H1 6464   9.723   0.733   5.569
 2074WAT     H2 6465   9.793   0.656   5.443
 2075WAT      O 6466   2.137   7.300   9.513
 2075WAT     H1 6467   2.180   7.377   9.560
 2075WAT     H2 6468   2.196   7.271   9.437
 2076WAT      O 6469   8.576   0.826   5.667
 2076WAT     H1 6470   8.615   0.806   5.757
 2076WAT     H2 6471   8.486   0.783   5.661
 2077WAT      O 6472   0.765   0.581   2.456
 2077WAT     H1 6473   0.734   0.508   2.517
 2077WAT     H2 6474   0.836   0.545   2.395
 2078WAT      O 6475   3.777   7.425   6.773
 2078WAT     H1 6476   3.679   7.436   6.789
 2078WAT     H2 6477   3.802   7.329   6.787
 2079WAT      O 6478   1.782   7.653   3.498
 2079WAT     H1 6479   1.692   7.637   3.539
 2079WAT     H2 6480   1.786   7.746   3.461
 2080WAT      O 6481   5.333   5.911   6.188
 2080WAT     H1 6482   5.427   5.941   6.169
 2080WAT     H2 6483   5.330   5.867   6.277
 2081WAT      O 6484   2.311   0.379   8.762
 2081WAT     H1 6485   2.214   0.357   8.751
 2081WAT     H2 6486   2.344   0.428   8.681
 2082WAT      O 6487   9.281   4.782   6.418
 2082WAT     H1 6488   9.270   4.684   6.437
 2082WAT     H2 6489   9.296   4.831   6.504
 2083WAT      O 6490   7.973   3.127   9.859
 2083WAT     H1 6491   8.012   3.168   9.941
 2083WAT     H2 6492   7.888   3.079   9.882
 2084WAT      O 6493   0.762   6.803   2.335
 2084WAT     H1 6494   0.726   6.773   2.247
 2084WAT     H2 6495   0.862   6.806   2.331
 2085WAT      O 6496   2.503   2.433   5.715
 2085WAT     H1 6497   2.489   2.336   5.697
 2085WAT     H2 6498   2.595   2.460   5.685
 2086WAT      O 6499   5.973   4.858   5.754
 2086WAT     H1 6500   6.005   4.814   5.670
 2086WAT     H2 6501   5.874   4.856   5.757
 2087WAT      O 6502   6.571   6.334   5.010
 2087WAT     H1 6503   6.510   6.311   5.086
 2087WAT     H2 6504   6.587   6.252   4.955
 2088WAT      O 6505   6.125   2.316   7.479
 2088WAT     H1 6506   6.109   2.338   7.383
 2088WAT     H2 6507   6.145   2.400   7.529
 2089WAT      O 6508   4.698   8.845   9.029
 2089WAT     H1 6509   4.755   8.856   8.948
 2089WAT     H2 6510   4.601   8.850   9.004
 2090WAT      O 6511   1.733   2.024   4.442
 2090WAT     H1 6512   1.653   2.071   4.480
 2090WAT     H2 6513   1.757   1.947   4.501
 2091WAT      O 6514   4.482   1.981   8.294
 2091WAT     H1 6515   4.564   2.013   8.343
 2091WAT     H2 6516   4.405   1.976   8.358
 2092WAT      O 6517   2.141   5.142   2.340
 2092WAT     H1 6518   2.169   5.217   2.399
 2092WAT     H2 6519   2.143   5.056   2.391
 2093WAT      O 6520   3.384   3.645   7.485
 2093WAT     H1 6521   3.381   3.548   7.506
 2093WAT     H2 6522   3.464   3.665   7.428
 2094WAT      O 6523   0.564   2.045   3.210
 2094WAT     H1 6524   0.557   1.960   3.263
 2094WAT     H2 6525   0.634   2.035   3.140
 2095WAT      O 6526   1.061   8.294   5.707
 2095WAT     H1 6527   1.121   8.374   5.708
 2095WAT     H2 6528   0.965   8.325   5.709
 2096WAT      O 6529   2.704   0.759   6.111
 2096WAT     H1 6530   2.670   0.722   6.025
 2096WAT     H2 6531   2.642   0.831   6.143
 2097WAT      O 6532   3.879   4.442   8.634
 2097WAT     H1 6533   3.783   4.422   8.611
 2097WAT     H2 6534   3.911   4.519   8.579
 2098WAT      O 6535   0.996   7.689   3.520
 2098WAT     H1 6536   1.050   7.754   3.573
 2098WAT     H2 6537   1.019   7.697   3.423
 2099WAT      O 6538   7.739   8.405   4.067
 2099WAT     H1 6539   7.645   8.369   4.072
 2099WAT     H2 6540   7.752   8.472   4.141
 2100WAT      O 6541   6.582   3.725   2.150
 2100WAT     H1 6542   6.673   3.710   2.189
 2100WAT     H2 6543   6.543   3.638   2.121
 2101WAT      O 6544   0.152   0.099   8.831
 2101WAT     H1 6545   0.081   0.034   8.806
 2101WAT     H2 6546   0.114   0.192   8.829
 2102WAT      O 6547   1.483   3.699   3.536
 2102WAT     H1 6548   1.388   3.714   3.564
 2102WAT     H2 6549   1.539   3.679   3.616
 2103WAT      O 6550   4.877   7.715   3.652
 2103WAT     H1 6551   4.856   7.696   3.556
 2103WAT     H2 6552   4.890   7.814   3.664
 2104WAT      O 6553   1.890   7.984   9.068
 2104WAT     H1 6554   1.827   7.923   9.115
 2104WAT     H2 6555   1.983   7.948   9.075
 2105WAT      O 6556   6.138   9.780   5.663
 2105WAT     H1 6557   6.177   9.801   5.753
 2105WAT     H2 6558   6.100   9.687   5.664
 2106WAT      O 6559   0.789   8.201   7.486
 2106WAT     H1 6560   0.780   8.299   7.464
 2106WAT     H2 6561   0.831   8.154   7.408
 2107WAT      O 6562   4.927   5.262   9.365
 2107WAT     H1 6563   4.903   5.296   9.456
 2107WAT     H2 6564   4.879   5.316   9.296
 2108WAT      O 6565   1.792   3.227   5.338
 2108WAT     H1 6566   1.820   3.260   5.247
 2108WAT     H2 6567   1.772   3.305   5.397
 2109WAT      O 6568   1.200   1.429   8.321
 2109WAT     H1 6569   1.287   1.382   8.312
 2109WAT     H2 6570   1.168   1.456   8.230
 2110WAT      O 6571   3.347   2.530   9.320
 2110WAT     H1 6572   3.348   2.516   9.221
 2110WAT     H2 6573   3.437   2.509   9.358
 2111WAT      O 6574   1.943   5.090   5.221
 2111WAT     H1 6575   2.008   5.060   5.291
 2111WAT     H2 6576   1.856   5.042   5.232
 2112WAT      O 6577   4.021   4.682   4.535
 2112WAT     H1 6578   4.012   4.585   4.559
 2112WAT     H2 6579   3.933   4.717   4.504
 2113WAT      O 6580   7.790   4.738   4.877
 2113WAT     H1 6581   7.819   4.667   4.813
 2113WAT     H2 6582   7.695   4.720   4.904
 2114WAT      O 6583   1.159   6.346   3.335
 2114WAT     H1 6584   1.248   6.342   3.289
 2114WAT     H2 6585   1.171   6.384   3.427
 2115WAT      O 6586   2.911   0.570   8.815
 2115WAT     H1 6587   2.837   0.535   8.757
 2115WAT     H2 6588   2.886   0.560   8.911
 2116WAT      O 6589   2.712   7.889   5.291
 2116WAT     H1 6590   2.668   7.923   5.208
 2116WAT     H2 6591   2.667   7.804   5.320
 2117WAT      O 6592   8.775   3.012   4.665
 2117WAT     H1 6593   8.704   2.944   4.680
 2117WAT     H2 6594   8.852   2.970   4.617
 2118WAT      O 6595   7.367   7.174   5.255
 2118WAT     H1 6596   7.338   7.111   5.327
 2118WAT     H2 6597   7.310   7.159   5.174
 2119WAT      O 6598   1.828   3.856   3.038
 2119WAT     H1 6599   1.804   3.799   3.117
 2119WAT     H2 6600   1.925   3.846   3.018
 2120WAT      O 6601   2.710   4.862   3.901
 2120WAT     H1 6602   2.769   4.831   3.827
 2120WAT     H2 6603   2.618   4.826   3.888
 2121WAT      O 6604   9.179   5.812   5.658
 2121WAT     H1 6605   9.206   5.880   5.590
 2121WAT     H2 6606   9.260   5.780   5.706
 2122WAT      O 6607   8.113   7.809   8.350
 2122WAT     H1 6608   8.170   7.807   8.432
 2122WAT     H2 6609   8.020   7.837   8.374
 2123WAT      O 6610   3.616   9.603   7.974
 2123WAT     H1 6611   3.525   9.643   7.989
 2123WAT     H2 6612   3.666   9.600   8.061
 2124WAT      O 6613   5.844   6.335   7.838
 2124WAT     H1 6614   5.749   6.319   7.812
 2124WAT     H2 6615   5.850   6.408   7.905
 2125WAT      O 6616   9.580   3.870   4.319
 2125WAT     H1 6617   9.502   3.926   4.347
 2125WAT     H2 6618   9.551   3.775   4.312
 2126WAT      O 6619   1.545   2.636   4.768
 2126WAT     H1 6620   1.619   2.573   4.742
 2126WAT     H2 6621   1.463   2.614   4.717
 2127WAT      O 6622   8.565   4.074   8.867
 2127WAT     H1 6623   8.613   4.126   8.938
 2127WAT     H2 6624   8.632   4.024   8.812
 2128WAT      O 6625   1.383   4.881   9.617
 2128WAT     H1 6626   1.435   4.905   9.700
 2128WAT     H2 6627   1.288   4.908   9.629
 2129WAT      O 6628   8.918   4.941   3.540
 2129WAT     H1 6629   8.871   5.025   3.566
 2129WAT     H2 6630   8.882   4.908   3.453
 2130WAT      O 6631   6.774   3.670   4.202
 2130WAT     H1 6632   6.679   3.701   4.194
 2130WAT     H2 6633   6.793   3.649   4.298
 2131WAT      O 6634   7.021   4.797   5.297
 2131WAT     H1 6635   6.931   4.753   5.290
 2131WAT     H2 6636   7.077   4.770   5.218
 2132WAT      O 6637   4.573   6.438   2.542
 2132WAT     H1 6638   4.608   6.401   2.628
 2132WAT     H2 6639   4.650   6.467   2.484
 2133WAT      O 6640   0.296   8.984   1.047
 2133WAT     H1 6641   0.389   9.015   1.066
 2133WAT     H2 6642   0.232   9.036   1.104
 2134WAT      O 6643   7.458   8.574   4.210
 2134WAT     H1 6644   7.431   8.499   4.271
 2134WAT     H2 6645   7.548   8.609   4.239
 2135WAT      O 6646   2.977   6.783   8.497
 2135WAT     H1 6647   2.996   6.689   8.467
 2135WAT     H2 6648   2.917   6.827   8.431
 2136WAT      O 6649   4.267   8.857   7.453
 2136WAT     H1 6650   4.212   8.802   7.517
 2136WAT     H2 6651   4.364   8.851   7.479
 2137WAT      O 6652   3.595   5.165   4.022
 2137WAT     H1 6653   3.676   5.123   4.064
 2137WAT     H2 6654   3.609   5.264   4.015
 2138WAT      O 6655   2.383   6.374   6.458
 2138WAT     H1 6656   2.363   6.466   6.491
 2138WAT     H2 6657   2.333   6.307   6.514
 2139WAT      O 6658   4.403   9.141   2.810
 2139WAT     H1 6659   4.322   9.183   2.849
 2139WAT     H2 6660   4.485   9.189   2.842
 2140WAT      O 6661   8.620   4.338   0.373
 2140WAT     H1 6662   8.619   4.436   0.392
 2140WAT     H2 6663   8.557   4.318   0.297
 2141WAT      O 6664   0.014   6.046   7.350
 2141WAT     H1 6665   0.101   6.039   7.301
 2141WAT     H2 6666   0.023   6.007   7.441
 2142WAT      O 6667   6.401   2.851   2.965
 2142WAT     H1 6668   6.419   2.765   3.013
 2142WAT     H2 6669   6.413   2.927   3.028
 2143WAT      O 6670   1.972   3.843   4.610
 2143WAT     H1 6671   1.996   3.939   4.623
 2143WAT     H2 6672   1.992   3.816   4.516
 2144WAT      O 6673   7.627   7.798   1.888
 2144WAT     H1 6674   7.640   7.715   1.835
 2144WAT     H2 6675   7.597   7.872   1.827
 2145WAT      O 6676   1.351   3.711   8.979
 2145WAT     H1 6677   1.346   3.614   8.953
 2145WAT     H2 6678   1.371   3.717   9.077
 2146WAT      O 6679   2.305   7.266   8.860
 2146WAT     H1 6680   2.228   7.323   8.887
 2146WAT     H2 6681   2.293   7.236   8.765
 2147WAT      O 6682   5.239   2.806   1.672
 2147WAT     H1 6683   5.238   2.905   1.655
 2147WAT     H2 6684   5.226   2.757   1.586
 2148WAT      O 6685   3.763   6.858   7.654
 2148WAT     H1 6686   3.844   6.825   7.702
 2148WAT     H2 6687   3.780   6.855   7.555
 2149WAT      O 6688   1.439   3.145   5.607
 2149WAT     H1 6689   1.443   3.045   5.613
 2149WAT     H2 6690   1.351   3.177   5.640
 2150WAT      O 6691   2.394   3.450   8.639
 2150WAT     H1 6692   2.438   3.390   8.572
 2150WAT     H2 6693   2.447   3.535   8.648
 2151WAT      O 6694   2.832   1.387   2.138
 2151WAT     H1 6695   2.915   1.438   2.114
 2151WAT     H2 6696   2.776   1.443   2.199
 2152WAT      O 6697   1.759   2.420   7.505
 2152WAT     H1 6698   1.830   2.351   7.493
 2152WAT     H2 6699   1.749   2.473   7.421
 2153WAT      O 6700   0.399   9.525   8.343
 2153WAT     H1 6701   0.441   9.435   8.358
 2153WAT     H2 6702   0.309   9.513   8.301
 2154WAT      O 6703   3.658   3.556   1.711
 2154WAT     H1 6704   3.696   3.648   1.726
 2154WAT     H2 6705   3.577   3.563   1.652
 2155WAT      O 6706   8.377   8.919   2.732
 2155WAT     H1 6707   8.308   8.875   2.789
 2155WAT     H2 6708   8.347   9.012   2.708
 2156WAT      O 6709   9.675   0.180   8.683
 2156WAT     H1 6710   9.708   0.090   8.657
 2156WAT     H2 6711   9.646   0.231   8.602
 2157WAT      O 6712   0.659   2.796   3.620
 2157WAT     H1 6713   0.696   2.729   3.556
 2157WAT     H2 6714   0.635   2.880   3.571
 2158WAT      O 6715   0.464   8.144   9.115
 2158WAT     H1 6716   0.523   8.172   9.039
 2158WAT     H2 6717   0.441   8.047   9.106
 2159WAT      O 6718   8.121   3.080   6.118
 2159WAT     H1 6719   8.094   2.984   6.101
 2159WAT     H2 6720   8.126   3.096   6.216
 2160WAT      O 6721   4.893   3.386   3.575
 2160WAT     H1 6722   4.988   3.363   3.554
 2160WAT     H2 6723   4.883   3.397   3.674
 2161WAT      O 6724   8.554   8.731   2.676
 2161WAT     H1 6725   8.612   8.759   2.599
 2161WAT     H2 6726   8.485   8.800   2.693
 2162WAT      O 6727   1.852   0.663   1.877
 2162WAT     H1 6728   1.797   0.717   1.813
 2162WAT     H2 6729   1.925   0.720   1.915
 2163WAT      O 6730   0.741   8.199   1.338
 2163WAT     H1 6731   0.665   8.157   1.288
 2163WAT     H2 6732   0.718   8.294   1.359
 2164WAT      O 6733   4.888   5.323   9.669
 2164WAT     H1 6734   4.953   5.368   9.730
 2164WAT     H2 6735   4.847   5.245   9.716
 2165WAT      O 6736   5.377   5.492   9.366
 2165WAT     H1 6737   5.330   5.580   9.359
 2165WAT     H2 6738   5.310   5.418   9.370
 2166WAT      O 6739   7.721   0.818   3.145
 2166WAT     H1 6740   7.734   0.917   3.153
 2166WAT     H2 6741   7.759   0.786   3.058
 2167WAT      O 6742   4.447   4.133   1.446
 2167WAT     H1 6743   4.507   4.058   1.474
 2167WAT     H2 6744   4.398   4.169   1.525
 2168WAT      O 6745   6.854   0.082   2.697
 2168WAT     H1 6746   6.817   0.029   2.620
 2168WAT     H2 6747   6.819   0.176   2.692
 2169WAT      O 6748   0.307   1.171   1.771
 2169WAT     H1 6749   0.396   1.150   1.730
 2169WAT     H2 6750   0.247   1.210   1.701
 2170WAT      O 6751   1.340   9.708   9.323
 2170WAT     H1 6752   1.360   9.643   9.396
 2170WAT     H2 6753   1.422   9.720   9.267
 2171WAT      O 6754   6.518   0.391   8.946
 2171WAT     H1 6755   6.531   0.483   8.983
 2171WAT     H2 6756   6.594   0.333   8.974
 2172WAT      O 6757   2.980   4.462   7.585
 2172WAT     H1 6758   2.895   4.505   7.617
 2172WAT     H2 6759   3.038   4.441   7.664
 2173WAT      O 6760   5.557   7.191   3.414
 2173WAT     H1 6761   5.613   7.190   3.497
 2173WAT     H2 6762   5.506   7.278   3.409
 2174WAT      O 6763   4.019   1.167   7.190
 2174WAT     H1 6764   3.975   1.251   7.159
 2174WAT     H2 6765   4.114   1.166   7.158
 2175WAT      O 6766   6.761   7.548   2.163
 2175WAT     H1 6767   6.693   7.521   2.230
 2175WAT     H2 6768   6.841   7.489   2.171
 2176WAT      O 6769   5.583   4.129   5.592
 2176WAT     H1 6770   5.625   4.145   5.503
 2176WAT     H2 6771   5.525   4.207   5.617
 2177WAT      O 6772   8.823   5.706   0.370
 2177WAT     H1 6773   8.910   5.663   0.346
 2177WAT     H2 6774   8.750   5.637   0.367
 2178WAT      O 6775   4.332   2.566   2.361
 2178WAT     H1 6776   4.327   2.571   2.261
 2178WAT     H2 6777   4.345   2.658   2.398
 2179WAT      O 6778   1.235   7.045   7.907
 2179WAT     H1 6779   1.138   7.042   7.885
 2179WAT     H2 6780   1.248   7.083   7.998
 2180WAT      O 6781   0.760   4.259   0.016
 2180WAT     H1 6782   0.794   4.304   0.098
 2180WAT     H2 6783   0.736   4.328  -0.052
 2181WAT      O 6784   3.179   4.461   8.917
 2181WAT     H1 6785   3.137   4.377   8.951
 2181WAT     H2 6786   3.195   4.453   8.819
 2182WAT      O 6787   9.167   3.110   7.739
 2182WAT     H1 6788   9.125   3.042   7.679
 2182WAT     H2 6789   9.222   3.064   7.809
 2183WAT      O 6790   9.718   8.387   4.253
 2183WAT     H1 6791   9.678   8.353   4.168
 2183WAT     H2 6792   9.808   8.427   4.234
 2184WAT      O 6793   3.624   2.964   9.260
 2184WAT     H1 6794   3.629   2.901   9.337
 2184WAT     H2 6795   3.528   2.983   9.238
 2185WAT      O 6796   8.084   2.596   2.383
 2185WAT     H1 6797   8.108   2.687   2.348
 2185WAT     H2 6798   8.133   2.579   2.468
 2186WAT      O 6799   7.851   2.636   7.465
 2186WAT     H1 6800   7.815   2.551   7.503
 2186WAT     H2 6801   7.791   2.712   7.489
 2187WAT      O 6802   1.457   3.114   0.329
 2187WAT     H1 6803   1.550   3.123   0.364
 2187WAT     H2 6804   1.449   3.165   0.243
 2188WAT      O 6805   9.454   4.297   4.588
 2188WAT     H1 6806   9.408   4.330   4.505
 2188WAT     H2 6807   9.386   4.263   4.653
 2189WAT      O 6808   1.262   5.722   1.507
 2189WAT     H1 6809   1.256   5.622   1.500
 2189WAT     H2 6810   1.249   5.750   1.602
 2190WAT      O 6811   4.637   8.226   0.915
 2190WAT     H1 6812   4.675   8.315   0.891
 2190WAT     H2 6813   4.560   8.204   0.855
 2191WAT      O 6814   6.680   2.161   8.353
 2191WAT     H1 6815   6.701   2.177   8.256
 2191WAT     H2 6816   6.693   2.065   8.375
 2192WAT      O 6817   4.353   9.619   6.134
 2192WAT     H1 6818   4.279   9.589   6.074
 2192WAT     H2 6819   4.392   9.704   6.099
 2193WAT      O 6820   3.931   5.824   2.857
 2193WAT     H1 6821   3.852   5.884   2.865
 2193WAT     H2 6822   3.903   5.729   2.865
 2194WAT      O 6823   0.085   4.636   6.394
 2194WAT     H1 6824   0.050   4.619   6.487
 2194WAT     H2 6825   0.009   4.661   6.334
 2195WAT      O 6826   0.173   5.893   1.777
 2195WAT     H1 6827   0.096   5.952   1.805
 2195WAT     H2 6828   0.137   5.804   1.748
 2196WAT      O 6829   6.018   7.553   3.964
 2196WAT     H1 6830   5.992   7.471   4.014
 2196WAT     H2 6831   6.102   7.590   4.003
 2197WAT      O 6832   7.428   7.317   8.709
 2197WAT     H1 6833   7.361   7.389   8.729
 2197WAT     H2 6834   7.458   7.325   8.614
 2198WAT      O 6835   8.780   7.304   9.611
 2198WAT     H1 6836   8.745   7.394   9.586
 2198WAT     H2 6837   8.705   7.248   9.648
 2199WAT      O 6838   8.148   0.363   0.006
 2199WAT     H1 6839   8.198   0.446  -0.021
 2199WAT     H2 6840   8.137   0.362   0.105
 2200WAT      O 6841   6.417   6.890   2.289
 2200WAT     H1 6842   6.329   6.861   2.251
 2200WAT     H2 6843   6.429   6.989   2.274
 2201WAT      O 6844   1.831   6.784   7.942
 2201WAT     H1 6845   1.788   6.833   8.018
 2201WAT     H2 6846   1.902   6.723   7.977
 2202WAT      O 6847   7.687   4.280   9.518
 2202WAT     H1 6848   7.668   4.344   9.445
 2202WAT     H2 6849   7.718   4.193   9.479
 2203WAT      O 6850   6.370   1.462   0.796
 2203WAT     H1 6851   6.338   1.553   0.822
 2203WAT     H2 6852   6.381   1.406   0.879
 2204WAT      O 6853   7.927   2.077   4.203
 2204WAT     H1 6854   7.904   1.983   4.228
 2204WAT     H2 6855   7.856   2.113   4.142
 2205WAT      O 6856   0.639   8.270   9.497
 2205WAT     H1 6857   0.622   8.268   9.595
 2205WAT     H2 6858   0.553   8.255   9.448
 2206WAT      O 6859   2.721   2.610   0.785
 2206WAT     H1 6860   2.731   2.510   0.781
 2206WAT     H2 6861   2.648   2.638   0.723
 2207WAT      O 6862   1.794   1.773   2.792
 2207WAT     H1 6863   1.758   1.680   2.803
 2207WAT     H2 6864   1.892   1.773   2.810
 2208WAT      O 6865   3.888   3.601   8.618
 2208WAT     H1 6866   3.794   3.590   8.650
 2208WAT     H2 6867   3.950   3.602   8.697
 2209WAT      O 6868   2.855   7.577   3.345
 2209WAT     H1 6869   2.898   7.601   3.432
 2209WAT     H2 6870   2.756   7.578   3.356
 2210WAT      O 6871   0.873   3.870   4.242
 2210WAT     H1 6872   0.782   3.858   4.202
 2210WAT     H2 6873   0.887   3.966   4.263
 2211WAT      O 6874   2.037   9.080   9.385
 2211WAT     H1 6875   2.104   9.013   9.418
 2211WAT     H2 6876   2.051   9.167   9.432
 2212WAT      O 6877   8.753   0.518   4.455
 2212WAT     H1 6878   8.816   0.494   4.381
 2212WAT     H2 6879   8.708   0.605   4.434
 2213WAT      O 6880   7.737   6.304   7.156
 2213WAT     H1 6881   7.765   6.400   7.157
 2213WAT     H2 6882   7.812   6.248   7.122
 2214WAT      O 6883   7.242   8.405   0.607
 2214WAT     H1 6884   7.158   8.438   0.651
 2214WAT     H2 6885   7.255   8.308   0.627
 2215WAT      O 6886   2.523   4.158   4.697
 2215WAT     H1 6887   2.506   4.094   4.623
 2215WAT     H2 6888   2.443   4.218   4.707
 2216WAT      O 6889   2.516   5.303   5.128
 2216WAT     H1 6890   2.490   5.360   5.206
 2216WAT     H2 6891   2.596   5.248   5.153
 2217WAT      O 6892   7.477   8.201   9.846
 2217WAT     H1 6893   7.535   8.282   9.833
 2217WAT     H2 6894   7.452   8.193   9.942
 2218WAT      O 6895   7.471   3.129   2.326
 2218WAT     H1 6896   7.553   3.096   2.372
 2218WAT     H2 6897   7.489   3.137   2.228
 2219WAT      O 6898   7.119   6.582   4.529
 2219WAT     H1 6899   7.065   6.614   4.606
 2219WAT     H2 6900   7.090   6.490   4.504
 2220WAT      O 6901   9.186   2.237   7.974
 2220WAT     H1 6902   9.116   2.266   7.909
 2220WAT     H2 6903   9.163   2.270   8.065
 2221WAT      O 6904   5.034   0.384   1.480
 2221WAT     H1 6905   5.100   0.453   1.450
 2221WAT     H2 6906   5.071   0.335   1.560
 2222WAT      O 6907   3.773   1.264   6.988
 2222WAT     H1 6908   3.836   1.341   7.002
 2222WAT     H2 6909   3.684   1.287   7.029
 2223WAT      O 6910   7.611   0.483   2.782
 2223WAT     H1 6911   7.537   0.480   2.849
 2223WAT     H2 6912   7.638   0.578   2.766
 2224WAT      O 6913   1.477   2.772   3.645
 2224WAT     H1 6914   1.415   2.724   3.583
 2224WAT     H2 6915   1.566   2.785   3.601
 2225WAT      O 6916   3.046   7.193   2.876
 2225WAT     H1 6917   3.036   7.093   2.873
 2225WAT     H2 6918   3.127   7.220   2.824
 2226WAT      O 6919   3.084   6.034   6.301
 2226WAT     H1 6920   3.163   6.006   6.246
 2226WAT     H2 6921   3.000   6.008   6.253
 2227WAT      O 6922   5.056   3.230   2.581
 2227WAT     H1 6923   4.965   3.189   2.580
 2227WAT     H2 6924   5.049   3.328   2.563
 2228WAT      O 6925   6.254   3.246   7.714
 2228WAT     H1 6926   6.271   3.295   7.628
 2228WAT     H2 6927   6.212   3.309   7.780
 2229WAT      O 6928   4.576   6.967   5.851
 2229WAT     H1 6929   4.492   7.021   5.845
 2229WAT     H2 6930   4.579   6.902   5.775
 2230WAT      O 6931   4.329   3.289   1.841
 2230WAT     H1 6932   4.375   3.285   1.929
 2230WAT     H2 6933   4.331   3.382   1.806
 2231WAT      O 6934   3.747   7.013   0.173
 2231WAT     H1 6935   3.738   7.055   0.264
 2231WAT     H2 6936   3.837   7.035   0.136
 2232WAT      O 6937   4.887   6.529   5.382
 2232WAT     H1 6938   4.900   6.619   5.340
 2232WAT     H2 6939   4.839   6.539   5.469
 2233WAT      O 6940   7.793   5.249   5.044
 2233WAT     H1 6941   7.835   5.323   5.097
 2233WAT     H2 6942   7.744   5.287   4.966
 2234WAT      O 6943   3.509   1.027   6.105
 2234WAT     H1 6944   3.476   1.025   6.199
 2234WAT     H2 6945   3.434   1.053   6.044
 2235WAT      O 6946   8.637   4.838   3.725
 2235WAT     H1 6947   8.674   4.918   3.770
 2235WAT     H2 6948   8.711   4.776   3.700
 2236WAT      O 6949   9.655   7.829   8.356
 2236WAT     H1 6950   9.563   7.807   8.322
 2236WAT     H2 6951   9.715   7.751   8.340
 2237WAT      O 6952   0.977   9.112   5.089
 2237WAT     H1 6953   0.942   9.196   5.047
 2237WAT     H2 6954   0.947   9.108   5.185
 2238WAT      O 6955   0.236   7.124   4.497
 2238WAT     H1 6956   0.242   7.143   4.595
 2238WAT     H2 6957   0.282   7.196   4.446
 2239WAT      O 6958   7.939   7.281   1.927
 2239WAT     H1 6959   7.898   7.316   1.842
 2239WAT     H2 6960   7.877   7.300   2.003
 2240WAT      O 6961   0.378   8.937   8.396
 2240WAT     H1 6962   0.367   9.035   8.376
 2240WAT     H2 6963   0.439   8.896   8.328
 2241WAT      O 6964   7.436   1.133   9.684
 2241WAT     H1 6965   7.473   1.080   9.607
 2241WAT     H2 6966   7.409   1.070   9.757
 2242WAT      O 6967   5.769   1.863   9.726
 2242WAT     H1 6968   5.799   1.950   9.686
 2242WAT     H2 6969   5.776   1.791   9.657
 2243WAT      O 6970   3.792   4.945   8.537
 2243WAT     H1 6971   3.832   5.036   8.528
 2243WAT     H2 6972   3.803   4.912   8.631
 2244WAT      O 6973   8.034   7.683   2.795
 2244WAT     H1 6974   8.056   7.733   2.711
 2244WAT     H2 6975   7.936   7.665   2.798
 2245WAT      O 6976   4.892   4.935   4.307
 2245WAT     H1 6977   4.877   5.011   4.244
 2245WAT     H2 6978   4.818   4.868   4.297
 2246WAT      O 6979   2.862   5.385   7.909
 2246WAT     H1 6980   2.834   5.407   8.003
 2246WAT     H2 6981   2.805   5.310   7.875
 2247WAT      O 6982   0.954   3.097   6.223
 2247WAT     H1 6983   0.870   3.045   6.213
 2247WAT     H2 6984   0.992   3.084   6.315
 2248WAT      O 6985   0.857   7.933   1.354
 2248WAT     H1 6986   0.758   7.940   1.339
 2248WAT     H2 6987   0.902   8.014   1.316
 2249WAT      O 6988   7.677   0.676   5.625
 2249WAT     H1 6989   7.663   0.611   5.700
 2249WAT     H2 6990   7.591   0.722   5.605
 2250WAT      O 6991   7.475   4.112   7.273
 2250WAT     H1 6992   7.388   4.075   7.241
 2250WAT     H2 6993   7.540   4.038   7.287
 2251WAT      O 6994   1.165   3.811   3.895
 2251WAT     H1 6995   1.205   3.841   3.981
 2251WAT     H2 6996   1.073   3.850   3.885
 2252WAT      O 6997   9.475   2.197   6.269
 2252WAT     H1 6998   9.402   2.145   6.313
 2252WAT     H2 6999   9.555   2.137   6.257
 2253WAT      O 7000   0.865   1.433   8.483
 2253WAT     H1 7001   0.812   1.392   8.557
 2253WAT     H2 7002   0.845   1.531   8.478
 2254WAT      O 7003   5.397   8.230   8.840
 2254WAT     H1 7004   5.479   8.286   8.828
 2254WAT     H2 7005   5.363   8.199   8.751
 2255WAT      O 7006   3.077   2.690   9.009
 2255WAT     H1 7007   3.058   2.780   9.048
 2255WAT     H2 7008   3.091   2.698   8.910
 2256WAT      O 7009   1.805   0.389   8.244
 2256WAT     H1 7010   1.818   0.486   8.261
 2256WAT     H2 7011   1.720   0.359   8.287
 2257WAT      O 7012   8.696   5.755   6.085
 2257WAT     H1 7013   8.680   5.658   6.065
 2257WAT     H2 7014   8.620   5.790   6.140
 2258WAT      O 7015   8.152   7.635   3.861
 2258WAT     H1 7016   8.104   7.685   3.933
 2258WAT     H2 7017   8.244   7.614   3.891
 2259WAT      O 7018   1.681   5.523   4.706
 2259WAT     H1 7019   1.749   5.468   4.755
 2259WAT     H2 7020   1.618   5.463   4.658
 2260WAT      O 7021   0.675   1.220   4.609
 2260WAT     H1 7022   0.581   1.251   4.598
 2260WAT     H2 7023   0.732   1.257   4.536
 2261WAT      O 7024   4.570   3.307   8.802
 2261WAT     H1 7025   4.593   3.367   8.725
 2261WAT     H2 7026   4.585   3.212   8.774
 2262WAT      O 7027   1.584   7.543   9.692
 2262WAT     H1 7028   1.494   7.516   9.656
 2262WAT     H2 7029   1.646   7.464   9.689
 2263WAT      O 7030   4.149   0.480   2.261
 2263WAT     H1 7031   4.157   0.580   2.254
 2263WAT     H2 7032   4.082   0.448   2.194
 2264WAT      O 7033   2.457   8.850   5.113
 2264WAT     H1 7034   2.524   8.910   5.156
 2264WAT     H2 7035   2.375   8.845   5.170
 2265WAT      O 7036   2.281   2.809   0.105
 2265WAT     H1 7037   2.304   2.722   0.150
 2265WAT     H2 7038   2.227   2.864   0.168
 2266WAT      O 7039   7.557   5.614   4.455
 2266WAT     H1 7040   7.514   5.659   4.533
 2266WAT     H2 7041   7.542   5.515   4.462
 2267WAT      O 7042   5.522   5.961   4.396
 2267WAT     H1 7043   5.441   6.018   4.411
 2267WAT     H2 7044   5.541   5.955   4.298
 2268WAT      O 7045   6.196   9.473   2.353
 2268WAT     H1 7046   6.162   9.389   2.309
 2268WAT     H2 7047   6.124   9.512   2.410
 2269WAT      O 7048   9.511   4.277   6.991
 2269WAT     H1 7049   9.521   4.301   7.088
 2269WAT     H2 7050   9.464   4.189   6.983
 2270WAT      O 7051   1.830   3.495   3.225
 2270WAT     H1 7052   1.785   3.422   3.174
 2270WAT     H2 7053   1.769   3.527   3.298
 2271WAT      O 7054   3.213   9.341   4.212
 2271WAT     H1 7055   3.188   9.282   4.289
 2271WAT     H2 7056   3.175   9.432   4.225
 2272WAT      O 7057   5.852   4.803   9.343
 2272WAT     H1 7058   5.855   4.761   9.434
 2272WAT     H2 7059   5.798   4.746   9.281
 2273WAT      O 7060   3.131   1.277   5.928
 2273WAT     H1 7061   3.106   1.327   6.011
 2273WAT     H2 7062   3.158   1.342   5.857
 2274WAT      O 7063   7.632   5.383   4.168
 2274WAT     H1 7064   7.728   5.389   4.139
 2274WAT     H2 7065   7.627   5.382   4.267
 2275WAT      O 7066   8.313   7.395   0.422
 2275WAT     H1 7067   8.256   7.471   0.392
 2275WAT     H2 7068   8.397   7.393   0.368
 2276WAT      O 7069   1.294   7.726   3.420
 2276WAT     H1 7070   1.217   7.713   3.357
 2276WAT     H2 7071   1.269   7.694   3.511
 2277WAT      O 7072   3.582   9.086   6.966
 2277WAT     H1 7073   3.619   9.045   7.050
 2277WAT     H2 7074   3.606   9.183   6.963
 2278WAT      O 7075   9.169   0.601   2.656
 2278WAT     H1 7076   9.185   0.547   2.738
 2278WAT     H2 7077   9.131   0.542   2.584
 2279WAT      O 7078   1.204   6.395   8.190
 2279WAT     H1 7079   1.192   6.475   8.131
 2279WAT     H2 7080   1.230   6.424   8.282
 2280WAT      O 7081   0.730   0.815   7.569
 2280WAT     H1 7082   0.761   0.899   7.613
 2280WAT     H2 7083   0.805   0.749   7.564
 2281WAT      O 7084   4.760   8.712   5.795
 2281WAT     H1 7085   4.757   8.795   5.850
 2281WAT     H2 7086   4.700   8.643   5.837
 2282WAT      O 7087   0.224   5.679   4.970
 2282WAT     H1 7088   0.227   5.779   4.961
 2282WAT     H2 7089   0.132   5.650   4.995
 2283WAT      O 7090   0.155   4.253   1.961
 2283WAT     H1 7091   0.234   4.199   1.991
 2283WAT     H2 7092   0.137   4.236   1.864
 2284WAT      O 7093   8.923   3.454   0.523
 2284WAT     H1 7094   8.935   3.496   0.433
 2284WAT     H2 7095   9.012   3.432   0.562
 2285WAT      O 7096   3.203   3.375   2.734
 2285WAT     H1 7097   3.283   3.407   2.784
 2285WAT     H2 7098   3.225   3.291   2.684
 2286WAT      O 7099   0.858   7.900   4.180
 2286WAT     H1 7100   0.761   7.912   4.201
 2286WAT     H2 7101   0.909   7.891   4.265
 2287WAT      O 7102   2.413   2.806   2.774
 2287WAT     H1 7103   2.433   2.779   2.869
 2287WAT     H2 7104   2.347   2.742   2.735
 2288WAT      O 7105   7.165   6.375   9.391
 2288WAT     H1 7106   7.181   6.296   9.451
 2288WAT     H2 7107   7.220   6.453   9.424
 2289WAT      O 7108   2.219   4.361   7.901
 2289WAT     H1 7109   2.203   4.448   7.948
 2289WAT     H2 7110   2.179   4.287   7.955
 2290WAT      O 7111   7.083   7.316   1.549
 2290WAT     H1 7112   7.004   7.256   1.565
 2290WAT     H2 7113   7.066   7.405   1.593
 2291WAT      O 7114   6.727   7.286   9.898
 2291WAT     H1 7115   6.793   7.276   9.823
 2291WAT     H2 7116   6.646   7.336   9.865
 2292WAT      O 7117   0.083   2.834   9.220
 2292WAT     H1 7118   0.167   2.875   9.256
 2292WAT     H2 7119   0.056   2.757   9.278
 2293WAT      O 7120   4.946   3.356   1.772
 2293WAT     H1 7121   4.990   3.416   1.839
 2293WAT     H2 7122   4.938   3.404   1.684
 2294WAT      O 7123   4.037   1.770   9.485
 2294WAT     H1 7124   3.980   1.740   9.409
 2294WAT     H2 7125   4.117   1.819   9.450
 2295WAT      O 7126   9.695   4.829   3.839
 2295WAT     H1 7127   9.746   4.839   3.754
 2295WAT     H2 7128   9.640   4.746   3.835
 2296WAT      O 7129   9.034   9.238   4.781
 2296WAT     H1 7130   9.037   9.294   4.698
 2296WAT     H2 7131   8.993   9.291   4.856
 2297WAT      O 7132   2.936   5.800   5.170
 2297WAT     H1 7133   2.901   5.827   5.081
 2297WAT     H2 7134   2.879   5.840   5.242
 2298WAT      O 7135   6.776   3.202   2.566
 2298WAT     H1 7136   6.774   3.109   2.528
 2298WAT     H2 7137   6.865   3.219   2.607
 2299WAT      O 7138   0.568   1.186   5.850
 2299WAT     H1 7139   0.562   1.248   5.772
 2299WAT     H2 7140   0.558   1.091   5.819
 2300WAT      O 7141   7.644   0.920   2.720
 2300WAT     H1 7142   7.651   1.004   2.667
 2300WAT     H2 7143   7.690   0.846   2.672
 2301WAT      O 7144   1.637   8.646   5.743
 2301WAT     H1 7145   1.615   8.649   5.840
 2301WAT     H2 7146   1.667   8.554   5.718
 2302WAT      O 7147   2.168   4.285   6.654
 2302WAT     H1 7148   2.143   4.303   6.559
 2302WAT     H2 7149   2.263   4.254   6.658
 2303WAT      O 7150   6.870   8.974   1.744
 2303WAT     H1 7151   6.801   8.910   1.710
 2303WAT     H2 7152   6.856   9.064   1.702
 2304WAT      O 7153   0.600   7.223   3.792
 2304WAT     H1 7154   0.654   7.162   3.734
 2304WAT     H2 7155   0.535   7.169   3.845
 2305WAT      O 7156   9.059   0.205   2.074
 2305WAT     H1 7157   9.073   0.130   2.009
 2305WAT     H2 7158   9.127   0.276   2.058
 2306WAT      O 7159   1.843   4.912   6.766
 2306WAT     H1 7160   1.788   4.837   6.730
 2306WAT     H2 7161   1.928   4.877   6.804
 2307WAT      O 7162   8.017   5.239   7.548
 2307WAT     H1 7163   8.065   5.151   7.551
 2307WAT     H2 7164   8.061   5.299   7.482
 2308WAT      O 7165   2.039   5.601   1.233
 2308WAT     H1 7166   2.083   5.538   1.168
 2308WAT     H2 7167   1.960   5.556   1.274
 2309WAT      O 7168   2.803   2.293   9.283
 2309WAT     H1 7169   2.879   2.301   9.348
 2309WAT     H2 7170   2.720   2.330   9.324
 2310WAT      O 7171   1.222   7.197   5.532
 2310WAT     H1 7172   1.226   7.289   5.571
 2310WAT     H2 7173   1.285   7.190   5.455
 2311WAT      O 7174   9.705   2.711   6.324
 2311WAT     H1 7175   9.741   2.621   6.347
 2311WAT     H2 7176   9.611   2.719   6.357
 2312WAT      O 7177   0.651   1.513   1.922
 2312WAT     H1 7178   0.658   1.445   1.995
 2312WAT     H2 7179   0.642   1.467   1.834
 2313WAT      O 7180   8.830   7.931   0.776
 2313WAT     H1 7181   8.754   7.875   0.807
 2313WAT     H2 7182   8.797   7.999   0.711
 2314WAT      O 7183   5.174   7.926   1.688
 2314WAT     H1 7184   5.124   7.843   1.661
 2314WAT     H2 7185   5.263   7.927   1.643
 2315WAT      O 7186   8.011   8.746   4.545
 2315WAT     H1 7187   8.025   8.729   4.643
 2315WAT     H2 7188   8.029   8.663   4.493
 2316WAT      O 7189   3.270   4.185   5.767
 2316WAT     H1 7190   3.361   4.214   5.796
 2316WAT     H2 7191   3.278   4.123   5.688
 2317WAT      O 7192   0.480   7.380   2.637
 2317WAT     H1 7193   0.484   7.471   2.678
 2317WAT     H2 7194   0.479   7.389   2.537
 2318WAT      O 7195   5.645   2.961   6.615
 2318WAT     H1 7196   5.583   3.039   6.627
 2318WAT     H2 7197   5.638   2.901   6.695
 2319WAT      O 7198   3.983   0.596   7.414
 2319WAT     H1 7199   4.039   0.635   7.487
 2319WAT     H2 7200   4.041   0.580   7.334
 2320WAT      O 7201   1.227   8.519   5.731
 2320WAT     H1 7202   1.211   8.562   5.642
 2320WAT     H2 7203   1.241   8.590   5.800
 2321WAT      O 7204   7.012   0.538   3.946
 2321WAT     H1 7205   6.956   0.463   3.913
 2321WAT     H2 7206   7.067   0.507   4.024
 2322WAT      O 7207   7.981   7.014   0.533
 2322WAT     H1 7208   7.898   7.043   0.580
 2322WAT     H2 7209   8.061   7.040   0.587
 2323WAT      O 7210   1.935   1.020   3.988
 2323WAT     H1 7211   2.008   0.959   3.958
 2323WAT     H2 7212   1.919   1.007   4.086
 2324WAT      O 7213   0.163   4.249   8.682
 2324WAT     H1 7214   0.127   4.338   8.707
 2324WAT     H2 7215   0.130   4.180   8.747
 2325WAT      O 7216   0.404   3.014   7.728
 2325WAT     H1 7217   0.358   3.012   7.817
 2325WAT     H2 7218   0.354   3.074   7.666
 2326WAT      O 7219   4.202   3.268   5.970
 2326WAT     H1 7220   4.184   3.211   5.889
 2326WAT     H2 7221   4.119   3.275   6.024
 2327WAT      O 7222   5.053   2.537   8.693
 2327WAT     H1 7223   5.046   2.615   8.630
 2327WAT     H2 7224   5.116   2.469   8.654
 2328WAT      O 7225   0.572   3.811   9.614
 2328WAT     H1 7226   0.602   3.899   9.650
 2328WAT     H2 7227   0.650   3.763   9.572
 2329WAT      O 7228   3.970   9.037   4.330
 2329WAT     H1 7229   3.943   8.944   4.355
 2329WAT     H2 7230   4.059   9.057   4.371
 2330WAT      O 7231   1.675   0.757   7.162
 2330WAT     H1 7232   1.615   0.837   7.171
 2330WAT     H2 7233   1.763   0.786   7.123
 2331WAT      O 7234   2.008   6.320   1.993
 2331WAT     H1 7235   1.956   6.305   2.078
 2331WAT     H2 7236   2.036   6.416   1.989
 2332WAT      O 7237   0.019   5.453   3.373
 2332WAT     H1 7238  -0.039   5.455   3.455
 2332WAT     H2 7239  -0.038   5.437   3.293
 2333WAT      O 7240   3.095   9.039   8.248
 2333WAT     H1 7241   3.014   9.079   8.290
 2333WAT     H2 7242   3.170   9.105   8.250
 2334WAT      O 7243   9.142   7.059   5.564
 2334WAT     H1 7244   9.185   6.984   5.613
 2334WAT     H2 7245   9.210   7.128   5.539
 2335WAT      O 7246   3.600   1.863   4.478
 2335WAT     H1 7247   3.530   1.792   4.477
 2335WAT     H2 7248   3.597   1.911   4.566
 2336WAT      O 7249   0.486   3.948   7.953
 2336WAT     H1 7250   0.570   4.000   7.966
 2336WAT     H2 7251   0.496   3.886   7.875
 2337WAT      O 7252   4.288   2.802   9.535
 2337WAT     H1 7253   4.377   2.767   9.562
 2337WAT     H2 7254   4.252   2.748   9.458
 2338WAT      O 7255   8.095   4.111   7.325
 2338WAT     H1 7256   8.122   4.079   7.234
 2338WAT     H2 7257   8.043   4.038   7.371
 2339WAT      O 7258   8.188   4.038   3.425
 2339WAT     H1 7259   8.228   3.946   3.418
 2339WAT     H2 7260   8.202   4.073   3.518
 2340WAT      O 7261   4.960   4.055   5.350
 2340WAT     H1 7262   5.044   4.061   5.297
 2340WAT     H2 7263   4.975   3.998   5.431
 2341WAT      O 7264   2.438   9.099   4.518
 2341WAT     H1 7265   2.370   9.108   4.591
 2341WAT     H2 7266   2.398   9.129   4.431
 2342WAT      O 7267   7.540   0.356   9.271
 2342WAT     H1 7268   7.613   0.290   9.251
 2342WAT     H2 7269   7.580   0.437   9.313
 2343WAT      O 7270   9.498   2.170   5.527
 2343WAT     H1 7271   9.484   2.130   5.617
 2343WAT     H2 7272   9.594   2.162   5.501
 2344WAT      O 7273   6.858   8.204   7.690
 2344WAT     H1 7274   6.816   8.131   7.744
 2344WAT     H2 7275   6.803   8.288   7.699
 2345WAT      O 7276   0.490   3.082   0.980
 2345WAT     H1 7277   0.417   3.150   0.985
 2345WAT     H2 7278   0.475   3.022   0.902
 2346WAT      O 7279   7.372   8.375   6.821
 2346WAT     H1 7280   7.295   8.370   6.758
 2346WAT     H2 7281   7.348   8.333   6.908
 2347WAT      O 7282   6.993   9.041   5.724
 2347WAT     H1 7283   7.030   8.965   5.778
 2347WAT     H2 7284   7.030   9.127   5.759
 2348WAT      O 7285   4.313   0.400   4.658
 2348WAT     H1 7286   4.229   0.437   4.618
 2348WAT     H2 7287   4.365   0.475   4.699
 2349WAT      O 7288   5.019   3.270   5.362
 2349WAT     H1 7289   5.040   3.173   5.359
 2349WAT     H2 7290   4.950   3.292   5.294
 2350WAT      O 7291   1.412   0.776   0.697
 2350WAT     H1 7292   1.338   0.731   0.647
 2350WAT     H2 7293   1.411   0.874   0.678
 2351WAT      O 7294   0.702   5.791   1.145
 2351WAT     H1 7295   0.800   5.800   1.163
 2351WAT     H2 7296   0.651   5.853   1.205
 2352WAT      O 7297   4.283   8.047   8.708
 2352WAT     H1 7298   4.353   8.064   8.777
 2352WAT     H2 7299   4.324   8.003   8.628
 2353WAT      O 7300   8.766   3.099   7.311
 2353WAT     H1 7301   8.716   3.023   7.351
 2353WAT     H2 7302   8.715   3.184   7.324
 2354WAT      O 7303   8.313   7.848   8.940
 2354WAT     H1 7304   8.267   7.777   8.993
 2354WAT     H2 7305   8.296   7.833   8.843
 2355WAT      O 7306   4.636   8.954   7.098
 2355WAT     H1 7307   4.543   8.923   7.079
 2355WAT     H2 7308   4.633   9.025   7.169
 2356WAT      O 7309   9.171   8.777   6.517
 2356WAT     H1 7310   9.119   8.804   6.598
 2356WAT     H2 7311   9.193   8.680   6.522
 2357WAT      O 7312   8.449   3.326   6.163
 2357WAT     H1 7313   8.396   3.305   6.081
 2357WAT     H2 7314   8.547   3.318   6.143
 2358WAT      O 7315   9.221   0.940   0.977
 2358WAT     H1 7316   9.240   0.970   0.883
 2358WAT     H2 7317   9.145   0.875   0.976
 2359WAT      O 7318   0.497   3.430   3.156
 2359WAT     H1 7319   0.481   3.337   3.122
 2359WAT     H2 7320   0.522   3.489   3.079
 2360WAT      O 7321   3.773   6.765   7.129
 2360WAT     H1 7322   3.863   6.726   7.112
 2360WAT     H2 7323   3.752   6.833   7.058
 2361WAT      O 7324   9.304   4.212   2.556
 2361WAT     H1 7325   9.243   4.162   2.618
 2361WAT     H2 7326   9.392   4.164   2.552
 2362WAT      O 7327   0.149   5.057   4.045
 2362WAT     H1 7328   0.142   4.957   4.042
 2362WAT     H2 7329   0.155   5.093   3.952
 2363WAT      O 7330   7.994   0.251   5.312
 2363WAT     H1 7331   7.945   0.215   5.391
 2363WAT     H2 7332   7.976   0.349   5.303
 2364WAT      O 7333   4.787   0.506   8.208
 2364WAT     H1 7334   4.722   0.436   8.237
 2364WAT     H2 7335   4.880   0.475   8.225
 2365WAT      O 7336   6.798   8.404   8.250
 2365WAT     H1 7337   6.786   8.321   8.303
 2365WAT     H2 7338   6.854   8.469   8.301
 2366WAT      O 7339   4.550   4.196   0.623
 2366WAT     H1 7340   4.545   4.209   0.524
 2366WAT     H2 7341   4.509   4.275   0.669
 2367WAT      O 7342   4.734   9.130   2.713
 2367WAT     H1 7343   4.724   9.227   2.689
 2367WAT     H2 7344   4.674   9.075   2.656
 2368WAT      O 7345   0.331   8.143   0.812
 2368WAT     H1 7346   0.426   8.140   0.844
 2368WAT     H2 7347   0.285   8.059   0.839
 2369WAT      O 7348   7.103   0.846   7.160
 2369WAT     H1 7349   7.161   0.875   7.236
 2369WAT     H2 7350   7.146   0.872   7.073
 2370WAT      O 7351   1.653   6.454   1.190
 2370WAT     H1 7352   1.704   6.368   1.188
 2370WAT     H2 7353   1.562   6.439   1.227
 2371WAT      O 7354   2.505   1.174   1.961
 2371WAT     H1 7355   2.589   1.162   2.015
 2371WAT     H2 7356   2.523   1.149   1.866
 2372WAT      O 7357   1.831   6.672   4.914
 2372WAT     H1 7358   1.916   6.723   4.923
 2372WAT     H2 7359   1.792   6.656   5.005
 2373WAT      O 7360   1.987   7.869   0.964
 2373WAT     H1 7361   2.037   7.908   1.041
 2373WAT     H2 7362   1.890   7.863   0.987
 2374WAT      O 7363   2.703   6.373   6.937
 2374WAT     H1 7364   2.800   6.398   6.934
 2374WAT     H2 7365   2.648   6.448   6.899
 2375WAT      O 7366   7.517   6.737   0.650
 2375WAT     H1 7367   7.550   6.673   0.720
 2375WAT     H2 7368   7.578   6.733   0.571
 2376WAT      O 7369   2.174   3.222   3.623
 2376WAT     H1 7370   2.120   3.270   3.554
 2376WAT     H2 7371   2.182   3.278   3.705
 2377WAT      O 7372   2.556   4.845   8.831
 2377WAT     H1 7373   2.533   4.762   8.780
 2377WAT     H2 7374   2.477   4.907   8.831
 2378WAT      O 7375   8.055   4.126   1.225
 2378WAT     H1 7376   8.064   4.182   1.308
 2378WAT     H2 7377   8.121   4.158   1.157
 2379WAT      O 7378   2.359   8.284   0.201
 2379WAT     H1 7379   2.268   8.246   0.216
 2379WAT     H2 7380   2.419   8.214   0.162
 2380WAT      O 7381   5.726   1.803   8.214
 2380WAT     H1 7382   5.765   1.830   8.302
 2380WAT     H2 7383   5.774   1.852   8.141
 2381WAT      O 7384   9.063   6.320   7.143
 2381WAT     H1 7385   8.980   6.302   7.091
 2381WAT     H2 7386   9.049   6.399   7.202
 2382WAT      O 7387   0.028   2.183   0.166
 2382WAT     H1 7388  -0.057   2.227   0.137
 2382WAT     H2 7389   0.106   2.235   0.132
 2383WAT      O 7390   5.380   5.875   3.588
 2383WAT     H1 7391   5.430   5.949   3.543
 2383WAT     H2 7392   5.349   5.905   3.678
 2384WAT      O 7393   6.012   5.900   0.640
 2384WAT     H1 7394   6.060   5.977   0.599
 2384WAT     H2 7395   5.980   5.926   0.731
 2385WAT      O 7396   9.886   3.290   6.128
 2385WAT     H1 7397   9.951   3.365   6.127
 2385WAT     H2 7398   9.793   3.326   6.115
 2386WAT      O 7399   1.492   0.595   6.548
 2386WAT     H1 7400   1.526   0.670   6.491
 2386WAT     H2 7401   1.518   0.508   6.506
 2387WAT      O 7402   6.503   0.104   4.037
 2387WAT     H1 7403   6.569   0.123   4.110
 2387WAT     H2 7404   6.491   0.005   4.029
 2388WAT      O 7405   3.582   4.659   0.532
 2388WAT     H1 7406   3.519   4.610   0.592
 2388WAT     H2 7407   3.533   4.687   0.449
 2389WAT      O 7408   7.934   4.418   9.322
 2389WAT     H1 7409   7.971   4.336   9.364
 2389WAT     H2 7410   7.839   4.402   9.295
 2390WAT      O 7411   7.579   9.466   8.080
 2390WAT     H1 7412   7.550   9.522   8.002
 2390WAT     H2 7413   7.506   9.464   8.149
 2391WAT      O 7414   3.378   0.865   3.831
 2391WAT     H1 7415   3.343   0.853   3.924
 2391WAT     H2 7416   3.453   0.801   3.815
 2392WAT      O 7417   6.012   8.378   9.475
 2392WAT     H1 7418   6.011   8.445   9.549
 2392WAT     H2 7419   6.106   8.345   9.462
 2393WAT      O 7420   6.976   1.708   0.257
 2393WAT     H1 7421   7.070   1.678   0.273
 2393WAT     H2 7422   6.963   1.725   0.160
 2394WAT      O 7423   6.551   5.211   4.203
 2394WAT     H1 7424   6.578   5.183   4.295
 2394WAT     H2 7425   6.557   5.310   4.195
 2395WAT      O 7426   2.628   1.525   3.505
 2395WAT     H1 7427   2.645   1.610   3.456
 2395WAT     H2 7428   2.534   1.495   3.488
 2396WAT      O 7429   4.785   3.613   4.012
 2396WAT     H1 7430   4.824   3.573   4.095
 2396WAT     H2 7431   4.834   3.697   3.990
 2397WAT      O 7432   7.945   9.036   9.775
 2397WAT     H1 7433   7.997   8.951   9.767
 2397WAT     H2 7434   8.008   9.113   9.783
 2398WAT      O 7435   1.362   8.669   7.617
 2398WAT     H1 7436   1.385   8.583   7.662
 2398WAT     H2 7437   1.264   8.685   7.623
 2399WAT      O 7438   4.105   3.382   3.824
 2399WAT     H1 7439   4.180   3.317   3.833
 2399WAT     H2 7440   4.042   3.350   3.752
 2400WAT      O 7441   0.448   1.818   8.614
 2400WAT     H1 7442   0.437   1.719   8.607
 2400WAT     H2 7443   0.428   1.860   8.526
 2401WAT      O 7444   5.428   6.586   7.698
 2401WAT     H1 7445   5.383   6.574   7.609
 2401WAT     H2 7446   5.396   6.515   7.761
 2402WAT      O 7447   7.455   9.835   4.968
 2402WAT     H1 7448   7.498   9.800   5.051
 2402WAT     H2 7449   7.359   9.805   4.966
 2403WAT      O 7450   2.782   5.150   0.687
 2403WAT     H1 7451   2.873   5.187   0.706
 2403WAT     H2 7452   2.780   5.113   0.594
 2404WAT      O 7453   1.335   8.639   3.162
 2404WAT     H1 7454   1.254   8.597   3.122
 2404WAT     H2 7455   1.405   8.569   3.177
 2405WAT      O 7456   5.396   0.734   5.207
 2405WAT     H1 7457   5.489   0.710   5.234
 2405WAT     H2 7458   5.333   0.713   5.282
 2406WAT      O 7459   9.445   4.336   7.563
 2406WAT     H1 7460   9.374   4.406   7.563
 2406WAT     H2 7461   9.428   4.271   7.638
 2407WAT      O 7462   6.814   6.198   2.111
 2407WAT     H1 7463   6.866   6.203   2.026
 2407WAT     H2 7464   6.838   6.113   2.160
 2408WAT      O 7465   7.139   9.595   7.055
 2408WAT     H1 7466   7.205   9.554   6.992
 2408WAT     H2 7467   7.093   9.524   7.107
 2409WAT      O 7468   8.717   1.782   5.641
 2409WAT     H1 7469   8.715   1.746   5.548
 2409WAT     H2 7470   8.809   1.814   5.663
 2410WAT      O 7471   5.083   9.374   2.625
 2410WAT     H1 7472   4.987   9.393   2.646
 2410WAT     H2 7473   5.118   9.444   2.563
 2411WAT      O 7474   5.828   2.389   7.586
 2411WAT     H1 7475   5.824   2.290   7.574
 2411WAT     H2 7476   5.735   2.425   7.595
 2412WAT      O 7477   4.536   7.087   1.133
 2412WAT     H1 7478   4.595   7.149   1.186
 2412WAT     H2 7479   4.546   6.994   1.167
 2413WAT      O 7480   9.515   5.715   8.717
 2413WAT     H1 7481   9.607   5.744   8.690
 2413WAT     H2 7482   9.496   5.746   8.811
 2414WAT      O 7483   5.993   2.744   4.558
 2414WAT     H1 7484   6.077   2.716   4.512
 2414WAT     H2 7485   5.926   2.670   4.551
 2415WAT      O 7486   1.201   8.595   6.035
 2415WAT     H1 7487   1.255   8.511   6.042
 2415WAT     H2 7488   1.114   8.583   6.083
 2416WAT      O 7489   7.817   5.325   0.474
 2416WAT     H1 7490   7.744   5.353   0.412
 2416WAT     H2 7491   7.787   5.339   0.569
 2417WAT      O 7492   2.471   7.319   3.108
 2417WAT     H1 7493   2.527   7.373   3.171
 2417WAT     H2 7494   2.435   7.378   3.036
 2418WAT      O 7495   8.512   0.277   5.907
 2418WAT     H1 7496   8.436   0.247   5.849
 2418WAT     H2 7497   8.589   0.214   5.896
 2419WAT      O 7498   6.610   2.677   8.736
 2419WAT     H1 7499   6.652   2.767   8.740
 2419WAT     H2 7500   6.661   2.614   8.796
 2420WAT      O 7501   7.120   0.131   5.523
 2420WAT     H1 7502   7.138   0.178   5.610
 2420WAT     H2 7503   7.022   0.116   5.513
 2421WAT      O 7504   9.087   4.810   9.582
 2421WAT     H1 7505   9.106   4.725   9.631
 2421WAT     H2 7506   8.991   4.813   9.554
 2422WAT      O 7507   5.575   2.278   9.119
 2422WAT     H1 7508   5.532   2.265   9.030
 2422WAT     H2 7509   5.507   2.305   9.186
 2423WAT      O 7510   4.650   6.519   8.181
 2423WAT     H1 7511   4.690   6.476   8.262
 2423WAT     H2 7512   4.551   6.506   8.182
 2424WAT      O 7513   9.121   0.571   5.687
 2424WAT     H1 7514   9.084   0.506   5.753
 2424WAT     H2 7515   9.086   0.663   5.707
 2425WAT      O 7516   4.622   5.092   9.472
 2425WAT     H1 7517   4.541   5.114   9.526
 2425WAT     H2 7518   4.665   5.177   9.441
 2426WAT      O 7519   0.778   9.397   7.871
 2426WAT     H1 7520   0.746   9.420   7.963
 2426WAT     H2 7521   0.876   9.376   7.874
 2427WAT      O 7522   1.261   3.490   8.865
 2427WAT     H1 7523   1.172   3.504   8.910
 2427WAT     H2 7524   1.250   3.426   8.789
 2428WAT      O 7525   8.012   9.160   1.044
 2428WAT     H1 7526   7.933   9.201   1.090
 2428WAT     H2 7527   8.044   9.222   0.972
 2429WAT      O 7528   2.864   0.325   2.840
 2429WAT     H1 7529   2.941   0.389   2.840
 2429WAT     H2 7530   2.789   0.362   2.785
 2430WAT      O 7531   8.047   8.987   4.426
 2430WAT     H1 7532   8.095   8.969   4.340
 2430WAT     H2 7533   8.035   8.902   4.476
 2431WAT      O 7534   1.086   8.187   7.284
 2431WAT     H1 7535   1.026   8.119   7.243
 2431WAT     H2 7536   1.115   8.155   7.374
 2432WAT      O 7537   5.803   2.517   0.462
 2432WAT     H1 7538   5.715   2.484   0.495
 2432WAT     H2 7539   5.877   2.469   0.510
 2433WAT      O 7540   4.943   3.547   3.284
 2433WAT     H1 7541   4.843   3.548   3.292
 2433WAT     H2 7542   4.969   3.567   3.190
 2434WAT      O 7543   2.643   6.971   1.855
 2434WAT     H1 7544   2.688   6.959   1.767
 2434WAT     H2 7545   2.596   7.058   1.858
 2435WAT      O 7546   7.354   0.886   7.343
 2435WAT     H1 7547   7.343   0.787   7.341
 2435WAT     H2 7548   7.449   0.909   7.322
 2436WAT      O 7549   6.220   5.287   6.977
 2436WAT     H1 7550   6.232   5.190   6.956
 2436WAT     H2 7551   6.307   5.325   7.006
 2437WAT      O 7552   4.468   9.521   0.447
 2437WAT     H1 7553   4.503   9.537   0.354
 2437WAT     H2 7554   4.538   9.475   0.501
 2438WAT      O 7555   0.600   1.130   7.237
 2438WAT     H1 7556   0.601   1.034   7.266
 2438WAT     H2 7557   0.511   1.171   7.258
 2439WAT      O 7558   6.592   0.317   6.989
 2439WAT     H1 7559   6.547   0.229   6.976
 2439WAT     H2 7560   6.526   0.384   7.023
 2440WAT      O 7561   1.074   4.496   6.592
 2440WAT     H1 7562   1.129   4.542   6.662
 2440WAT     H2 7563   1.031   4.415   6.632
 2441WAT      O 7564   0.540   7.632   6.884
 2441WAT     H1 7565   0.560   7.700   6.955
 2441WAT     H2 7566   0.624   7.589   6.854
 2442WAT      O 7567   3.740   6.683   8.583
 2442WAT     H1 7568   3.687   6.601   8.604
 2442WAT     H2 7569   3.724   6.710   8.488
 2443WAT      O 7570   6.355   9.750   9.252
 2443WAT     H1 7571   6.397   9.825   9.303
 2443WAT     H2 7572   6.399   9.742   9.162
 2444WAT      O 7573   7.568   4.759   3.441
 2444WAT     H1 7574   7.496   4.809   3.490
 2444WAT     H2 7575   7.615   4.822   3.379
 2445WAT      O 7576   1.890   4.288   3.936
 2445WAT     H1 7577   1.853   4.266   3.846
 2445WAT     H2 7578   1.982   4.328   3.925
 2446WAT      O 7579   9.558   9.554   7.971
 2446WAT     H1 7580   9.529   9.460   7.987
 2446WAT     H2 7581   9.570   9.601   8.059
 2447WAT      O 7582   4.819   7.112   2.866
 2447WAT     H1 7583   4.850   7.032   2.814
 2447WAT     H2 7584   4.796   7.186   2.803
 2448WAT      O 7585   5.796   2.922   0.364
 2448WAT     H1 7586   5.762   2.982   0.291
 2448WAT     H2 7587   5.866   2.861   0.327
 2449WAT      O 7588   2.544   0.985   9.375
 2449WAT     H1 7589   2.448   0.991   9.401
 2449WAT     H2 7590   2.558   1.032   9.288
 2450WAT      O 7591   0.362   5.360   0.426
 2450WAT     H1 7592   0.282   5.303   0.444
 2450WAT     H2 7593   0.353   5.403   0.336
 2451WAT      O 7594   1.132   9.408   5.112
 2451WAT     H1 7595   1.071   9.484   5.133
 2451WAT     H2 7596   1.102   9.363   5.028
 2452WAT      O 7597   7.126   0.097   4.278
 2452WAT     H1 7598   7.114   0.020   4.340
 2452WAT     H2 7599   7.121   0.065   4.183
 2453WAT      O 7600   0.655   4.588   8.477
 2453WAT     H1 7601   0.730   4.639   8.435
 2453WAT     H2 7602   0.680   4.491   8.481
 2454WAT      O 7603   4.037   1.664   0.983
 2454WAT     H1 7604   3.946   1.663   0.940
 2454WAT     H2 7605   4.084   1.749   0.959
 2455WAT      O 7606   8.457   7.939   9.643
 2455WAT     H1 7607   8.537   7.936   9.583
 2455WAT     H2 7608   8.486   7.930   9.738
 2456WAT      O 7609   7.602   5.337   4.455
 2456WAT     H1 7610   7.674   5.275   4.484
 2456WAT     H2 7611   7.521   5.324   4.513
 2457WAT      O 7612   6.329   8.106   3.485
 2457WAT     H1 7613   6.361   8.050   3.563
 2457WAT     H2 7614   6.288   8.046   3.416
 2458WAT      O 7615   4.919   0.510   5.962
 2458WAT     H1 7616   4.941   0.423   5.918
 2458WAT     H2 7617   4.827   0.539   5.935
 2459WAT      O 7618   5.935   6.658   5.984
 2459WAT     H1 7619   5.917   6.566   6.018
 2459WAT     H2 7620   5.997   6.654   5.906
 2460WAT      O 7621   5.129   0.271   9.577
 2460WAT     H1 7622   5.057   0.238   9.638
 2460WAT     H2 7623   5.186   0.195   9.548
 2461WAT      O 7624   9.424   7.692   7.325
 2461WAT     H1 7625   9.461   7.729   7.411
 2461WAT     H2 7626   9.401   7.596   7.337
 2462WAT      O 7627   5.182   8.580   9.593
 2462WAT     H1 7628   5.143   8.516   9.660
 2462WAT     H2 7629   5.209   8.664   9.640
 2463WAT      O 7630   9.497   3.860   5.037
 2463WAT     H1 7631   9.459   3.905   5.119
 2463WAT     H2 7632   9.587   3.823   5.059
 2464WAT      O 7633   9.754   8.753   1.730
 2464WAT     H1 7634   9.679   8.694   1.699
 2464WAT     H2 7635   9.816   8.701   1.788
 2465WAT      O 7636   8.131   0.069   0.122
 2465WAT     H1 7637   8.107   0.140   0.056
 2465WAT     H2 7638   8.090   0.090   0.210
 2466WAT      O 7639   1.397   1.464   2.539
 2466WAT     H1 7640   1.461   1.403   2.586
 2466WAT     H2 7641   1.363   1.419   2.456
 2467WAT      O 7642   9.255   0.226   6.459
 2467WAT     H1 7643   9.218   0.136   6.438
 2467WAT     H2 7644   9.217   0.294   6.396
 2468WAT      O 7645   5.413   3.102   3.645
 2468WAT     H1 7646   5.334   3.051   3.611
 2468WAT     H2 7647   5.413   3.101   3.745
 2469WAT      O 7648   4.269   7.213   7.249
 2469WAT     H1 7649   4.330   7.276   7.295
 2469WAT     H2 7650   4.304   7.120   7.258
 2470WAT      O 7651   1.499   1.629   0.177
 2470WAT     H1 7652   1.480   1.606   0.273
 2470WAT     H2 7653   1.506   1.545   0.124
 2471WAT      O 7654   1.163   8.742   8.957
 2471WAT     H1 7655   1.233   8.807   8.988
 2471WAT     H2 7656   1.134   8.766   8.864
 2472WAT      O 7657   9.700   8.072   3.991
 2472WAT     H1 7658   9.791   8.046   4.024
 2472WAT     H2 7659   9.686   8.033   3.900
 2473WAT      O 7660   8.912   0.502   6.677
 2473WAT     H1 7661   8.967   0.582   6.703
 2473WAT     H2 7662   8.952   0.459   6.596
 2474WAT      O 7663   3.184   7.792   4.271
 2474WAT     H1 7664   3.099   7.747   4.296
 2474WAT     H2 7665   3.253   7.724   4.249
 2475WAT      O 7666   7.253   9.138   1.623
 2475WAT     H1 7667   7.217   9.049   1.650
 2475WAT     H2 7668   7.292   9.184   1.703
 2476WAT      O 7669   5.561   9.194   0.269
 2476WAT     H1 7670   5.464   9.192   0.249
 2476WAT     H2 7671   5.591   9.289   0.282
 2477WAT      O 7672   4.374   4.713   5.089
 2477WAT     H1 7673   4.294   4.718   5.029
 2477WAT     H2 7674   4.426   4.630   5.069
 2478WAT      O 7675   7.094   0.033   8.924
 2478WAT     H1 7676   7.079  -0.038   8.992
 2478WAT     H2 7677   7.187   0.025   8.887
 2479WAT      O 7678   3.066   2.308   4.964
 2479WAT     H1 7679   3.093   2.363   5.043
 2479WAT     H2 7680   3.147   2.290   4.908
 2480WAT      O 7681   4.424   6.739   4.699
 2480WAT     H1 7682   4.508   6.770   4.655
 2480WAT     H2 7683   4.401   6.647   4.666
 2481WAT      O 7684   8.607   7.472   1.790
 2481WAT     H1 7685   8.568   7.422   1.868
 2481WAT     H2 7686   8.705   7.455   1.785
 2482WAT      O 7687   3.721   1.803   1.103
 2482WAT     H1 7688   3.716   1.777   1.007
 2482WAT     H2 7689   3.632   1.789   1.146
 2483WAT      O 7690   2.394   0.201   2.886
 2483WAT     H1 7691   2.372   0.120   2.830
 2483WAT     H2 7692   2.491   0.223   2.874
 2484WAT      O 7693   7.206   2.199   3.103
 2484WAT     H1 7694   7.114   2.201   3.142
 2484WAT     H2 7695   7.223   2.109   3.062
 2485WAT      O 7696   3.081   8.936   8.819
 2485WAT     H1 7697   3.072   9.015   8.879
 2485WAT     H2 7698   3.165   8.886   8.843
 2486WAT      O 7699   3.107   5.603   4.147
 2486WAT     H1 7700   3.160   5.526   4.112
 2486WAT     H2 7701   3.071   5.580   4.237
 2487WAT      O 7702   3.872   8.700   5.269
 2487WAT     H1 7703   3.782   8.735   5.295
 2487WAT     H2 7704   3.890   8.615   5.318
 2488WAT      O 7705   6.519   7.403   1.083
 2488WAT     H1 7706   6.591   7.456   1.038
 2488WAT     H2 7707   6.436   7.458   1.091
 2489WAT      O 7708   7.613   0.873   1.103
 2489WAT     H1 7709   7.583   0.785   1.066
 2489WAT     H2 7710   7.695   0.903   1.056
 2490WAT      O 7711   5.270   1.127   7.655
 2490WAT     H1 7712   5.246   1.222   7.675
 2490WAT     H2 7713   5.344   1.098   7.716
 2491WAT      O 7714   4.868   4.346   5.437
 2491WAT     H1 7715   4.907   4.264   5.394
 2491WAT     H2 7716   4.863   4.420   5.369
 2492WAT      O 7717   7.012   4.294   9.595
 2492WAT     H1 7718   7.087   4.229   9.593
 2492WAT     H2 7719   7.046   4.385   9.572
 2493WAT      O 7720   5.878   7.953   2.875
 2493WAT     H1 7721   5.923   8.039   2.851
 2493WAT     H2 7722   5.944   7.892   2.920
 2494WAT      O 7723   3.010   2.947   5.540
 2494WAT     H1 7724   3.026   3.033   5.589
 2494WAT     H2 7725   3.084   2.883   5.562
 2495WAT      O 7726   6.225   7.103   6.795
 2495WAT     H1 7727   6.231   7.009   6.761
 2495WAT     H2 7728   6.232   7.167   6.718
 2496WAT      O 7729   0.795   7.937   0.485
 2496WAT     H1 7730   0.867   7.994   0.524
 2496WAT     H2 7731   0.798   7.944   0.385
 2497WAT      O 7732   5.304   7.194   1.220
 2497WAT     H1 7733   5.403   7.181   1.214
 2497WAT     H2 7734   5.265   7.200   1.127
 2498WAT      O 7735   4.054   0.450   3.567
 2498WAT     H1 7736   4.127   0.518   3.562
 2498WAT     H2 7737   3.986   0.468   3.495
 2499WAT      O 7738   6.851   1.475   4.705
 2499WAT     H1 7739   6.872   1.573   4.714
 2499WAT     H2 7740   6.911   1.435   4.635
 2500WAT      O 7741   6.162   3.407   7.907
 2500WAT     H1 7742   6.186   3.458   7.990
 2500WAT     H2 7743   6.082   3.349   7.925
 2501WAT      O 7744   4.726   5.429   6.991
 2501WAT     H1 7745   4.716   5.519   6.948
 2501WAT     H2 7746   4.820   5.397   6.978
 2502WAT      O 7747   2.744   0.689   6.922
 2502WAT     H1 7748   2.787   0.779   6.918
 2502WAT     H2 7749   2.812   0.619   6.903
 2503WAT      O 7750   7.279   2.350   5.908
 2503WAT     H1 7751   7.363   2.371   5.957
 2503WAT     H2 7752   7.291   2.371   5.811
 2504WAT      O 7753   3.593   1.509   1.037
 2504WAT     H1 7754   3.654   1.539   0.964
 2504WAT     H2 7755   3.636   1.434   1.088
 2505WAT      O 7756   1.065   8.937   4.583
 2505WAT     H1 7757   1.150   8.903   4.622
 2505WAT     H2 7758   0.992   8.871   4.601
 2506WAT      O 7759   3.470   9.414   1.606
 2506WAT     H1 7760   3.514   9.501   1.585
 2506WAT     H2 7761   3.392   9.430   1.666
 2507WAT      O 7762   3.556   7.380   3.651
 2507WAT     H1 7763   3.544   7.441   3.572
 2507WAT     H2 7764   3.489   7.307   3.646
 2508WAT      O 7765   6.591   5.884   3.062
 2508WAT     H1 7766   6.515   5.920   3.008
 2508WAT     H2 7767   6.670   5.870   3.003
 2509WAT      O 7768   1.790   4.026   2.329
 2509WAT     H1 7769   1.792   3.926   2.324
 2509WAT     H2 7770   1.735   4.062   2.254
 2510WAT      O 7771   9.026   1.574   7.608
 2510WAT     H1 7772   8.983   1.555   7.697
 2510WAT     H2 7773   8.960   1.555   7.535
 2511WAT      O 7774   6.251   8.986   8.603
 2511WAT     H1 7775   6.210   9.027   8.522
 2511WAT     H2 7776   6.346   8.960   8.583
 2512WAT      O 7777   4.003   9.780   1.440
 2512WAT     H1 7778   3.970   9.748   1.351
 2512WAT     H2 7779   4.061   9.709   1.480
 2513WAT      O 7780   0.915   4.438   2.662
 2513WAT     H1 7781   0.942   4.534   2.667
 2513WAT     H2 7782   0.824   4.431   2.622
 2514WAT      O 7783   4.898   6.899   1.576
 2514WAT     H1 7784   4.906   6.825   1.642
 2514WAT     H2 7785   4.802   6.915   1.555
 2515WAT      O 7786   1.769   1.053   1.908
 2515WAT     H1 7787   1.740   0.980   1.970
 2515WAT     H2 7788   1.785   1.137   1.959
 2516WAT      O 7789   7.431   8.157   8.683
 2516WAT     H1 7790   7.424   8.059   8.701
 2516WAT     H2 7791   7.342   8.192   8.654
 2517WAT      O 7792   6.449   6.929   7.651
 2517WAT     H1 7793   6.463   6.841   7.696
 2517WAT     H2 7794   6.421   6.914   7.556
 2518WAT      O 7795   8.132   4.933   6.561
 2518WAT     H1 7796   8.116   4.903   6.467
 2518WAT     H2 7797   8.120   4.855   6.624
 2519WAT      O 7798   5.111   4.198   9.111
 2519WAT     H1 7799   5.122   4.250   9.196
 2519WAT     H2 7800   5.057   4.251   9.046
 2520WAT      O 7801   1.063   6.781   7.460
 2520WAT     H1 7802   1.152   6.771   7.505
 2520WAT     H2 7803   1.043   6.697   7.409
 2521WAT      O 7804   0.802   1.353   4.265
 2521WAT     H1 7805   0.859   1.273   4.247
 2521WAT     H2 7806   0.849   1.435   4.232
 2522WAT      O 7807   7.905   1.830   7.061
 2522WAT     H1 7808   7.905   1.802   7.157
 2522WAT     H2 7809   7.949   1.918   7.051
 2523WAT      O 7810   3.900   3.057   7.610
 2523WAT     H1 7811   3.886   2.975   7.665
 2523WAT     H2 7812   3.963   3.037   7.535
 2524WAT      O 7813   8.689   7.288   3.189
 2524WAT     H1 7814   8.626   7.366   3.184
 2524WAT     H2 7815   8.672   7.237   3.274
 2525WAT      O 7816   4.395   7.033   2.909
 2525WAT     H1 7817   4.316   7.095   2.902
 2525WAT     H2 7818   4.371   6.955   2.967
 2526WAT      O 7819   3.758   4.724   4.109
 2526WAT     H1 7820   3.802   4.806   4.073
 2526WAT     H2 7821   3.667   4.747   4.144
 2527WAT      O 7822   2.441   5.469   2.536
 2527WAT     H1 7823   2.540   5.484   2.529
 2527WAT     H2 7824   2.411   5.489   2.630
 2528WAT      O 7825   4.459   2.901   5.111
 2528WAT     H1 7826   4.467   2.898   5.012
 2528WAT     H2 7827   4.537   2.855   5.152
 2529WAT      O 7828   5.525   9.270   3.426
 2529WAT     H1 7829   5.457   9.236   3.491
 2529WAT     H2 7830   5.603   9.208   3.423
 2530WAT      O 7831   1.046   5.006   8.397
 2530WAT     H1 7832   1.142   4.985   8.416
 2530WAT     H2 7833   1.015   4.952   8.319
 2531WAT      O 7834   2.195   8.009   8.089
 2531WAT     H1 7835   2.217   7.913   8.074
 2531WAT     H2 7836   2.266   8.066   8.048
 2532WAT      O 7837   3.692   2.629   7.566
 2532WAT     H1 7838   3.677   2.685   7.485
 2532WAT     H2 7839   3.624   2.653   7.636
 2533WAT      O 7840   1.788   3.624   7.915
 2533WAT     H1 7841   1.790   3.684   7.995
 2533WAT     H2 7842   1.828   3.671   7.837
 2534WAT      O 7843   0.862   9.522   8.428
 2534WAT     H1 7844   0.814   9.436   8.446
 2534WAT     H2 7845   0.804   9.598   8.457
 2535WAT      O 7846   5.648   9.376   0.609
 2535WAT     H1 7847   5.739   9.351   0.641
 2535WAT     H2 7848   5.580   9.323   0.660
 2536WAT      O 7849   0.764   7.676   5.657
 2536WAT     H1 7850   0.788   7.745   5.725
 2536WAT     H2 7851   0.846   7.629   5.626
 2537WAT      O 7852   6.511   5.557   5.394
 2537WAT     H1 7853   6.548   5.564   5.487
 2537WAT     H2 7854   6.577   5.511   5.335
 2538WAT      O 7855   0.654   1.944   5.883
 2538WAT     H1 7856   0.639   2.042   5.878
 2538WAT     H2 7857   0.739   1.926   5.933
 2539WAT      O 7858   3.118   4.582   6.552
 2539WAT     H1 7859   3.133   4.655   6.619
 2539WAT     H2 7860   3.073   4.505   6.597
 2540WAT      O 7861   8.536   8.305   1.681
 2540WAT     H1 7862   8.557   8.339   1.773
 2540WAT     H2 7863   8.440   8.279   1.676
 2541WAT      O 7864   8.710   3.798   2.475
 2541WAT     H1 7865   8.698   3.818   2.572
 2541WAT     H2 7866   8.702   3.883   2.422
 2542WAT      O 7867   5.080   4.014   8.043
 2542WAT     H1 7868   5.031   4.039   7.960
 2542WAT     H2 7869   5.027   4.040   8.123
 2543WAT      O 7870   6.965   1.004   2.024
 2543WAT     H1 7871   6.873   0.975   1.996
 2543WAT     H2 7872   6.976   0.988   2.123
 2544WAT      O 7873   6.676   1.254   2.011
 2544WAT     H1 7874   6.634   1.241   1.920
 2544WAT     H2 7875   6.705   1.165   2.047
 2545WAT      O 7876   6.268   0.793   5.526
 2545WAT     H1 7877   6.359   0.802   5.565
 2545WAT     H2 7878   6.248   0.696   5.511
 2546WAT      O 7879   5.306   1.679   9.692
 2546WAT     H1 7880   5.391   1.646   9.650
 2546WAT     H2 7881   5.229   1.624   9.661
 2547WAT      O 7882   0.993   0.655   7.823
 2547WAT     H1 7883   0.960   0.742   7.859
 2547WAT     H2 7884   0.994   0.659   7.723
 2548WAT      O 7885   8.444   1.241   8.630
 2548WAT     H1 7886   8.385   1.308   8.674
 2548WAT     H2 7887   8.459   1.266   8.535
 2549WAT      O 7888   0.169   0.110   2.895
 2549WAT     H1 7889   0.264   0.114   2.928
 2549WAT     H2 7890   0.165   0.142   2.801
 2550WAT      O 7891   9.210   6.106   7.218
 2550WAT     H1 7892   9.166   6.194   7.196
 2550WAT     H2 7893   9.257   6.114   7.305
 2551WAT      O 7894   6.508   4.058   7.241
 2551WAT     H1 7895   6.480   4.132   7.301
 2551WAT     H2 7896   6.430   3.999   7.222
 2552WAT      O 7897   3.353   2.954   2.046
 2552WAT     H1 7898   3.359   3.032   1.983
 2552WAT     H2 7899   3.295   2.883   2.005
 2553WAT      O 7900   0.127   0.938   2.842
 2553WAT     H1 7901   0.175   0.895   2.918
 2553WAT     H2 7902   0.172   1.024   2.818
 2554WAT      O 7903   2.107   8.756   4.028
 2554WAT     H1 7904   2.027   8.751   3.968
 2554WAT     H2 7905   2.170   8.682   4.006
 2555WAT      O 7906   5.354   9.202   8.927
 2555WAT     H1 7907   5.290   9.233   8.857
 2555WAT     H2 7908   5.320   9.228   9.017
 2556WAT      O 7909   7.812   7.653   3.975
 2556WAT     H1 7910   7.734   7.701   4.015
 2556WAT     H2 7911   7.890   7.658   4.037
 2557WAT      O 7912   0.680   0.602   8.819
 2557WAT     H1 7913   0.760   0.558   8.777
 2557WAT     H2 7914   0.702   0.697   8.840
 2558WAT      O 7915   0.999   1.615   7.915
 2558WAT     H1 7916   0.950   1.531   7.892
 2558WAT     H2 7917   0.934   1.690   7.924
 2559WAT      O 7918   1.214   4.588   2.980
 2559WAT     H1 7919   1.270   4.599   2.898
 2559WAT     H2 7920   1.230   4.666   3.041
 2560WAT      O 7921   1.496   7.933   3.507
 2560WAT     H1 7922   1.459   7.982   3.586
 2560WAT     H2 7923   1.427   7.872   3.470
 2561WAT      O 7924   7.661   1.255   9.325
 2561WAT     H1 7925   7.682   1.347   9.359
 2561WAT     H2 7926   7.719   1.188   9.372
 2562WAT      O 7927   4.463   1.531   6.875
 2562WAT     H1 7928   4.438   1.572   6.787
 2562WAT     H2 7929   4.562   1.533   6.885
 2563WAT      O 7930   6.927   0.122   0.798
 2563WAT     H1 7931   7.027   0.123   0.806
 2563WAT     H2 7932   6.898   0.194   0.735
 2564WAT      O 7933   6.265   6.372   5.894
 2564WAT     H1 7934   6.261   6.327   5.804
 2564WAT     H2 7935   6.207   6.322   5.958
 2565WAT      O 7936   1.515   9.687   9.785
 2565WAT     H1 7937   1.601   9.639   9.767
 2565WAT     H2 7938   1.512   9.772   9.733
 2566WAT      O 7939   6.019   9.412   5.833
 2566WAT     H1 7940   5.931   9.431   5.876
 2566WAT     H2 7941   6.081   9.371   5.901
 2567WAT      O 7942   4.815   1.133   8.109
 2567WAT     H1 7943   4.851   1.042   8.130
 2567WAT     H2 7944   4.891   1.193   8.082
 2568WAT      O 7945   9.497   5.426   2.264
 2568WAT     H1 7946   9.541   5.375   2.191
 2568WAT     H2 7947   9.551   5.417   2.348
 2569WAT      O 7948   3.629   0.879   6.938
 2569WAT     H1 7949   3.664   0.923   7.020
 2569WAT     H2 7950   3.641   0.939   6.859
 2570WAT      O 7951   5.061   8.225   4.576
 2570WAT     H1 7952   5.148   8.229   4.625
 2570WAT     H2 7953   5.074   8.177   4.489
 2571WAT      O 7954   9.500   2.701   0.206
 2571WAT     H1 7955   9.457   2.617   0.174
 2571WAT     H2 7956   9.540   2.686   0.297
 2572WAT      O 7957   7.226   4.557   4.184
 2572WAT     H1 7958   7.204   4.501   4.105
 2572WAT     H2 7959   7.288   4.507   4.245
 2573WAT      O 7960   1.092   5.612   0.274
 2573WAT     H1 7961   1.110   5.531   0.329
 2573WAT     H2 7962   1.135   5.602   0.184
 2574WAT      O 7963   7.401   4.626   3.867
 2574WAT     H1 7964   7.453   4.552   3.909
 2574WAT     H2 7965   7.382   4.696   3.935
 2575WAT      O 7966   8.723   2.456   8.516
 2575WAT     H1 7967   8.785   2.377   8.512
 2575WAT     H2 7968   8.638   2.429   8.562
 2576WAT      O 7969   7.819   2.958   0.634
 2576WAT     H1 7970   7.776   2.992   0.549
 2576WAT     H2 7971   7.913   2.991   0.639
 2577WAT      O 7972   1.736   2.491   8.563
 2577WAT     H1 7973   1.687   2.558   8.620
 2577WAT     H2 7974   1.695   2.401   8.576
 2578WAT      O 7975   2.694   1.082   9.891
 2578WAT     H1 7976   2.644   1.046   9.813
 2578WAT     H2 7977   2.695   1.013   9.964
 2579WAT      O 7978   0.349   8.611   0.727
 2579WAT     H1 7979   0.347   8.704   0.765
 2579WAT     H2 7980   0.311   8.547   0.794
 2580WAT      O 7981   0.521   6.465   8.991
 2580WAT     H1 7982   0.562   6.394   8.933
 2580WAT     H2 7983   0.509   6.549   8.937
 2581WAT      O 7984   6.796   3.098   0.950
 2581WAT     H1 7985   6.852   3.015   0.954
 2581WAT     H2 7986   6.838   3.169   1.007
 2582WAT      O 7987   7.045   4.525   7.503
 2582WAT     H1 7988   7.083   4.448   7.451
 2582WAT     H2 7989   6.994   4.585   7.442
 2583WAT      O 7990   4.346   2.364   3.195
 2583WAT     H1 7991   4.423   2.307   3.224
 2583WAT     H2 7992   4.267   2.343   3.252
 2584WAT      O 7993   1.627   6.468   8.188
 2584WAT     H1 7994   1.656   6.533   8.258
 2584WAT     H2 7995   1.572   6.396   8.230
 2585WAT      O 7996   6.094   8.025   2.549
 2585WAT     H1 7997   6.036   8.068   2.618
 2585WAT     H2 7998   6.078   7.927   2.548
 2586WAT      O 7999   0.757   8.763   6.692
 2586WAT     H1 8000   0.840   8.815   6.671
 2586WAT     H2 8001   0.760   8.735   6.788
 2587WAT      O 8002   6.420   3.144   4.842
 2587WAT     H1 8003   6.504   3.198   4.843
 2587WAT     H2 8004   6.404   3.105   4.933
 2588WAT      O 8005   8.851   6.676   8.129
 2588WAT     H1 8006   8.780   6.701   8.194
 2588WAT     H2 8007   8.834   6.583   8.095
 2589WAT      O 8008   6.334   6.390   1.246
 2589WAT     H1 8009   6.261   6.365   1.183
 2589WAT     H2 8010   6.409   6.325   1.238
 2590WAT      O 8011   3.307   0.787   8.301
 2590WAT     H1 8012   3.246   0.768   8.224
 2590WAT     H2 8013   3.398   0.812   8.267
 2591WAT      O 8014   2.908   6.174   6.010
 2591WAT     H1 8015   2.926   6.088   5.961
 2591WAT     H2 8016   2.832   6.160   6.074
 2592WAT      O 8017   1.980   2.588   8.550
 2592WAT     H1 8018   1.884   2.558   8.548
 2592WAT     H2 8019   2.028   2.541   8.624
 2593WAT      O 8020   5.933   5.268   9.626
 2593WAT     H1 8021   5.899   5.178   9.654
 2593WAT     H2 8022   5.975   5.313   9.704
 2594WAT      O 8023   6.516   0.523   4.645
 2594WAT     H1 8024   6.567   0.535   4.560
 2594WAT     H2 8025   6.460   0.604   4.662
 2595WAT      O 8026   6.558   1.647   9.834
 2595WAT     H1 8027   6.559   1.656   9.933
 2595WAT     H2 8028   6.638   1.595   9.804
 2596WAT      O 8029   2.613   4.779   0.436
 2596WAT     H1 8030   2.692   4.834   0.463
 2596WAT     H2 8031   2.529   4.826   0.462
 2597WAT      O 8032   8.405   3.042   0.035
 2597WAT     H1 8033   8.313   3.013   0.063
 2597WAT     H2 8034   8.459   2.961   0.012
 2598WAT      O 8035   0.926   4.041   0.907
 2598WAT     H1 8036   0.856   4.111   0.895
 2598WAT     H2 8037   0.943   4.026   1.004
 2599WAT      O 8038   6.503   5.798   5.938
 2599WAT     H1 8039   6.424   5.738   5.924
 2599WAT     H2 8040   6.474   5.880   5.986
 2600WAT      O 8041   8.104   0.487   8.981
 2600WAT     H1 8042   8.024   0.544   9.001
 2600WAT     H2 8043   8.187   0.532   9.014
 2601WAT      O 8044   1.558   2.531   6.039
 2601WAT     H1 8045   1.532   2.440   6.008
 2601WAT     H2 8046   1.571   2.591   5.961
 2602WAT      O 8047   4.056   5.345   7.561
 2602WAT     H1 8048   4.024   5.276   7.497
 2602WAT     H2 8049   3.978   5.387   7.607
 2603WAT      O 8050   2.562   8.239   3.123
 2603WAT     H1 8051   2.534   8.147   3.148
 2603WAT     H2 8052   2.510   8.305   3.178
 2604WAT      O 8053   9.383   8.691   0.332
 2604WAT     H1 8054   9.322   8.769   0.317
 2604WAT     H2 8055   9.478   8.723   0.335
 2605WAT      O 8056   0.316   2.379   1.988
 2605WAT     H1 8057   0.255   2.428   2.050
 2605WAT     H2 8058   0.407   2.420   1.991
 2606WAT      O 8059   8.017   2.943   8.874
 2606WAT     H1 8060   7.958   2.862   8.871
 2606WAT     H2 8061   7.960   3.025   8.881
 2607WAT      O 8062   8.693   9.783   3.647
 2607WAT     H1 8063   8.750   9.702   3.660
 2607WAT     H2 8064   8.751   9.865   3.648
 2608WAT      O 8065   5.280   5.279   0.499
 2608WAT     H1 8066   5.360   5.233   0.460
 2608WAT     H2 8067   5.253   5.234   0.583
 2609WAT      O 8068   7.334   8.711   6.633
 2609WAT     H1 8069   7.314   8.799   6.591
 2609WAT     H2 8070   7.254   8.679   6.684
 2610WAT      O 8071   8.975   4.098   7.852
 2610WAT     H1 8072   8.987   4.064   7.758
 2610WAT     H2 8073   9.063   4.098   7.900
 2611WAT      O 8074   1.928   7.831   2.618
 2611WAT     H1 8075   1.869   7.835   2.537
 2611WAT     H2 8076   1.887   7.885   2.692
 2612WAT      O 8077   3.118   8.233   4.322
 2612WAT     H1 8078   3.049   8.278   4.266
 2612WAT     H2 8079   3.190   8.298   4.345
 2613WAT      O 8080   8.339   0.110   1.427
 2613WAT     H1 8081   8.250   0.073   1.456
 2613WAT     H2 8082   8.403   0.106   1.504
 2614WAT      O 8083   2.651   5.550   1.681
 2614WAT     H1 8084   2.592   5.630   1.680
 2614WAT     H2 8085   2.638   5.498   1.597
 2615WAT      O 8086   2.281   0.813   0.157
 2615WAT     H1 8087   2.260   0.897   0.208
 2615WAT     H2 8088   2.203   0.789   0.099
 2616WAT      O 8089   9.876   3.505   4.567
 2616WAT     H1 8090   9.902   3.554   4.650
 2616WAT     H2 8091   9.855   3.410   4.590
 2617WAT      O 8092   1.690   9.830   9.451
 2617WAT     H1 8093   1.650   9.787   9.370
 2617WAT     H2 8094   1.617   9.868   9.508
 2618WAT      O 8095   2.171   6.155   9.861
 2618WAT     H1 8096   2.088   6.101   9.872
 2618WAT     H2 8097   2.228   6.115   9.790
 2619WAT      O 8098   1.488   2.439   1.730
 2619WAT     H1 8099   1.422   2.511   1.748
 2619WAT     H2 8100   1.471   2.362   1.792
 2620WAT      O 8101   3.522   3.824   5.184
 2620WAT     H1 8102   3.539   3.837   5.281
 2620WAT     H2 8103   3.508   3.726   5.165
 2621WAT      O 8104   2.783   1.319   6.647
 2621WAT     H1 8105   2.727   1.393   6.684
 2621WAT     H2 8106   2.765   1.235   6.698
 2622WAT      O 8107   9.154   2.986   3.718
 2622WAT     H1 8108   9.120   2.893   3.725
 2622WAT     H2 8109   9.224   2.991   3.646
 2623WAT      O 8110   4.405   2.145   6.157
 2623WAT     H1 8111   4.445   2.086   6.227
 2623WAT     H2 8112   4.474   2.166   6.087
 2624WAT      O 8113   2.203   5.034   7.464
 2624WAT     H1 8114   2.259   5.108   7.427
 2624WAT     H2 8115   2.142   4.998   7.392
 2625WAT      O 8116   3.699   1.500   2.403
 2625WAT     H1 8117   3.779   1.519   2.347
 2625WAT     H2 8118   3.617   1.496   2.345
 2626WAT      O 8119   7.160   5.817   5.773
 2626WAT     H1 8120   7.096   5.841   5.701
 2626WAT     H2 8121   7.254   5.831   5.741
 2627WAT      O 8122   0.490   6.731   8.823
 2627WAT     H1 8123   0.405   6.694   8.786
 2627WAT     H2 8124   0.481   6.830   8.836
 2628WAT      O 8125   9.735   8.039   3.730
 2628WAT     H1 8126   9.735   7.940   3.737
 2628WAT     H2 8127   9.829   8.073   3.738
 2629WAT      O 8128   6.444   4.697   6.228
 2629WAT     H1 8129   6.503   4.746   6.292
 2629WAT     H2 8130   6.353   4.739   6.227
 2630WAT      O 8131   2.102   0.064   3.439
 2630WAT     H1 8132   2.183   0.054   3.380
 2630WAT     H2 8133   2.130   0.098   3.528
 2631WAT      O 8134   6.439   6.913   4.200
 2631WAT     H1 8135   6.490   6.856   4.136
 2631WAT     H2 8136   6.477   6.904   4.292
 2632WAT      O 8137   9.803   0.627   8.562
 2632WAT     H1 8138   9.777   0.678   8.481
 2632WAT     H2 8139   9.902   0.613   8.562
 2633WAT      O 8140   6.263   8.483   4.659
 2633WAT     H1 8141   6.258   8.573   4.704
 2633WAT     H2 8142   6.206   8.418   4.709
 2634WAT      O 8143   4.508   4.621   2.810
 2634WAT     H1 8144   4.439   4.549   2.810
 2634WAT     H2 8145   4.472   4.702   2.855
 2635WAT      O 8146   9.636   3.000   0.902
 2635WAT     H1 8147   9.722   3.005   0.851
 2635WAT     H2 8148   9.566   3.053   0.854
 2636WAT      O 8149   9.060   6.651   9.473
 2636WAT     H1 8150   9.019   6.578   9.419
 2636WAT     H2 8151   9.154   6.666   9.443
 2637WAT      O 8152   3.745   8.494   7.673
 2637WAT     H1 8153   3.764   8.543   7.587
 2637WAT     H2 8154   3.680   8.548   7.727
 2638WAT      O 8155   1.497   9.343   9.629
 2638WAT     H1 8156   1.437   9.294   9.693
 2638WAT     H2 8157   1.582   9.291   9.618
 2639WAT      O 8158   1.368   8.687   7.149
 2639WAT     H1 8159   1.353   8.631   7.230
 2639WAT     H2 8160   1.305   8.765   7.149
 2640WAT      O 8161   7.397   8.507   5.707
 2640WAT     H1 8162   7.482   8.469   5.672
 2640WAT     H2 8163   7.335   8.433   5.732
 2641WAT      O 8164   4.266   4.621   8.523
 2641WAT     H1 8165   4.183   4.650   8.475
 2641WAT     H2 8166   4.330   4.697   8.528
 2642WAT      O 8167   8.711   4.024   9.206
 2642WAT     H1 8168   8.678   3.936   9.172
 2642WAT     H2 8169   8.802   4.013   9.245
 2643WAT      O 8170   0.615   9.257   1.750
 2643WAT     H1 8171   0.517   9.277   1.746
 2643WAT     H2 8172   0.666   9.342   1.760
 2644WAT      O 8173   4.058   0.128   5.359
 2644WAT     H1 8174   4.137   0.169   5.404
 2644WAT     H2 8175   4.078   0.032   5.337
 2645WAT      O 8176   3.685   8.267   8.786
 2645WAT     H1 8177   3.678   8.305   8.694
 2645WAT     H2 8178   3.627   8.186   8.794
 2646WAT      O 8179   9.857   1.183   0.158
 2646WAT     H1 8180   9.774   1.227   0.192
 2646WAT     H2 8181   9.889   1.116   0.225
 2647WAT      O 8182   1.922   1.961   0.376
 2647WAT     H1 8183   1.957   1.868   0.362
 2647WAT     H2 8184   1.843   1.976   0.317
 2648WAT      O 8185   6.688   1.195   3.341
 2648WAT     H1 8186   6.746   1.270   3.374
 2648WAT     H2 8187   6.617   1.232   3.282
 2649WAT      O 8188   7.559   3.098   1.157
 2649WAT     H1 8189   7.539   3.021   1.096
 2649WAT     H2 8190   7.621   3.162   1.111
 2650WAT      O 8191   7.098   0.207   8.653
 2650WAT     H1 8192   7.065   0.193   8.746
 2650WAT     H2 8193   7.128   0.302   8.642
 2651WAT      O 8194   7.304   6.328   5.535
 2651WAT     H1 8195   7.255   6.255   5.583
 2651WAT     H2 8196   7.386   6.352   5.586
 2652WAT      O 8197   0.751   0.798   2.150
 2652WAT     H1 8198   0.751   0.861   2.073
 2652WAT     H2 8199   0.665   0.747   2.152
 2653WAT      O 8200   7.582   5.087   1.322
 2653WAT     H1 8201   7.619   5.177   1.300
 2653WAT     H2 8202   7.652   5.018   1.303
 2654WAT      O 8203   2.003   1.400   1.236
 2654WAT     H1 8204   2.021   1.497   1.253
 2654WAT     H2 8205   1.923   1.391   1.177
 2655WAT      O 8206   5.135   9.525   3.617
 2655WAT     H1 8207   5.045   9.508   3.657
 2655WAT     H2 8208   5.162   9.619   3.635
 2656WAT      O 8209   7.953   6.774   6.464
 2656WAT     H1 8210   7.962   6.700   6.531
 2656WAT     H2 8211   8.042   6.793   6.423
 2657WAT      O 8212   6.954   0.750   1.808
 2657WAT     H1 8213   7.001   0.774   1.723
 2657WAT     H2 8214   7.014   0.694   1.865
 2658WAT      O 8215   4.244   8.246   8.476
 2658WAT     H1 8216   4.196   8.201   8.401
 2658WAT     H2 8217   4.228   8.195   8.561
 2659WAT      O 8218   4.796   6.523   2.414
 2659WAT     H1 8219   4.757   6.604   2.369
 2659WAT     H2 8220   4.850   6.552   2.493
 2660WAT      O 8221   7.604   7.498   3.294
 2660WAT     H1 8222   7.537   7.569   3.271
 2660WAT     H2 8223   7.682   7.539   3.340
 2661WAT      O 8224   5.150   8.343   1.929
 2661WAT     H1 8225   5.084   8.350   2.004
 2661WAT     H2 8226   5.220   8.414   1.939
 2662WAT      O 8227   4.641   7.473   5.921
 2662WAT     H1 8228   4.733   7.481   5.882
 2662WAT     H2 8229   4.574   7.464   5.847
 2663WAT      O 8230   9.463   6.321   1.987
 2663WAT     H1 8231   9.367   6.305   2.011
 2663WAT     H2 8232   9.480   6.292   1.893
 2664WAT      O 8233   9.584   8.552   1.622
 2664WAT     H1 8234   9.494   8.514   1.642
 2664WAT     H2 8235   9.589   8.579   1.526
 2665WAT      O 8236   0.826   0.675   2.887
 2665WAT     H1 8237   0.780   0.612   2.950
 2665WAT     H2 8238   0.771   0.684   2.804
 2666WAT      O 8239   7.884   9.628   1.619
 2666WAT     H1 8240   7.803   9.614   1.563
 2666WAT     H2 8241   7.932   9.710   1.588
 2667WAT      O 8242   9.619   4.954   7.119
 2667WAT     H1 8243   9.654   4.986   7.030
 2667WAT     H2 8244   9.522   4.977   7.127
 2668WAT      O 8245   8.250   8.516   9.744
 2668WAT     H1 8246   8.244   8.495   9.646
 2668WAT     H2 8247   8.327   8.577   9.761
 2669WAT      O 8248   6.864   1.193   2.797
 2669WAT     H1 8249   6.939   1.144   2.842
 2669WAT     H2 8250   6.796   1.128   2.764
 2670WAT      O 8251   7.176   4.367   4.606
 2670WAT     H1 8252   7.196   4.407   4.695
 2670WAT     H2 8253   7.080   4.383   4.583
 2671WAT      O 8254   7.445   8.460   9.259
 2671WAT     H1 8255   7.509   8.384   9.248
 2671WAT     H2 8256   7.351   8.426   9.252
 2672WAT      O 8257   2.385   1.331   5.799
 2672WAT     H1 8258   2.303   1.296   5.754
 2672WAT     H2 8259   2.387   1.431   5.792
 2673WAT      O 8260   2.639   2.180   9.550
 2673WAT     H1 8261   2.698   2.207   9.626
 2673WAT     H2 8262   2.615   2.261   9.497
 2674WAT      O 8263   6.692   5.863   4.598
 2674WAT     H1 8264   6.650   5.786   4.644
 2674WAT     H2 8265   6.790   5.865   4.617
 2675WAT      O 8266   7.869   5.116   3.921
 2675WAT     H1 8267   7.867   5.093   3.824
 2675WAT     H2 8268   7.779   5.100   3.961
 2676WAT      O 8269   3.261   7.206   3.932
 2676WAT     H1 8270   3.280   7.174   4.025
 2676WAT     H2 8271   3.167   7.181   3.906
 2677WAT      O 8272   5.052   5.602   8.350
 2677WAT     H1 8273   5.109   5.542   8.406
 2677WAT     H2 8274   4.983   5.646   8.407
 2678WAT      O 8275   4.870   5.008   0.984
 2678WAT     H1 8276   4.936   4.939   0.955
 2678WAT     H2 8277   4.902   5.099   0.957
 2679WAT      O 8278   9.624   6.559   2.895
 2679WAT     H1 8279   9.599   6.512   2.980
 2679WAT     H2 8280   9.667   6.647   2.917
 2680WAT      O 8281   8.377   7.730   1.053
 2680WAT     H1 8282   8.328   7.798   1.000
 2680WAT     H2 8283   8.344   7.731   1.148
 2681WAT      O 8284   7.902   1.014   6.432
 2681WAT     H1 8285   7.872   1.030   6.526
 2681WAT     H2 8286   7.849   0.939   6.392
 2682WAT      O 8287   6.203   1.344   5.899
 2682WAT     H1 8288   6.121   1.295   5.868
 2682WAT     H2 8289   6.284   1.298   5.865
 2683WAT      O 8290   5.158   7.629   2.930
 2683WAT     H1 8291   5.206   7.716   2.922
 2683WAT     H2 8292   5.206   7.558   2.878
 2684WAT      O 8293   8.908   5.432   2.565
 2684WAT     H1 8294   8.991   5.383   2.539
 2684WAT     H2 8295   8.895   5.424   2.664
 2685WAT      O 8296   8.105   1.728   8.499
 2685WAT     H1 8297   8.141   1.644   8.461
 2685WAT     H2 8298   8.138   1.740   8.593
 2686WAT      O 8299   7.331   0.129   5.928
 2686WAT     H1 8300   7.353   0.179   6.011
 2686WAT     H2 8301   7.416   0.105   5.880
 2687WAT      O 8302   7.333   6.466   0.937
 2687WAT     H1 8303   7.322   6.368   0.955
 2687WAT     H2 8304   7.429   6.484   0.915
 2688WAT      O 8305   0.214   0.941   1.863
 2688WAT     H1 8306   0.235   1.030   1.823
 2688WAT     H2 8307   0.139   0.951   1.928
 2689WAT      O 8308   0.585   8.016   0.631
 2689WAT     H1 8309   0.667   7.984   0.583
 2689WAT     H2 8310   0.504   7.997   0.577
 2690WAT      O 8311   7.289   3.591   2.732
 2690WAT     H1 8312   7.317   3.605   2.637
 2690WAT     H2 8313   7.268   3.495   2.747
 2691WAT      O 8314   6.635   0.677   6.981
 2691WAT     H1 8315   6.688   0.757   7.009
 2691WAT     H2 8316   6.561   0.706   6.920
 2692WAT      O 8317   0.197   0.681   3.749
 2692WAT     H1 8318   0.104   0.718   3.747
 2692WAT     H2 8319   0.201   0.598   3.694
 2693WAT      O 8320   0.819   0.875   9.823
 2693WAT     H1 8321   0.898   0.915   9.870
 2693WAT     H2 8322   0.834   0.880   9.724
 2694WAT      O 8323   4.341   7.952   5.542
 2694WAT     H1 8324   4.256   7.902   5.563
 2694WAT     H2 8325   4.348   7.966   5.444
 2695WAT      O 8326   4.394   4.407   7.551
 2695WAT     H1 8327   4.442   4.414   7.638
 2695WAT     H2 8328   4.460   4.406   7.476
 2696WAT      O 8329   7.737   1.197   4.518
 2696WAT     H1 8330   7.754   1.288   4.481
 2696WAT     H2 8331   7.817   1.140   4.504
 2697WAT      O 8332   1.305   3.804   7.337
 2697WAT     H1 8333   1.210   3.836   7.343
 2697WAT     H2 8334   1.366   3.875   7.372
 2698WAT      O 8335   1.947   3.173   0.644
 2698WAT     H1 8336   2.009   3.252   0.646
 2698WAT     H2 8337   1.887   3.176   0.724
 2699WAT      O 8338   8.723   7.574   4.956
 2699WAT     H1 8339   8.757   7.480   4.968
 2699WAT     H2 8340   8.728   7.599   4.859
 2700WAT      O 8341   9.517   0.868   9.016
 2700WAT     H1 8342   9.473   0.884   8.928
 2700WAT     H2 8343   9.476   0.788   9.060
 2701WAT      O 8344   2.497   6.580   5.675
 2701WAT     H1 8345   2.548   6.639   5.613
 2701WAT     H2 8346   2.410   6.623   5.698
 2702WAT      O 8347   4.756   6.512   7.340
 2702WAT     H1 8348   4.750   6.456   7.256
 2702WAT     H2 8349   4.727   6.457   7.418
 2703WAT      O 8350   8.240   2.095   3.300
 2703WAT     H1 8351   8.149   2.128   3.325
 2703WAT     H2 8352   8.296   2.085   3.382
 2704WAT      O 8353   1.543   5.699   4.054
 2704WAT     H1 8354   1.598   5.775   4.020
 2704WAT     H2 8355   1.596   5.646   4.120
 2705WAT      O 8356   6.247   5.051   7.836
 2705WAT     H1 8357   6.312   5.122   7.809
 2705WAT     H2 8358   6.293   4.962   7.834
 2706WAT      O 8359   5.996   7.632   8.431
 2706WAT     H1 8360   5.940   7.663   8.354
 2706WAT     H2 8361   6.087   7.608   8.397
 2707WAT      O 8362   3.274   5.516   1.309
 2707WAT     H1 8363   3.372   5.514   1.292
 2707WAT     H2 8364   3.230   5.584   1.250
 2708WAT      O 8365   8.736   7.782   3.660
 2708WAT     H1 8366   8.812   7.843   3.639
 2708WAT     H2 8367   8.730   7.711   3.589
 2709WAT      O 8368   1.480   9.714   2.108
 2709WAT     H1 8369   1.572   9.674   2.109
 2709WAT     H2 8370   1.441   9.704   2.016
 2710WAT      O 8371   8.101   8.495   0.414
 2710WAT     H1 8372   8.113   8.452   0.504
 2710WAT     H2 8373   8.043   8.436   0.357
 2711WAT      O 8374   5.294   0.418   7.511
 2711WAT     H1 8375   5.236   0.337   7.506
 2711WAT     H2 8376   5.237   0.500   7.507
 2712WAT      O 8377   1.495   4.118   7.860
 2712WAT     H1 8378   1.525   4.126   7.955
 2712WAT     H2 8379   1.408   4.166   7.849
 2713WAT      O 8380   6.668   6.569   5.734
 2713WAT     H1 8381   6.715   6.522   5.659
 2713WAT     H2 8382   6.648   6.663   5.706
 2714WAT      O 8383   1.243   4.470   1.742
 2714WAT     H1 8384   1.265   4.516   1.656
 2714WAT     H2 8385   1.166   4.408   1.727
 2715WAT      O 8386   9.580   7.476   1.186
 2715WAT     H1 8387   9.503   7.488   1.123
 2715WAT     H2 8388   9.664   7.506   1.142
 2716WAT      O 8389   8.870   7.514   4.365
 2716WAT     H1 8390   8.873   7.429   4.417
 2716WAT     H2 8391   8.936   7.579   4.403
 2717WAT      O 8392   6.386   4.290   6.091
 2717WAT     H1 8393   6.327   4.328   6.019
 2717WAT     H2 8394   6.377   4.190   6.090
 2718WAT      O 8395   9.541   1.063   9.200
 2718WAT     H1 8396   9.534   0.976   9.153
 2718WAT     H2 8397   9.558   1.047   9.297
 2719WAT      O 8398   9.046   8.840   1.817
 2719WAT     H1 8399   9.028   8.830   1.915
 2719WAT     H2 8400   9.099   8.761   1.785
 2720WAT      O 8401   8.902   9.028   6.950
 2720WAT     H1 8402   8.958   8.980   7.017
 2720WAT     H2 8403   8.807   9.032   6.982
 2721WAT      O 8404   6.191   9.476   1.016
 2721WAT     H1 8405   6.143   9.488   0.929
 2721WAT     H2 8406   6.266   9.542   1.022
 2722WAT      O 8407   4.551   0.218   1.677
 2722WAT     H1 8408   4.523   0.239   1.771
 2722WAT     H2 8409   4.511   0.284   1.615
 2723WAT      O 8410   8.014   9.617   8.541
 2723WAT     H1 8411   8.063   9.661   8.466
 2723WAT     H2 8412   7.926   9.584   8.508
 2724WAT      O 8413   8.928   6.372   3.751
 2724WAT     H1 8414   8.866   6.424   3.809
 2724WAT     H2 8415   8.876   6.324   3.681
 2725WAT      O 8416   2.323   5.330   7.794
 2725WAT     H1 8417   2.328   5.385   7.877
 2725WAT     H2 8418   2.229   5.330   7.759
 2726WAT      O 8419   7.832   2.057   5.569
 2726WAT     H1 8420   7.783   2.142   5.552
 2726WAT     H2 8421   7.870   2.023   5.483
 2727WAT      O 8422   9.198   0.976   8.261
 2727WAT     H1 8423   9.114   0.922   8.266
 2727WAT     H2 8424   9.266   0.938   8.323
 2728WAT      O 8425   5.815   9.827   2.830
 2728WAT     H1 8426   5.810   9.847   2.928
 2728WAT     H2 8427   5.861   9.903   2.783
 2729WAT      O 8428   1.931   1.356   4.137
 2729WAT     H1 8429   1.938   1.257   4.121
 2729WAT     H2 8430   1.962   1.376   4.230
 2730WAT      O 8431   8.304   1.511   2.757
 2730WAT     H1 8432   8.374   1.581   2.746
 2730WAT     H2 8433   8.298   1.456   2.674
 2731WAT      O 8434   5.333   4.240   8.067
 2731WAT     H1 8435   5.248   4.201   8.032
 2731WAT     H2 8436   5.317   4.334   8.098
 2732WAT      O 8437   8.132   5.844   0.908
 2732WAT     H1 8438   8.151   5.930   0.954
 2732WAT     H2 8439   8.062   5.794   0.960
 2733WAT      O 8440   3.891   9.671   5.670
 2733WAT     H1 8441   3.808   9.722   5.648
 2733WAT     H2 8442   3.893   9.586   5.617
 2734WAT      O 8443   1.990   3.609   8.469
 2734WAT     H1 8444   2.059   3.538   8.456
 2734WAT     H2 8445   1.953   3.637   8.380
 2735WAT      O 8446   1.201   8.376   7.167
 2735WAT     H1 8447   1.177   8.300   7.226
 2735WAT     H2 8448   1.258   8.441   7.217
 2736WAT      O 8449   2.588   7.643   5.446
 2736WAT     H1 8450   2.543   7.575   5.388
 2736WAT     H2 8451   2.623   7.598   5.528
 2737WAT      O 8452   8.567   0.272   6.544
 2737WAT     H1 8453   8.619   0.239   6.465
 2737WAT     H2 8454   8.622   0.263   6.627
 2738WAT      O 8455   1.773   2.926   7.572
 2738WAT     H1 8456   1.750   2.828   7.566
 2738WAT     H2 8457   1.781   2.964   7.480
 2739WAT      O 8458   2.837   6.456   9.404
 2739WAT     H1 8459   2.742   6.432   9.386
 2739WAT     H2 8460   2.862   6.537   9.350
 2740WAT      O 8461   4.328   0.625   2.549
 2740WAT     H1 8462   4.417   0.642   2.508
 2740WAT     H2 8463   4.299   0.531   2.530
 2741WAT      O 8464   1.282   5.362   6.389
 2741WAT     H1 8465   1.287   5.365   6.289
 2741WAT     H2 8466   1.197   5.406   6.419
 2742WAT      O 8467   2.914   4.235   4.352
 2742WAT     H1 8468   2.898   4.317   4.407
 2742WAT     H2 8469   2.842   4.226   4.284
 2743WAT      O 8470   8.156   7.522   7.811
 2743WAT     H1 8471   8.209   7.568   7.740
 2743WAT     H2 8472   8.144   7.583   7.889
 2744WAT      O 8473   7.146   0.858   0.685
 2744WAT     H1 8474   7.181   0.778   0.636
 2744WAT     H2 8475   7.222   0.918   0.709
 2745WAT      O 8476   9.646   3.667   4.600
 2745WAT     H1 8477   9.709   3.738   4.630
 2745WAT     H2 8478   9.690   3.577   4.607
 2746WAT      O 8479   1.086   2.415   9.670
 2746WAT     H1 8480   1.045   2.471   9.742
 2746WAT     H2 8481   1.172   2.455   9.641
 2747WAT      O 8482   9.646   1.877   0.073
 2747WAT     H1 8483   9.696   1.824   0.004
 2747WAT     H2 8484   9.621   1.966   0.035
 2748WAT      O 8485   5.548   1.166   2.160
 2748WAT     H1 8486   5.623   1.113   2.121
 2748WAT     H2 8487   5.571   1.263   2.159
 2749WAT      O 8488   7.948   7.680   4.705
 2749WAT     H1 8489   7.996   7.765   4.687
 2749WAT     H2 8490   8.007   7.618   4.757
 2750WAT      O 8491   9.890   1.399   9.277
 2750WAT     H1 8492   9.929   1.467   9.215
 2750WAT     H2 8493   9.824   1.342   9.228
 2751WAT      O 8494   5.873   9.714   6.222
 2751WAT     H1 8495   5.832   9.716   6.131
 2751WAT     H2 8496   5.935   9.636   6.229
 2752WAT      O 8497   0.952   5.702   5.096
 2752WAT     H1 8498   0.998   5.781   5.136
 2752WAT     H2 8499   1.016   5.624   5.095
 2753WAT      O 8500   2.467   7.074   9.172
 2753WAT     H1 8501   2.566   7.076   9.165
 2753WAT     H2 8502   2.430   7.007   9.107
 2754WAT      O 8503   9.513   2.785   6.956
 2754WAT     H1 8504   9.442   2.716   6.971
 2754WAT     H2 8505   9.487   2.869   7.004
 2755WAT      O 8506   7.204   6.530   8.909
 2755WAT     H1 8507   7.155   6.616   8.923
 2755WAT     H2 8508   7.236   6.525   8.815
 2756WAT      O 8509   8.643   1.648   7.087
 2756WAT     H1 8510   8.612   1.659   7.181
 2756WAT     H2 8511   8.697   1.564   7.079
 2757WAT      O 8512   3.653   4.056   3.666
 2757WAT     H1 8513   3.651   3.960   3.693
 2757WAT     H2 8514   3.670   4.063   3.568
 2758WAT      O 8515   9.658   5.772   7.547
 2758WAT     H1 8516   9.582   5.717   7.583
 2758WAT     H2 8517   9.626   5.829   7.472
 2759WAT      O 8518   4.943   8.141   4.046
 2759WAT     H1 8519   4.926   8.153   4.144
 2759WAT     H2 8520   4.936   8.230   4.000
 2760WAT      O 8521   8.945   4.678   6.636
 2760WAT     H1 8522   8.955   4.732   6.552
 2760WAT     H2 8523   8.878   4.721   6.696
 2761WAT      O 8524   7.527   1.540   5.042
 2761WAT     H1 8525   7.464   1.617   5.030
 2761WAT     H2 8526   7.582   1.529   4.960
 2762WAT      O 8527   6.354   3.166   5.941
 2762WAT     H1 8528   6.388   3.246   5.891
 2762WAT     H2 8529   6.259   3.182   5.967
 2763WAT      O 8530   5.512   1.250   3.778
 2763WAT     H1 8531   5.472   1.160   3.795
 2763WAT     H2 8532   5.600   1.240   3.733
 2764WAT      O 8533   5.278   5.932   0.987
 2764WAT     H1 8534   5.322   5.888   0.909
 2764WAT     H2 8535   5.261   5.863   1.058
 2765WAT      O 8536   1.704   7.713   5.672
 2765WAT     H1 8537   1.789   7.699   5.621
 2765WAT     H2 8538   1.678   7.627   5.716
 2766WAT      O 8539   8.569   9.552   5.009
 2766WAT     H1 8540   8.472   9.549   4.982
 2766WAT     H2 8541   8.595   9.646   5.030
 2767WAT      O 8542   7.573   6.765   4.462
 2767WAT     H1 8543   7.556   6.721   4.374
 2767WAT     H2 8544   7.520   6.718   4.533
 2768WAT      O 8545   5.451   2.163   4.536
 2768WAT     H1 8546   5.520   2.092   4.521
 2768WAT     H2 8547   5.362   2.131   4.505
 2769WAT      O 8548   7.283   0.488   8.368
 2769WAT     H1 8549   7.283   0.499   8.468
 2769WAT     H2 8550   7.319   0.399   8.344
 2770WAT      O 8551   0.004   6.197   5.536
 2770WAT     H1 8552   0.089   6.234   5.500
 2770WAT     H2 8553   0.002   6.209   5.635
 2771WAT      O 8554   0.700   3.479   9.703
 2771WAT     H1 8555   0.606   3.494   9.672
 2771WAT     H2 8556   0.757   3.455   9.625
 2772WAT      O 8557   0.502   3.291   7.927
 2772WAT     H1 8558   0.575   3.307   7.861
 2772WAT     H2 8559   0.415   3.280   7.878
 2773WAT      O 8560   9.624   3.605   6.895
 2773WAT     H1 8561   9.613   3.701   6.922
 2773WAT     H2 8562   9.722   3.584   6.886
 2774WAT      O 8563   0.396   3.530   2.428
 2774WAT     H1 8564   0.313   3.585   2.426
 2774WAT     H2 8565   0.398   3.470   2.348
 2775WAT      O 8566   2.007   3.159   3.144
 2775WAT     H1 8567   2.097   3.124   3.119
 2775WAT     H2 8568   2.000   3.166   3.243
 2776WAT      O 8569   1.373   2.868   4.550
 2776WAT     H1 8570   1.465   2.837   4.525
 2776WAT     H2 8571   1.368   2.968   4.541
 2777WAT      O 8572   2.244   8.557   2.731
 2777WAT     H1 8573   2.275   8.622   2.661
 2777WAT     H2 8574   2.148   8.576   2.752
 2778WAT      O 8575   6.611   4.186   3.273
 2778WAT     H1 8576   6.626   4.179   3.174
 2778WAT     H2 8577   6.698   4.205   3.318
 2779WAT      O 8578   4.057   7.810   6.494
 2779WAT     H1 8579   4.068   7.711   6.479
 2779WAT     H2 8580   4.063   7.830   6.591
 2780WAT      O 8581   3.165   2.978   2.523
 2780WAT     H1 8582   3.189   2.987   2.619
 2780WAT     H2 8583   3.070   3.007   2.509
 2781WAT      O 8584   5.849   3.083   9.574
 2781WAT     H1 8585   5.828   3.130   9.660
 2781WAT     H2 8586   5.791   3.118   9.502
 2782WAT      O 8587   6.489   8.407   6.387
 2782WAT     H1 8588   6.532   8.354   6.460
 2782WAT     H2 8589   6.410   8.456   6.423
 2783WAT      O 8590   7.187   6.305   6.293
 2783WAT     H1 8591   7.117   6.351   6.348
 2783WAT     H2 8592   7.267   6.287   6.350
 2784WAT      O 8593   0.092   9.697   2.875
 2784WAT     H1 8594   0.117   9.792   2.892
 2784WAT     H2 8595  -0.007   9.687   2.879
 2785WAT      O 8596   8.525   9.827   5.057
 2785WAT     H1 8597   8.615   9.833   5.100
 2785WAT     H2 8598   8.456   9.865   5.118
 2786WAT      O 8599   6.922   8.041   8.709
 2786WAT     H1 8600   6.986   8.023   8.634
 2786WAT     H2 8601   6.881   8.131   8.697
 2787WAT      O 8602   1.582   2.570   8.313
 2787WAT     H1 8603   1.655   2.608   8.369
 2787WAT     H2 8604   1.621   2.512   8.242
 2788WAT      O 8605   0.323   2.195   2.592
 2788WAT     H1 8606   0.422   2.187   2.600
 2788WAT     H2 8607   0.298   2.292   2.586
 2789WAT      O 8608   0.205   7.984   6.575
 2789WAT     H1 8609   0.199   8.064   6.634
 2789WAT     H2 8610   0.264   8.004   6.497
 2790WAT      O 8611   7.101   9.526   8.105
 2790WAT     H1 8612   7.039   9.449   8.122
 2790WAT     H2 8613   7.166   9.501   8.033
 2791WAT      O 8614   2.289   6.141   0.217
 2791WAT     H1 8615   2.244   6.152   0.128
 2791WAT     H2 8616   2.388   6.138   0.205
 2792WAT      O 8617   8.114   0.137   3.908
 2792WAT     H1 8618   8.098   0.134   3.809
 2792WAT     H2 8619   8.198   0.087   3.929
 2793WAT      O 8620   8.869   0.496   4.206
 2793WAT     H1 8621   8.819   0.416   4.173
 2793WAT     H2 8622   8.825   0.579   4.170
 2794WAT      O 8623   7.312   8.000   2.073
 2794WAT     H1 8624   7.239   7.986   2.139
 2794WAT     H2 8625   7.373   8.073   2.105
 2795WAT      O 8626   6.304   3.263   3.368
 2795WAT     H1 8627   6.224   3.243   3.312
 2795WAT     H2 8628   6.280   3.329   3.439
 2796WAT      O 8629   5.293   7.766   1.950
 2796WAT     H1 8630   5.258   7.793   1.860
 2796WAT     H2 8631   5.229   7.702   1.993
 2797WAT      O 8632   3.991   4.387   3.902
 2797WAT     H1 8633   4.034   4.427   3.821
 2797WAT     H2 8634   3.909   4.439   3.925
 2798WAT      O 8635   2.545   3.334   2.024
 2798WAT     H1 8636   2.453   3.372   2.024
 2798WAT     H2 8637   2.598   3.374   1.949
 2799WAT      O 8638   8.227   9.775   4.660
 2799WAT     H1 8639   8.305   9.816   4.708
 2799WAT     H2 8640   8.170   9.725   4.726
 2800WAT      O 8641   8.051   0.080   0.951
 2800WAT     H1 8642   8.068   0.171   0.913
 2800WAT     H2 8643   8.098   0.070   1.039
 2801WAT      O 8644   6.233   1.054   2.036
 2801WAT     H1 8645   6.283   1.098   2.110
 2801WAT     H2 8646   6.290   1.055   1.953
 2802WAT      O 8647   8.111   6.873   4.513
 2802WAT     H1 8648   8.191   6.857   4.571
 2802WAT     H2 8649   8.044   6.928   4.563
 2803WAT      O 8650   2.671   5.929   3.010
 2803WAT     H1 8651   2.639   6.020   2.985
 2803WAT     H2 8652   2.759   5.911   2.966
 2804WAT      O 8653   9.251   1.868   5.841
 2804WAT     H1 8654   9.174   1.817   5.803
 2804WAT     H2 8655   9.218   1.930   5.913
 2805WAT      O 8656   9.672   8.636   6.789
 2805WAT     H1 8657   9.751   8.653   6.730
 2805WAT     H2 8658   9.678   8.693   6.870
 2806WAT      O 8659   1.242   1.583   3.264
 2806WAT     H1 8660   1.261   1.629   3.177
 2806WAT     H2 8661   1.182   1.641   3.320
 2807WAT      O 8662   4.010   5.215   3.209
 2807WAT     H1 8663   3.919   5.247   3.184
 2807WAT     H2 8664   4.060   5.290   3.253
 2808WAT      O 8665   8.842   1.288   8.084
 2808WAT     H1 8666   8.893   1.236   8.016
 2808WAT     H2 8667   8.744   1.281   8.065
 2809WAT      O 8668   7.876   8.285   0.921
 2809WAT     H1 8669   7.793   8.289   0.865
 2809WAT     H2 8670   7.954   8.317   0.868
 2810WAT      O 8671   5.110   4.691   8.570
 2810WAT     H1 8672   5.176   4.767   8.569
 2810WAT     H2 8673   5.117   4.639   8.485
 2811WAT      O 8674   6.178   9.533   8.278
 2811WAT     H1 8675   6.093   9.538   8.330
 2811WAT     H2 8676   6.256   9.530   8.341
 2812WAT      O 8677   2.844   7.949   4.190
 2812WAT     H1 8678   2.873   7.868   4.241
 2812WAT     H2 8679   2.924   8.001   4.162
 2813WAT      O 8680   2.058   5.813   0.842
 2813WAT     H1 8681   2.122   5.889   0.837
 2813WAT     H2 8682   2.000   5.823   0.924
 2814WAT      O 8683   4.282   8.704   4.938
 2814WAT     H1 8684   4.193   8.689   4.895
 2814WAT     H2 8685   4.331   8.617   4.943
 2815WAT      O 8686   8.790   8.953   8.760
 2815WAT     H1 8687   8.760   8.873   8.707
 2815WAT     H2 8688   8.739   9.034   8.729
 2816WAT      O 8689   0.687   6.949   0.281
 2816WAT     H1 8690   0.688   6.863   0.331
 2816WAT     H2 8691   0.765   7.006   0.310
 2817WAT      O 8692   6.083   9.524   5.598
 2817WAT     H1 8693   6.168   9.481   5.567
 2817WAT     H2 8694   6.056   9.484   5.686
 2818WAT      O 8695   3.612   6.025   0.437
 2818WAT     H1 8696   3.548   6.055   0.366
 2818WAT     H2 8697   3.585   6.066   0.525
 2819WAT      O 8698   4.897   0.523   5.628
 2819WAT     H1 8699   4.955   0.602   5.606
 2819WAT     H2 8700   4.801   0.547   5.611
 2820WAT      O 8701   0.707   3.412   3.593
 2820WAT     H1 8702   0.748   3.456   3.673
 2820WAT     H2 8703   0.646   3.476   3.547
 2821WAT      O 8704   3.520   2.128   8.633
 2821WAT     H1 8705   3.442   2.066   8.639
 2821WAT     H2 8706   3.487   2.221   8.619
 2822WAT      O 8707   3.124   4.158   5.349
 2822WAT     H1 8708   3.039   4.131   5.304
 2822WAT     H2 8709   3.197   4.165   5.281
 2823WAT      O 8710   4.728   1.306   6.347
 2823WAT     H1 8711   4.756   1.314   6.443
 2823WAT     H2 8712   4.650   1.366   6.330
 2824WAT      O 8713   6.005   8.503   1.024
 2824WAT     H1 8714   5.986   8.446   0.944
 2824WAT     H2 8715   6.066   8.577   0.998
 2825WAT      O 8716   8.196   4.240   1.032
 2825WAT     H1 8717   8.101   4.248   1.001
 2825WAT     H2 8718   8.257   4.231   0.953
 2826WAT      O 8719   5.159   4.591   9.885
 2826WAT     H1 8720   5.255   4.564   9.882
 2826WAT     H2 8721   5.101   4.510   9.869
 2827WAT      O 8722   3.501   7.905   0.141
 2827WAT     H1 8723   3.567   7.836   0.170
 2827WAT     H2 8724   3.522   7.992   0.184
 2828WAT      O 8725   9.686   4.753   3.285
 2828WAT     H1 8726   9.612   4.689   3.265
 2828WAT     H2 8727   9.684   4.828   3.219
 2829WAT      O 8728   0.857   6.990   7.995
 2829WAT     H1 8729   0.890   6.950   8.081
 2829WAT     H2 8730   0.935   7.009   7.935
 2830WAT      O 8731   9.848   7.283   9.585
 2830WAT     H1 8732   9.908   7.359   9.609
 2830WAT     H2 8733   9.800   7.251   9.667
 2831WAT      O 8734   7.990   4.716   1.745
 2831WAT     H1 8735   8.031   4.625   1.751
 2831WAT     H2 8736   8.010   4.767   1.829
 2832WAT      O 8737   3.413   2.794   2.727
 2832WAT     H1 8738   3.388   2.727   2.796
 2832WAT     H2 8739   3.374   2.883   2.751
 2833WAT      O 8740   5.386   4.988   3.663
 2833WAT     H1 8741   5.385   4.988   3.763
 2833WAT     H2 8742   5.332   4.911   3.629
 2834WAT      O 8743   8.269   4.406   2.871
 2834WAT     H1 8744   8.238   4.316   2.839
 2834WAT     H2 8745   8.321   4.450   2.798
 2835WAT      O 8746   3.606   4.936   0.552
 2835WAT     H1 8747   3.544   4.896   0.619
 2835WAT     H2 8748   3.641   4.864   0.491
 2836WAT      O 8749   7.655   8.272   8.104
 2836WAT     H1 8750   7.700   8.183   8.098
 2836WAT     H2 8751   7.604   8.289   8.020
 2837WAT      O 8752   8.223   7.169   3.640
 2837WAT     H1 8753   8.216   7.262   3.677
 2837WAT     H2 8754   8.135   7.142   3.601
 2838WAT      O 8755   0.474   9.569   9.600
 2838WAT     H1 8756   0.528   9.565   9.684
 2838WAT     H2 8757   0.440   9.662   9.587
 2839WAT      O 8758   8.426   1.204   0.732
 2839WAT     H1 8759   8.354   1.199   0.662
 2839WAT     H2 8760   8.422   1.294   0.777
 2840WAT      O 8761   3.954   6.299   3.862
 2840WAT     H1 8762   4.007   6.383   3.876
 2840WAT     H2 8763   3.860   6.322   3.837
 2841WAT      O 8764   4.934   7.062   9.506
 2841WAT     H1 8765   4.889   6.989   9.559
 2841WAT     H2 8766   5.022   7.084   9.549
 2842WAT      O 8767   8.018   7.440   3.721
 2842WAT     H1 8768   8.055   7.517   3.774
 2842WAT     H2 8769   8.041   7.453   3.625
 2843WAT      O 8770   4.682   0.175   8.485
 2843WAT     H1 8771   4.731   0.247   8.532
 2843WAT     H2 8772   4.647   0.109   8.552
 2844WAT      O 8773   8.501   2.475   5.441
 2844WAT     H1 8774   8.594   2.447   5.465
 2844WAT     H2 8775   8.436   2.407   5.476
 2845WAT      O 8776   5.573   6.532   8.447
 2845WAT     H1 8777   5.624   6.528   8.361
 2845WAT     H2 8778   5.631   6.498   8.522
 2846WAT      O 8779   5.416   9.336   1.332
 2846WAT     H1 8780   5.448   9.327   1.238
 2846WAT     H2 8781   5.326   9.293   1.341
 2847WAT      O 8782   1.307   8.503   4.059
 2847WAT     H1 8783   1.242   8.518   3.986
 2847WAT     H2 8784   1.327   8.591   4.104
 2848WAT      O 8785   4.748   9.330   9.134
 2848WAT     H1 8786   4.776   9.234   9.125
 2848WAT     H2 8787   4.681   9.338   9.208
 2849WAT      O 8788   2.383   5.029   6.883
 2849WAT     H1 8789   2.377   4.971   6.802
 2849WAT     H2 8790   2.332   5.114   6.867
 2850WAT      O 8791   6.824   5.813   1.087
 2850WAT     H1 8792   6.889   5.738   1.071
 2850WAT     H2 8793   6.829   5.878   1.012
 2851WAT      O 8794   8.204   7.243   1.966
 2851WAT     H1 8795   8.112   7.282   1.958
 2851WAT     H2 8796   8.239   7.222   1.875
 2852WAT      O 8797   9.810   9.158   0.497
 2852WAT     H1 8798   9.883   9.102   0.535
 2852WAT     H2 8799   9.809   9.149   0.398
 2853WAT      O 8800   0.916   6.492   7.307
 2853WAT     H1 8801   0.917   6.429   7.384
 2853WAT     H2 8802   0.950   6.446   7.225
 2854WAT      O 8803   0.922   3.961   6.072
 2854WAT     H1 8804   0.947   4.057   6.083
 2854WAT     H2 8805   0.980   3.920   6.002
 2855WAT      O 8806   7.334   9.197   5.848
 2855WAT     H1 8807   7.393   9.121   5.819
 2855WAT     H2 8808   7.351   9.218   5.944
 2856WAT      O 8809   2.870   6.189   1.357
 2856WAT     H1 8810   2.802   6.119   1.332
 2856WAT     H2 8811   2.871   6.261   1.287
 2857WAT      O 8812   4.438   1.823   1.515
 2857WAT     H1 8813   4.515   1.884   1.496
 2857WAT     H2 8814   4.363   1.874   1.556
 2858WAT      O 8815   0.382   7.201   6.621
 2858WAT     H1 8816   0.453   7.253   6.667
 2858WAT     H2 8817   0.399   7.103   6.633
 2859WAT      O 8818   2.126   5.546   9.513
 2859WAT     H1 8819   2.082   5.597   9.439
 2859WAT     H2 8820   2.100   5.450   9.509
 2860WAT      O 8821   1.482   2.153   4.610
 2860WAT     H1 8822   1.542   2.148   4.690
 2860WAT     H2 8823   1.492   2.243   4.566
 2861WAT      O 8824   8.393   8.561   3.772
 2861WAT     H1 8825   8.400   8.547   3.673
 2861WAT     H2 8826   8.413   8.475   3.820
 2862WAT      O 8827   8.227   5.066   2.866
 2862WAT     H1 8828   8.226   5.126   2.785
 2862WAT     H2 8829   8.214   5.121   2.948
 2863WAT      O 8830   5.100   1.339   7.577
 2863WAT     H1 8831   5.094   1.242   7.552
 2863WAT     H2 8832   5.167   1.385   7.520
 2864WAT      O 8833   8.107   2.392   8.354
 2864WAT     H1 8834   8.087   2.441   8.269
 2864WAT     H2 8835   8.078   2.447   8.432
 2865WAT      O 8836   4.035   8.872   6.897
 2865WAT     H1 8837   4.088   8.820   6.830
 2865WAT     H2 8838   4.031   8.822   6.983
 2866WAT      O 8839   3.389   0.184   2.185
 2866WAT     H1 8840   3.460   0.180   2.256
 2866WAT     H2 8841   3.302   0.206   2.228
 2867WAT      O 8842   4.612   4.960   7.267
 2867WAT     H1 8843   4.665   4.996   7.344
 2867WAT     H2 8844   4.518   4.942   7.296
 2868WAT      O 8845   5.242   3.303   2.902
 2868WAT     H1 8846   5.241   3.364   2.981
 2868WAT     H2 8847   5.180   3.339   2.832
 2869WAT      O 8848   4.177   7.399   8.823
 2869WAT     H1 8849   4.254   7.340   8.797
 2869WAT     H2 8850   4.092   7.347   8.818
 2870WAT      O 8851   4.184   2.571   7.463
 2870WAT     H1 8852   4.112   2.502   7.472
 2870WAT     H2 8853   4.273   2.529   7.480
 2871WAT      O 8854   6.944   8.888   1.188
 2871WAT     H1 8855   7.003   8.843   1.121
 2871WAT     H2 8856   6.937   8.830   1.270
 2872WAT      O 8857   8.736   2.519   5.854
 2872WAT     H1 8858   8.698   2.612   5.851
 2872WAT     H2 8859   8.834   2.524   5.872
 2873WAT      O 8860   5.312   0.228   3.090
 2873WAT     H1 8861   5.357   0.242   3.178
 2873WAT     H2 8862   5.347   0.145   3.047
 2874WAT      O 8863   2.731   2.696   3.019
 2874WAT     H1 8864   2.785   2.623   2.978
 2874WAT     H2 8865   2.638   2.662   3.038
 2875WAT      O 8866   3.614   8.528   8.063
 2875WAT     H1 8867   3.690   8.538   8.126
 2875WAT     H2 8868   3.609   8.433   8.031
 2876WAT      O 8869   1.511   5.561   7.383
 2876WAT     H1 8870   1.480   5.518   7.468
 2876WAT     H2 8871   1.510   5.493   7.309
 2877WAT      O 8872   3.818   6.317   3.521
 2877WAT     H1 8873   3.913   6.287   3.528
 2877WAT     H2 8874   3.769   6.294   3.606
 2878WAT      O 8875   0.922   2.299   8.135
 2878WAT     H1 8876   1.002   2.245   8.110
 2878WAT     H2 8877   0.940   2.347   8.221
 2879WAT      O 8878   5.206   7.028   4.932
 2879WAT     H1 8879   5.293   7.055   4.890
 2879WAT     H2 8880   5.224   6.983   5.020
 2880WAT      O 8881   2.424   2.665   3.009
 2880WAT     H1 8882   2.333   2.692   3.042
 2880WAT     H2 8883   2.441   2.569   3.034
 2881WAT      O 8884   4.300   8.244   5.422
 2881WAT     H1 8885   4.383   8.300   5.433
 2881WAT     H2 8886   4.325   8.157   5.379
 2882WAT      O 8887   2.284   1.880   4.460
 2882WAT     H1 8888   2.377   1.906   4.488
 2882WAT     H2 8889   2.232   1.963   4.439
 2883WAT      O 8890   2.451   6.678   4.493
 2883WAT     H1 8891   2.372   6.619   4.479
 2883WAT     H2 8892   2.455   6.746   4.419
 2884WAT      O 8893   4.836   9.461   3.952
 2884WAT     H1 8894   4.758   9.464   4.014
 2884WAT     H2 8895   4.887   9.548   3.958
 2885WAT      O 8896   0.251   1.653   1.686
 2885WAT     H1 8897   0.264   1.610   1.775
 2885WAT     H2 8898   0.287   1.593   1.615
 2886WAT      O 8899   2.289   3.388   2.200
 2886WAT     H1 8900   2.286   3.476   2.247
 2886WAT     H2 8901   2.240   3.396   2.113
 2887WAT      O 8902   8.878   2.221   9.143
 2887WAT     H1 8903   8.839   2.244   9.053
 2887WAT     H2 8904   8.959   2.277   9.159
 2888WAT      O 8905   4.196   0.396   0.024
 2888WAT     H1 8906   4.231   0.443  -0.057
 2888WAT     H2 8907   4.116   0.342  -0.001
 2889WAT      O 8908   4.300   1.539   2.734
 2889WAT     H1 8909   4.259   1.618   2.689
 2889WAT     H2 8910   4.372   1.569   2.796
 2890WAT      O 8911   2.246   0.759   1.532
 2890WAT     H1 8912   2.297   0.811   1.600
 2890WAT     H2 8913   2.205   0.679   1.575
 2891WAT      O 8914   5.160   8.173   5.684
 2891WAT     H1 8915   5.228   8.111   5.644
 2891WAT     H2 8916   5.081   8.120   5.715
 2892WAT      O 8917   0.880   6.266   5.608
 2892WAT     H1 8918   0.900   6.362   5.588
 2892WAT     H2 8919   0.801   6.261   5.669
 2893WAT      O 8920   3.884   6.819   0.467
 2893WAT     H1 8921   3.786   6.816   0.443
 2893WAT     H2 8922   3.932   6.748   0.417
 2894WAT      O 8923   8.428   8.837   0.592
 2894WAT     H1 8924   8.351   8.876   0.642
 2894WAT     H2 8925   8.395   8.798   0.506
 2895WAT      O 8926   3.638   7.625   8.463
 2895WAT     H1 8927   3.577   7.583   8.395
 2895WAT     H2 8928   3.586   7.690   8.518
 2896WAT      O 8929   4.116   1.445   7.463
 2896WAT     H1 8930   4.093   1.482   7.373
 2896WAT     H2 8931   4.114   1.519   7.530
 2897WAT      O 8932   2.057   3.698   9.330
 2897WAT     H1 8933   2.063   3.633   9.405
 2897WAT     H2 8934   2.126   3.770   9.342
 2898WAT      O 8935   8.683   3.707   0.358
 2898WAT     H1 8936   8.664   3.646   0.436
 2898WAT     H2 8937   8.598   3.746   0.324
 2899WAT      O 8938   6.081   3.661   8.301
 2899WAT     H1 8939   6.041   3.595   8.237
 2899WAT     H2 8940   6.022   3.671   8.381
 2900WAT      O 8941   9.596   8.925   4.154
 2900WAT     H1 8942   9.545   8.840   4.170
 2900WAT     H2 8943   9.663   8.911   4.082
 2901WAT      O 8944   8.358   7.971   1.669
 2901WAT     H1 8945   8.404   7.902   1.614
 2901WAT     H2 8946   8.406   7.983   1.756
 2902WAT      O 8947   0.285   3.837   9.333
 2902WAT     H1 8948   0.190   3.849   9.307
 2902WAT     H2 8949   0.341   3.818   9.252
 2903WAT      O 8950   4.240   5.050   7.661
 2903WAT     H1 8951   4.250   5.100   7.575
 2903WAT     H2 8952   4.148   5.010   7.665
 2904WAT      O 8953   3.608   4.313   6.465
 2904WAT     H1 8954   3.540   4.259   6.514
 2904WAT     H2 8955   3.671   4.252   6.416
 2905WAT      O 8956   9.256   1.179   1.193
 2905WAT     H1 8957   9.167   1.190   1.237
 2905WAT     H2 8958   9.263   1.088   1.152
 2906WAT      O 8959   2.825   1.628   5.166
 2906WAT     H1 8960   2.765   1.627   5.246
 2906WAT     H2 8961   2.890   1.553   5.172
 2907WAT      O 8962   6.429   8.863   5.321
 2907WAT     H1 8963   6.502   8.909   5.371
 2907WAT     H2 8964   6.436   8.764   5.334
 2908WAT      O 8965   7.372   7.081   6.389
 2908WAT     H1 8966   7.436   7.024   6.337
 2908WAT     H2 8967   7.313   7.131   6.326
 2909WAT      O 8968   2.558   6.057   3.430
 2909WAT     H1 8969   2.508   6.101   3.355
 2909WAT     H2 8970   2.653   6.087   3.430
 2910WAT      O 8971   3.328   1.953   8.402
 2910WAT     H1 8972   3.277   2.027   8.358
 2910WAT     H2 8973   3.315   1.958   8.501
 2911WAT      O 8974   8.341   5.100   7.460
 2911WAT     H1 8975   8.362   5.192   7.494
 2911WAT     H2 8976   8.354   5.097   7.361
 2912WAT      O 8977   0.227   5.303   8.896
 2912WAT     H1 8978   0.281   5.281   8.978
 2912WAT     H2 8979   0.176   5.387   8.911
 2913WAT      O 8980   0.586   9.674   3.732
 2913WAT     H1 8981   0.621   9.749   3.675
 2913WAT     H2 8982   0.561   9.597   3.673
 2914WAT      O 8983   9.191   5.374   2.834
 2914WAT     H1 8984   9.278   5.353   2.787
 2914WAT     H2 8985   9.173   5.472   2.828
 2915WAT      O 8986   2.719   4.414   8.972
 2915WAT     H1 8987   2.649   4.485   8.975
 2915WAT     H2 8988   2.729   4.382   8.878
 2916WAT      O 8989   3.823   3.382   2.639
 2916WAT     H1 8990   3.805   3.295   2.684
 2916WAT     H2 8991   3.851   3.450   2.707
 2917WAT      O 8992   2.699   3.871   8.120
 2917WAT     H1 8993   2.689   3.918   8.207
 2917WAT     H2 8994   2.655   3.923   8.048
 2918WAT      O 8995   5.175   4.904   2.076
 2918WAT     H1 8996   5.082   4.912   2.110
 2918WAT     H2 8997   5.182   4.945   1.985
 2919WAT      O 8998   7.149   0.506   1.602
 2919WAT     H1 8999   7.164   0.463   1.513
 2919WAT     H2 9000   7.105   0.595   1.589
 2920WAT      O 9001   0.662   5.929   1.755
 2920WAT     H1 9002   0.655   5.867   1.678
 2920WAT     H2 9003   0.591   5.907   1.822
 2921WAT      O 9004   4.334   0.644   6.778
 2921WAT     H1 9005   4.265   0.713   6.758
 2921WAT     H2 9006   4.355   0.645   6.876
 2922WAT      O 9007   7.790   8.241   6.866
 2922WAT     H1 9008   7.721   8.230   6.937
 2922WAT     H2 9009   7.823   8.151   6.837
 2923WAT      O 9010   7.605   1.802   2.731
 2923WAT     H1 9011   7.534   1.800   2.801
 2923WAT     H2 9012   7.563   1.814   2.641
 2924WAT      O 9013   6.838   1.877   7.169
 2924WAT     H1 9014   6.832   1.877   7.269
 2924WAT     H2 9015   6.828   1.970   7.135
 2925WAT      O 9016   2.513   8.830   5.852
 2925WAT     H1 9017   2.526   8.736   5.882
 2925WAT     H2 9018   2.435   8.834   5.789
 2926WAT      O 9019   9.881   0.403   7.127
 2926WAT     H1 9020   9.961   0.462   7.120
 2926WAT     H2 9021   9.843   0.387   7.036
 2927WAT      O 9022   6.795   3.028   5.010
 2927WAT     H1 9023   6.803   3.066   4.919
 2927WAT     H2 9024   6.783   3.101   5.077
 2928WAT      O 9025   2.507   1.449   4.344
 2928WAT     H1 9026   2.538   1.370   4.291
 2928WAT     H2 9027   2.490   1.526   4.283
 2929WAT      O 9028   6.671   3.947   6.522
 2929WAT     H1 9029   6.729   4.028   6.526
 2929WAT     H2 9030   6.576   3.973   6.543
 2930WAT      O 9031   4.250   2.640   6.585
 2930WAT     H1 9032   4.190   2.716   6.611
 2930WAT     H2 9033   4.219   2.601   6.499
 2931WAT      O 9034   4.913   2.027   2.730
 2931WAT     H1 9035   4.973   2.105   2.714
 2931WAT     H2 9036   4.861   2.040   2.814
 2932WAT      O 9037   7.687   2.337   3.582
 2932WAT     H1 9038   7.631   2.259   3.553
 2932WAT     H2 9039   7.721   2.321   3.674
 2933WAT      O 9040   8.827   1.926   1.050
 2933WAT     H1 9041   8.800   1.966   1.138
 2933WAT     H2 9042   8.927   1.930   1.041
 2934WAT      O 9043   8.401   5.175   7.199
 2934WAT     H1 9044   8.402   5.273   7.218
 2934WAT     H2 9045   8.460   5.156   7.121
 2935WAT      O 9046   3.878   2.946   4.218
 2935WAT     H1 9047   3.887   2.977   4.313
 2935WAT     H2 9048   3.781   2.941   4.194
 2936WAT      O 9049   0.041   1.724   5.977
 2936WAT     H1 9050   0.108   1.750   6.046
 2936WAT     H2 9051   0.022   1.626   5.984
 2937WAT      O 9052   1.576   2.355   0.243
 2937WAT     H1 9053   1.663   2.377   0.200
 2937WAT     H2 9054   1.511   2.324   0.174
 2938WAT      O 9055   0.585   7.663   3.487
 2938WAT     H1 9056   0.593   7.763   3.496
 2938WAT     H2 9057   0.521   7.641   3.414
 2939WAT      O 9058   4.797   5.870   3.279
 2939WAT     H1 9059   4.861   5.866   3.202
 2939WAT     H2 9060   4.723   5.934   3.257
 2940WAT      O 9061   3.253   6.104   4.645
 2940WAT     H1 9062   3.213   6.014   4.665
 2940WAT     H2 9063   3.351   6.093   4.627
 2941WAT      O 9064   7.282   3.188   1.653
 2941WAT     H1 9065   7.272   3.111   1.589
 2941WAT     H2 9066   7.341   3.257   1.613
 2942WAT      O 9067   0.815   8.392   0.889
 2942WAT     H1 9068   0.792   8.481   0.927
 2942WAT     H2 9069   0.743   8.363   0.825
 2943WAT      O 9070   0.930   7.713   6.366
 2943WAT     H1 9071   0.862   7.698   6.438
 2943WAT     H2 9072   0.895   7.677   6.280
 2944WAT      O 9073   6.503   1.301   8.882
 2944WAT     H1 9074   6.417   1.352   8.889
 2944WAT     H2 9075   6.544   1.318   8.793
 2945WAT      O 9076   5.439   5.947   0.398
 2945WAT     H1 9077   5.431   6.031   0.452
 2945WAT     H2 9078   5.417   5.967   0.302
 2946WAT      O 9079   4.279   1.990   3.837
 2946WAT     H1 9080   4.280   2.046   3.919
 2946WAT     H2 9081   4.196   2.009   3.784
 2947WAT      O 9082   1.731   8.858   5.444
 2947WAT     H1 9083   1.743   8.944   5.394
 2947WAT     H2 9084   1.633   8.843   5.460
 2948WAT      O 9085   3.211   2.323   0.329
 2948WAT     H1 9086   3.136   2.278   0.378
 2948WAT     H2 9087   3.254   2.258   0.266
 2949WAT      O 9088   7.232   1.452   1.478
 2949WAT     H1 9089   7.161   1.522   1.478
 2949WAT     H2 9090   7.205   1.376   1.537
 2950WAT      O 9091   1.252   4.726   8.558
 2950WAT     H1 9092   1.286   4.649   8.505
 2950WAT     H2 9093   1.155   4.713   8.578
 2951WAT      O 9094   4.422   1.301   5.869
 2951WAT     H1 9095   4.356   1.360   5.915
 2951WAT     H2 9096   4.502   1.289   5.927
 2952WAT      O 9097   1.714   8.444   4.252
 2952WAT     H1 9098   1.759   8.379   4.313
 2952WAT     H2 9099   1.641   8.397   4.202
 2953WAT      O 9100   9.546   0.208   7.247
 2953WAT     H1 9101   9.509   0.176   7.159
 2953WAT     H2 9102   9.642   0.181   7.255
 2954WAT      O 9103   9.151   7.220   7.153
 2954WAT     H1 9104   9.232   7.162   7.145
 2954WAT     H2 9105   9.160   7.299   7.092
 2955WAT      O 9106   1.491   5.973   9.511
 2955WAT     H1 9107   1.538   5.937   9.430
 2955WAT     H2 9108   1.433   6.050   9.484
 2956WAT      O 9109   4.686   4.380   8.534
 2956WAT     H1 9110   4.664   4.478   8.534
 2956WAT     H2 9111   4.629   4.333   8.468
 2957WAT      O 9112   2.205   4.996   9.444
 2957WAT     H1 9113   2.185   4.977   9.540
 2957WAT     H2 9114   2.243   5.088   9.435
 2958WAT      O 9115   6.509   4.475   7.977
 2958WAT     H1 9116   6.543   4.385   7.949
 2958WAT     H2 9117   6.582   4.542   7.967
 2959WAT      O 9118   1.954   9.328   5.596
 2959WAT     H1 9119   1.997   9.363   5.679
 2959WAT     H2 9120   1.971   9.230   5.588
 2960WAT      O 9121   8.297   6.063   0.289
 2960WAT     H1 9122   8.328   6.024   0.202
 2960WAT     H2 9123   8.299   6.163   0.284
 2961WAT      O 9124   3.827   1.190   2.044
 2961WAT     H1 9125   3.749   1.134   2.072
 2961WAT     H2 9126   3.909   1.160   2.092
 2962WAT      O 9127   4.234   9.574   5.551
 2962WAT     H1 9128   4.161   9.518   5.591
 2962WAT     H2 9129   4.270   9.636   5.620
 2963WAT      O 9130   2.580   2.464   1.134
 2963WAT     H1 9131   2.656   2.529   1.126
 2963WAT     H2 9132   2.571   2.412   1.050
 2964WAT      O 9133   9.663   6.615   3.842
 2964WAT     H1 9134   9.710   6.638   3.927
 2964WAT     H2 9135   9.711   6.541   3.796
 2965WAT      O 9136   5.917   2.620   3.310
 2965WAT     H1 9137   5.852   2.642   3.383
 2965WAT     H2 9138   5.901   2.679   3.231
 2966WAT      O 9139   4.784   1.562   0.957
 2966WAT     H1 9140   4.799   1.629   1.028
 2966WAT     H2 9141   4.717   1.597   0.891
 2967WAT      O 9142   8.577   7.130   9.734
 2967WAT     H1 9143   8.498   7.190   9.744
 2967WAT     H2 9144   8.549   7.046   9.687
 2968WAT      O 9145   7.762   9.742   5.462
 2968WAT     H1 9146   7.822   9.817   5.490
 2968WAT     H2 9147   7.817   9.667   5.426
 2969WAT      O 9148   8.749   8.674   4.636
 2969WAT     H1 9149   8.794   8.763   4.630
 2969WAT     H2 9150   8.654   8.683   4.604
 2970WAT      O 9151   2.469   0.440   3.465
 2970WAT     H1 9152   2.410   0.505   3.513
 2970WAT     H2 9153   2.464   0.351   3.509
 2971WAT      O 9154   8.846   5.949   7.773
 2971WAT     H1 9155   8.851   5.918   7.678
 2971WAT     H2 9156   8.919   6.016   7.789
 2972WAT      O 9157   3.992   4.522   5.346
 2972WAT     H1 9158   3.977   4.455   5.419
 2972WAT     H2 9159   4.045   4.599   5.382
 2973WAT      O 9160   5.110   9.194   7.926
 2973WAT     H1 9161   5.109   9.121   7.995
 2973WAT     H2 9162   5.061   9.164   7.845
 2974WAT      O 9163   6.843   3.476   5.250
 2974WAT     H1 9164   6.763   3.534   5.236
 2974WAT     H2 9165   6.913   3.527   5.299
 2975WAT      O 9166   9.711   1.917   7.605
 2975WAT     H1 9167   9.798   1.966   7.605
 2975WAT     H2 9168   9.638   1.979   7.578
 2976WAT      O 9169   7.014   3.892   4.637
 2976WAT     H1 9170   6.970   3.981   4.627
 2976WAT     H2 9171   6.949   3.826   4.675
 2977WAT      O 9172   9.624   8.533   6.023
 2977WAT     H1 9173   9.633   8.499   5.929
 2977WAT     H2 9174   9.573   8.467   6.078
 2978WAT      O 9175   7.141   2.470   0.831
 2978WAT     H1 9176   7.125   2.568   0.844
 2978WAT     H2 9177   7.053   2.423   0.825
 2979WAT      O 9178   3.686   5.827   9.403
 2979WAT     H1 9179   3.594   5.797   9.426
 2979WAT     H2 9180   3.741   5.748   9.375
 2980WAT      O 9181   4.795   1.419   4.320
 2980WAT     H1 9182   4.740   1.416   4.237
 2980WAT     H2 9183   4.764   1.348   4.383
 2981WAT      O 9184   5.072   3.043   8.750
 2981WAT     H1 9185   5.096   3.140   8.736
 2981WAT     H2 9186   5.049   3.001   8.662
 2982WAT      O 9187   5.986   1.463   9.005
 2982WAT     H1 9188   5.983   1.559   9.032
 2982WAT     H2 9189   6.024   1.408   9.081
 2983WAT      O 9190   5.632   2.688   7.827
 2983WAT     H1 9191   5.665   2.775   7.790
 2983WAT     H2 9192   5.706   2.641   7.874
 2984WAT      O 9193   5.130   2.744   8.529
 2984WAT     H1 9194   5.207   2.768   8.588
 2984WAT     H2 9195   5.161   2.682   8.457
 2985WAT      O 9196   2.346   2.068   1.801
 2985WAT     H1 9197   2.261   2.119   1.782
 2985WAT     H2 9198   2.323   1.974   1.828
 2986WAT      O 9199   3.716   2.291   9.780
 2986WAT     H1 9200   3.721   2.214   9.717
 2986WAT     H2 9201   3.748   2.374   9.734
 2987WAT      O 9202   4.823   8.049   6.600
 2987WAT     H1 9203   4.726   8.060   6.623
 2987WAT     H2 9204   4.878   8.111   6.657
 2988WAT      O 9205   4.014   4.988   8.103
 2988WAT     H1 9206   3.951   4.927   8.055
 2988WAT     H2 9207   4.107   4.974   8.068
 2989WAT      O 9208   5.439   0.374   8.817
 2989WAT     H1 9209   5.531   0.394   8.783
 2989WAT     H2 9210   5.391   0.315   8.752
 2990WAT      O 9211   7.967   1.145   1.885
 2990WAT     H1 9212   8.001   1.189   1.968
 2990WAT     H2 9213   8.038   1.085   1.847
 2991WAT      O 9214   0.157   2.085   0.394
 2991WAT     H1 9215   0.231   2.152   0.388
 2991WAT     H2 9216   0.109   2.080   0.307
 2992WAT      O 9217   3.326   5.255   2.859
 2992WAT     H1 9218   3.285   5.167   2.834
 2992WAT     H2 9219   3.253   5.320   2.882
 2993WAT      O 9220   5.615   8.361   8.748
 2993WAT     H1 9221   5.584   8.451   8.779
 2993WAT     H2 9222   5.689   8.329   8.808
 2994WAT      O 9223   7.083   1.106   0.568
 2994WAT     H1 9224   7.079   1.194   0.616
 2994WAT     H2 9225   7.086   1.032   0.635
 2995WAT      O 9226   4.957   6.323   6.882
 2995WAT     H1 9227   4.971   6.313   6.783
 2995WAT     H2 9228   5.028   6.274   6.932
 2996WAT      O 9229   6.403   9.267   8.595
 2996WAT     H1 9230   6.433   9.174   8.574
 2996WAT     H2 9231   6.381   9.273   8.693
 2997WAT      O 9232   4.245   4.695   8.787
 2997WAT     H1 9233   4.221   4.674   8.692
 2997WAT     H2 9234   4.213   4.620   8.846
 2998WAT      O 9235   3.321   0.754   3.260
 2998WAT     H1 9236   3.383   0.678   3.279
 2998WAT     H2 9237   3.372   0.827   3.215
 2999WAT      O 9238   7.209   4.477   4.863
 2999WAT     H1 9239   7.298   4.521   4.875
 2999WAT     H2 9240   7.158   4.482   4.949
 3000WAT      O 9241   1.247   0.358   7.083
 3000WAT     H1 9242   1.339   0.339   7.117
 3000WAT     H2 9243   1.231   0.457   7.084
 3001WAT      O 9244   7.447   5.585   5.615
 3001WAT     H1 9245   7.540   5.548   5.618
 3001WAT     H2 9246   7.447   5.670   5.563
 3002WAT      O 9247   3.234   2.128   0.706
 3002WAT     H1 9248   3.307   2.154   0.644
 3002WAT     H2 9249   3.249   2.170   0.796
 3003WAT      O 9250   4.672   0.501   0.097
 3003WAT     H1 9251   4.680   0.522  -0.000
 3003WAT     H2 9252   4.737   0.429   0.121
 3004WAT      O 9253   9.613   8.716   9.548
 3004WAT     H1 9254   9.523   8.753   9.570
 3004WAT     H2 9255   9.617   8.695   9.450
 3005WAT      O 9256   5.363   9.468   2.417
 3005WAT     H1 9257   5.419   9.529   2.360
 3005WAT     H2 9258   5.423   9.416   2.479
 3006WAT      O 9259   1.473   2.330   1.123
 3006WAT     H1 9260   1.455   2.403   1.058
 3006WAT     H2 9261   1.387   2.298   1.162
 3007WAT      O 9262   8.484   0.141   5.320
 3007WAT     H1 9263   8.393   0.132   5.279
 3007WAT     H2 9264   8.484   0.096   5.409
 3008WAT      O 9265   8.014   1.453   4.745
 3008WAT     H1 9266   7.941   1.414   4.801
 3008WAT     H2 9267   8.102   1.433   4.787
 3009WAT      O 9268   3.542   4.351   8.287
 3009WAT     H1 9269   3.487   4.423   8.328
 3009WAT     H2 9270   3.624   4.337   8.342
 3010WAT      O 9271   2.158   2.580   0.263
 3010WAT     H1 9272   2.100   2.508   0.302
 3010WAT     H2 9273   2.232   2.539   0.211
 3011WAT      O 9274   3.351   0.907   1.785
 3011WAT     H1 9275   3.376   0.871   1.696
 3011WAT     H2 9276   3.333   1.006   1.777
 3012WAT      O 9277   0.108   0.510   9.150
 3012WAT     H1 9278   0.074   0.431   9.200
 3012WAT     H2 9279   0.132   0.583   9.214
 3013WAT      O 9280   4.362   6.434   8.081
 3013WAT     H1 9281   4.394   6.430   7.986
 3013WAT     H2 9282   4.391   6.352   8.130
 3014WAT      O 9283   7.707   3.394   9.268
 3014WAT     H1 9284   7.655   3.399   9.353
 3014WAT     H2 9285   7.758   3.308   9.265
 3015WAT      O 9286   1.958   5.305   8.708
 3015WAT     H1 9287   1.996   5.256   8.786
 3015WAT     H2 9288   1.859   5.309   8.715
 3016WAT      O 9289   6.961   4.558   8.730
 3016WAT     H1 9290   6.950   4.461   8.756
 3016WAT     H2 9291   6.998   4.609   8.808
 3017WAT      O 9292   9.167   5.749   3.297
 3017WAT     H1 9293   9.253   5.698   3.294
 3017WAT     H2 9294   9.180   5.838   3.254
 3018WAT      O 9295   7.326   6.541   2.025
 3018WAT     H1 9296   7.376   6.601   1.963
 3018WAT     H2 9297   7.295   6.594   2.104
 3019WAT      O 9298   4.537   4.839   0.123
 3019WAT     H1 9299   4.584   4.852   0.036
 3019WAT     H2 9300   4.466   4.909   0.134
 3020WAT      O 9301   0.070   7.175   4.885
 3020WAT     H1 9302   0.096   7.205   4.976
 3020WAT     H2 9303   0.142   7.200   4.820
 3021WAT      O 9304   6.926   0.510   3.051
 3021WAT     H1 9305   6.968   0.579   2.993
 3021WAT     H2 9306   6.973   0.422   3.038
 3022WAT      O 9307   5.216   8.340   2.298
 3022WAT     H1 9308   5.134   8.368   2.248
 3022WAT     H2 9309   5.263   8.268   2.247
 3023WAT      O 9310   9.270   2.880   0.170
 3023WAT     H1 9311   9.329   2.802   0.152
 3023WAT     H2 9312   9.183   2.848   0.207
 3024WAT      O 9313   9.714   4.190   4.938
 3024WAT     H1 9314   9.748   4.125   5.006
 3024WAT     H2 9315   9.768   4.182   4.854
 3025WAT      O 9316   5.953   2.966   2.680
 3025WAT     H1 9317   6.009   3.013   2.612
 3025WAT     H2 9318   6.002   2.885   2.712
 3026WAT      O 9319   2.954   1.841   9.645
 3026WAT     H1 9320   2.994   1.750   9.642
 3026WAT     H2 9321   2.999   1.900   9.578
 3027WAT      O 9322   3.206   5.185   6.550
 3027WAT     H1 9323   3.227   5.272   6.593
 3027WAT     H2 9324   3.109   5.182   6.526
 3028WAT      O 9325   6.232   9.427   9.233
 3028WAT     H1 9326   6.282   9.465   9.155
 3028WAT     H2 9327   6.166   9.495   9.267
 3029WAT      O 9328   8.192   1.003   1.801
 3029WAT     H1 9329   8.251   0.928   1.830
 3029WAT     H2 9330   8.185   1.003   1.701
 3030WAT      O 9331   5.873   6.590   1.104
 3030WAT     H1 9332   5.832   6.545   1.183
 3030WAT     H2 9333   5.822   6.674   1.084
 3031WAT      O 9334   8.367   9.058   5.328
 3031WAT     H1 9335   8.393   9.016   5.414
 3031WAT     H2 9336   8.297   9.128   5.345
 3032WAT      O 9337   9.386   1.454   1.460
 3032WAT     H1 9338   9.382   1.469   1.558
 3032WAT     H2 9339   9.424   1.364   1.441
 3033WAT      O 9340   9.586   0.280   4.042
 3033WAT     H1 9341   9.568   0.343   3.967
 3033WAT     H2 9342   9.502   0.264   4.094
 3034WAT      O 9343   5.920   0.339   2.015
 3034WAT     H1 9344   5.932   0.404   1.940
 3034WAT     H2 9345   5.900   0.249   1.978
 3035WAT      O 9346   6.342   7.619   0.262
 3035WAT     H1 9347   6.425   7.635   0.208
 3035WAT     H2 9348   6.261   7.630   0.204
 3036WAT      O 9349   4.880   5.379   0.661
 3036WAT     H1 9350   4.790   5.422   0.648
 3036WAT     H2 9351   4.916   5.350   0.573
 3037WAT      O 9352   1.158   5.620   3.847
 3037WAT     H1 9353   1.086   5.682   3.879
 3037WAT     H2 9354   1.117   5.546   3.795
 3038WAT      O 9355   9.279   2.794   1.884
 3038WAT     H1 9356   9.314   2.861   1.949
 3038WAT     H2 9357   9.180   2.807   1.873
 3039WAT      O 9358   5.468   8.281   9.706
 3039WAT     H1 9359   5.498   8.209   9.643
 3039WAT     H2 9360   5.453   8.242   9.797
 3040WAT      O 9361   1.912   2.470   7.243
 3040WAT     H1 9362   1.898   2.399   7.174
 3040WAT     H2 9363   1.834   2.532   7.243
 3041WAT      O 9364   0.050   0.265   3.572
 3041WAT     H1 9365  -0.019   0.292   3.639
 3041WAT     H2 9366   0.007   0.209   3.501
 3042WAT      O 9367   0.825   6.619   3.892
 3042WAT     H1 9368   0.748   6.628   3.829
 3042WAT     H2 9369   0.902   6.576   3.845
 3043WAT      O 9370   0.146   5.087   0.234
 3043WAT     H1 9371   0.143   5.184   0.209
 3043WAT     H2 9372   0.054   5.055   0.257
 3044WAT      O 9373   5.107   5.455   7.043
 3044WAT     H1 9374   5.163   5.451   7.126
 3044WAT     H2 9375   5.163   5.485   6.966
 3045WAT      O 9376   3.901   5.210   5.952
 3045WAT     H1 9377   3.881   5.136   5.888
 3045WAT     H2 9378   3.992   5.246   5.935
 3046WAT      O 9379   0.424   7.218   7.705
 3046WAT     H1 9380   0.517   7.227   7.739
 3046WAT     H2 9381   0.426   7.178   7.613
 3047WAT      O 9382   5.304   8.653   3.182
 3047WAT     H1 9383   5.367   8.724   3.153
 3047WAT     H2 9384   5.354   8.582   3.232
 3048WAT      O 9385   3.683   1.126   5.284
 3048WAT     H1 9386   3.587   1.156   5.291
 3048WAT     H2 9387   3.696   1.042   5.335
 3049WAT      O 9388   3.752   6.941   2.818
 3049WAT     H1 9389   3.829   7.000   2.842
 3049WAT     H2 9390   3.759   6.855   2.868
 3050WAT      O 9391   1.496   2.651   5.700
 3050WAT     H1 9392   1.524   2.616   5.610
 3050WAT     H2 9393   1.575   2.654   5.760
 3051WAT      O 9394   5.315   2.616   7.004
 3051WAT     H1 9395   5.359   2.587   7.089
 3051WAT     H2 9396   5.282   2.710   7.014
 3052WAT      O 9397   5.966   5.170   0.282
 3052WAT     H1 9398   5.954   5.216   0.370
 3052WAT     H2 9399   5.942   5.232   0.208
 3053WAT      O 9400   6.059   7.311   5.355
 3053WAT     H1 9401   5.990   7.244   5.328
 3053WAT     H2 9402   6.130   7.267   5.409
 3054WAT      O 9403   3.541   0.977   3.446
 3054WAT     H1 9404   3.502   0.983   3.354
 3054WAT     H2 9405   3.492   1.041   3.507
 3055WAT      O 9406   9.171   2.958   8.733
 3055WAT     H1 9407   9.256   3.010   8.736
 3055WAT     H2 9408   9.094   3.021   8.731
 3056WAT      O 9409   0.782   8.076   9.168
 3056WAT     H1 9410   0.704   8.111   9.220
 3056WAT     H2 9411   0.751   8.041   9.080
 3057WAT      O 9412   1.220   1.742   3.778
 3057WAT     H1 9413   1.208   1.823   3.721
 3057WAT     H2 9414   1.160   1.669   3.747
 3058WAT      O 9415   4.293   1.692   7.688
 3058WAT     H1 9416   4.317   1.784   7.659
 3058WAT     H2 9417   4.377   1.638   7.701
 3059WAT      O 9418   8.860   9.748   1.437
 3059WAT     H1 9419   8.924   9.719   1.509
 3059WAT     H2 9420   8.766   9.742   1.471
 3060WAT      O 9421   9.732   4.273   1.916
 3060WAT     H1 9422   9.635   4.292   1.903
 3060WAT     H2 9423   9.776   4.353   1.958
 3061WAT      O 9424   7.078   3.574   0.531
 3061WAT     H1 9425   7.068   3.622   0.618
 3061WAT     H2 9426   7.000   3.514   0.517
 3062WAT      O 9427   4.747   4.174   8.156
 3062WAT     H1 9428   4.720   4.164   8.060
 3062WAT     H2 9429   4.847   4.176   8.162
 3063WAT      O 9430   6.813   4.375   5.551
 3063WAT     H1 9431   6.885   4.436   5.517
 3063WAT     H2 9432   6.794   4.396   5.647
 3064WAT      O 9433   2.330   0.534   8.548
 3064WAT     H1 9434   2.413   0.571   8.507
 3064WAT     H2 9435   2.261   0.607   8.552
 3065WAT      O 9436   5.441   0.999   3.807
 3065WAT     H1 9437   5.443   0.932   3.733
 3065WAT     H2 9438   5.504   0.972   3.879
 3066WAT      O 9439   8.752   5.269   1.265
 3066WAT     H1 9440   8.803   5.199   1.315
 3066WAT     H2 9441   8.662   5.281   1.306
 3067WAT      O 9442   9.479   0.870   2.919
 3067WAT     H1 9443   9.396   0.840   2.967
 3067WAT     H2 9444   9.453   0.922   2.837
 3068WAT      O 9445   1.353   1.217   3.555
 3068WAT     H1 9446   1.395   1.308   3.561
 3068WAT     H2 9447   1.401   1.154   3.616
 3069WAT      O 9448   5.000   5.348   3.662
 3069WAT     H1 9449   5.066   5.390   3.600
 3069WAT     H2 9450   5.043   5.270   3.708
 3070WAT      O 9451   7.879   2.045   0.302
 3070WAT     H1 9452   7.919   2.137   0.303
 3070WAT     H2 9453   7.854   2.021   0.209
 3071WAT      O 9454   9.849   7.309   6.285
 3071WAT     H1 9455   9.923   7.372   6.264
 3071WAT     H2 9456   9.867   7.221   6.241
 3072WAT      O 9457   7.081   4.846   3.990
 3072WAT     H1 9458   7.063   4.941   4.013
 3072WAT     H2 9459   7.168   4.818   4.030
 3073WAT      O 9460   7.872   7.306   2.923
 3073WAT     H1 9461   7.939   7.377   2.945
 3073WAT     H2 9462   7.817   7.336   2.845
 3074WAT      O 9463   0.412   5.700   4.587
 3074WAT     H1 9464   0.403   5.798   4.572
 3074WAT     H2 9465   0.335   5.667   4.641
 3075WAT      O 9466   6.341   0.140   3.087
 3075WAT     H1 9467   6.437   0.134   3.117
 3075WAT     H2 9468   6.305   0.230   3.109
 3076WAT      O 9469   3.138   4.746   2.814
 3076WAT     H1 9470   3.056   4.762   2.870
 3076WAT     H2 9471   3.110   4.715   2.723
 3077WAT      O 9472   0.054   6.774   5.990
 3077WAT     H1 9473   0.152   6.761   5.972
 3077WAT     H2 9474   0.042   6.823   6.077
 3078WAT      O 9475   4.937   8.269   3.588
 3078WAT     H1 9476   4.899   8.288   3.497
 3078WAT     H2 9477   5.032   8.302   3.591
 3079WAT      O 9478   4.477   3.081   6.466
 3079WAT     H1 9479   4.410   3.019   6.424
 3079WAT     H2 9480   4.568   3.038   6.463
 3080WAT      O 9481   4.385   2.946   8.317
 3080WAT     H1 9482   4.455   2.909   8.379
 3080WAT     H2 9483   4.429   2.980   8.234
 3081WAT      O 9484   4.617   6.010   0.586
 3081WAT     H1 9485   4.633   6.022   0.684
 3081WAT     H2 9486   4.520   5.991   0.571
 3082WAT      O 9487   5.595   9.159   3.072
 3082WAT     H1 9488   5.655   9.226   3.117
 3082WAT     H2 9489   5.649   9.100   3.012
 3083WAT      O 9490   6.453   9.632   1.964
 3083WAT     H1 9491   6.477   9.714   1.913
 3083WAT     H2 9492   6.376   9.652   2.025
 3084WAT      O 9493   3.251   3.857   0.025
 3084WAT     H1 9494   3.164   3.806   0.029
 3084WAT     H2 9495   3.251   3.928   0.095
 3085WAT      O 9496   4.567   7.286   0.907
 3085WAT     H1 9497   4.535   7.370   0.951
 3085WAT     H2 9498   4.528   7.207   0.954
 3086WAT      O 9499   3.721   4.547   3.050
 3086WAT     H1 9500   3.755   4.630   3.004
 3086WAT     H2 9501   3.735   4.555   3.148
 3087WAT      O 9502   6.802   5.594   9.096
 3087WAT     H1 9503   6.732   5.534   9.057
 3087WAT     H2 9504   6.758   5.672   9.141
 3088WAT      O 9505   9.575   5.071   6.458
 3088WAT     H1 9506   9.672   5.095   6.459
 3088WAT     H2 9507   9.565   4.971   6.464
 3089WAT      O 9508   0.133   8.617   5.461
 3089WAT     H1 9509   0.205   8.665   5.410
 3089WAT     H2 9510   0.153   8.519   5.462
 3090WAT      O 9511   2.274   0.967   2.010
 3090WAT     H1 9512   2.324   1.053   2.017
 3090WAT     H2 9513   2.333   0.896   1.974
 3091WAT      O 9514   1.131   0.117   1.327
 3091WAT     H1 9515   1.160   0.049   1.260
 3091WAT     H2 9516   1.069   0.074   1.393
 3092WAT      O 9517   4.714   0.875   5.340
 3092WAT     H1 9518   4.703   0.959   5.393
 3092WAT     H2 9519   4.688   0.796   5.396
 3093WAT      O 9520   0.075   4.470   0.172
 3093WAT     H1 9521   0.038   4.562   0.155
 3093WAT     H2 9522   0.105   4.429   0.086
 3094WAT      O 9523   6.158   0.556   7.424
 3094WAT     H1 9524   6.146   0.457   7.427
 3094WAT     H2 9525   6.103   0.594   7.350
 3095WAT      O 9526   8.082   5.424   1.044
 3095WAT     H1 9527   8.000   5.392   0.997
 3095WAT     H2 9528   8.134   5.345   1.077
 3096WAT      O 9529   7.487   4.983   0.175
 3096WAT     H1 9530   7.543   4.901   0.180
 3096WAT     H2 9531   7.502   5.029   0.087
 3097WAT      O 9532   2.909   4.905   4.073
 3097WAT     H1 9533   2.883   5.001   4.087
 3097WAT     H2 9534   2.843   4.861   4.014
 3098WAT      O 9535   6.221   0.707   9.083
 3098WAT     H1 9536   6.189   0.743   9.170
 3098WAT     H2 9537   6.221   0.607   9.086
 3099WAT      O 9538   4.450   6.596   7.150
 3099WAT     H1 9539   4.498   6.625   7.233
 3099WAT     H2 9540   4.373   6.538   7.174
 3100WAT      O 9541   3.974   6.046   7.856
 3100WAT     H1 9542   3.877   6.026   7.840
 3100WAT     H2 9543   3.987   6.064   7.954
 3101WAT      O 9544   6.285   7.568   5.430
 3101WAT     H1 9545   6.253   7.631   5.360
 3101WAT     H2 9546   6.384   7.555   5.420
 3102WAT      O 9547   6.114   5.388   8.174
 3102WAT     H1 9548   6.206   5.354   8.193
 3102WAT     H2 9549   6.097   5.381   8.075
 3103WAT      O 9550   1.675   9.820   6.224
 3103WAT     H1 9551   1.585   9.858   6.200
 3103WAT     H2 9552   1.739   9.895   6.241
 3104WAT      O 9553   6.798   6.944   9.693
 3104WAT     H1 9554   6.712   6.965   9.647
 3104WAT     H2 9555   6.856   6.890   9.632
 3105WAT      O 9556   7.744   6.138   8.018
 3105WAT     H1 9557   7.760   6.089   7.933
 3105WAT     H2 9558   7.830   6.180   8.049
 3106WAT      O 9559   4.586   2.049   1.547
 3106WAT     H1 9560   4.571   2.117   1.476
 3106WAT     H2 9561   4.519   2.061   1.620
 3107WAT      O 9562   3.276   0.843   0.442
 3107WAT     H1 9563   3.286   0.750   0.479
 3107WAT     H2 9564   3.346   0.858   0.372
 3108WAT      O 9565   4.970   2.232   9.149
 3108WAT     H1 9566   4.951   2.261   9.243
 3108WAT     H2 9567   5.059   2.186   9.146
 3109WAT      O 9568   3.519   9.062   3.057
 3109WAT     H1 9569   3.467   9.123   3.116
 3109WAT     H2 9570   3.501   9.085   2.961
 3110WAT      O 9571   3.999   5.166   7.322
 3110WAT     H1 9572   4.097   5.163   7.340
 3110WAT     H2 9573   3.960   5.074   7.335
 3111WAT      O 9574   8.770   9.779   5.157
 3111WAT     H1 9575   8.825   9.802   5.077
 3111WAT     H2 9576   8.827   9.783   5.239
 3112WAT      O 9577   5.204   1.460   7.363
 3112WAT     H1 9578   5.194   1.560   7.360
 3112WAT     H2 9579   5.258   1.430   7.284
 3113WAT      O 9580   2.512   8.806   7.525
 3113WAT     H1 9581   2.490   8.870   7.599
 3113WAT     H2 9582   2.552   8.723   7.563
 3114WAT      O 9583   5.185   4.311   3.269
 3114WAT     H1 9584   5.177   4.297   3.368
 3114WAT     H2 9585   5.095   4.331   3.230
 3115WAT      O 9586   2.580   0.957   7.124
 3115WAT     H1 9587   2.675   0.985   7.141
 3115WAT     H2 9588   2.568   0.938   7.027
 3116WAT      O 9589   6.086   2.758   1.394
 3116WAT     H1 9590   6.162   2.702   1.361
 3116WAT     H2 9591   6.063   2.827   1.326
 3117WAT      O 9592   4.030   1.627   7.278
 3117WAT     H1 9593   4.100   1.689   7.313
 3117WAT     H2 9594   3.941   1.656   7.312
 3118WAT      O 9595   2.641   2.842   5.804
 3118WAT     H1 9596   2.662   2.897   5.723
 3118WAT     H2 9597   2.719   2.845   5.867
 3119WAT      O 9598   0.661   3.614   7.312
 3119WAT     H1 9599   0.670   3.515   7.306
 3119WAT     H2 9600   0.640   3.651   7.222
 3120WAT      O 9601   2.480   5.429   3.690
 3120WAT     H1 9602   2.420   5.429   3.609
 3120WAT     H2 9603   2.472   5.516   3.737
 3121WAT      O 9604   8.617   7.876   3.309
 3121WAT     H1 9605   8.550   7.819   3.357
 3121WAT     H2 9606   8.707   7.862   3.349
 3122WAT      O 9607   8.142   2.622   1.115
 3122WAT     H1 9608   8.080   2.642   1.038
 3122WAT     H2 9609   8.186   2.706   1.145
 3123WAT      O 9610   0.768   2.389   2.859
 3123WAT     H1 9611   0.742   2.381   2.955
 3123WAT     H2 9612   0.850   2.335   2.842
 3124WAT      O 9613   3.256   7.224   0.799
 3124WAT     H1 9614   3.309   7.194   0.878
 3124WAT     H2 9615   3.314   7.221   0.718
 3125WAT      O 9616   8.872   7.447   7.504
 3125WAT     H1 9617   8.851   7.422   7.599
 3125WAT     H2 9618   8.915   7.370   7.458
 3126WAT      O 9619   7.844   5.060   2.772
 3126WAT     H1 9620   7.801   5.104   2.851
 3126WAT     H2 9621   7.895   4.980   2.802
 3127WAT      O 9622   9.775   3.609   6.406
 3127WAT     H1 9623   9.753   3.640   6.314
 3127WAT     H2 9624   9.695   3.566   6.447
 3128WAT      O 9625   9.388   7.077   7.058
 3128WAT     H1 9626   9.397   7.017   6.979
 3128WAT     H2 9627   9.473   7.126   7.073
 3129WAT      O 9628   8.635   2.068   8.153
 3129WAT     H1 9629   8.563   2.135   8.136
 3129WAT     H2 9630   8.699   2.068   8.077
 3130WAT      O 9631   6.450   5.401   7.040
 3130WAT     H1 9632   6.487   5.494   7.034
 3130WAT     H2 9633   6.520   5.340   7.077
 3131WAT      O 9634   5.124   5.631   4.911
 3131WAT     H1 9635   5.054   5.673   4.969
 3131WAT     H2 9636   5.128   5.679   4.824
 3132WAT      O 9637   0.084   9.621   2.156
 3132WAT     H1 9638   0.146   9.664   2.222
 3132WAT     H2 9639   0.007   9.681   2.138
 3133WAT      O 9640   9.101   2.784   1.073
 3133WAT     H1 9641   9.063   2.876   1.080
 3133WAT     H2 9642   9.070   2.729   1.150
 3134WAT      O 9643   9.195   6.235   8.235
 3134WAT     H1 9644   9.187   6.230   8.335
 3134WAT     H2 9645   9.150   6.319   8.202
 3135WAT      O 9646   8.505   7.491   0.586
 3135WAT     H1 9647   8.414   7.453   0.573
 3135WAT     H2 9648   8.572   7.417   0.590
 3136WAT      O 9649   1.970   8.727   5.353
 3136WAT     H1 9650   1.964   8.760   5.259
 3136WAT     H2 9651   1.885   8.748   5.401
 3137WAT      O 9652   6.241   5.395   5.127
 3137WAT     H1 9653   6.340   5.386   5.139
 3137WAT     H2 9654   6.222   5.464   5.057
 3138WAT      O 9655   1.702   8.411   7.902
 3138WAT     H1 9656   1.753   8.496   7.889
 3138WAT     H2 9657   1.624   8.428   7.963
 3139WAT      O 9658   2.836   1.379   3.577
 3139WAT     H1 9659   2.897   1.445   3.621
 3139WAT     H2 9660   2.755   1.427   3.543
 3140WAT      O 9661   8.621   1.176   2.282
 3140WAT     H1 9662   8.593   1.201   2.375
 3140WAT     H2 9663   8.644   1.079   2.279
 3141WAT      O 9664   2.442   1.406   1.131
 3141WAT     H1 9665   2.514   1.465   1.167
 3141WAT     H2 9666   2.371   1.463   1.088
 3142WAT      O 9667   2.927   7.737   0.461
 3142WAT     H1 9668   2.912   7.695   0.551
 3142WAT     H2 9669   2.945   7.834   0.472
 3143WAT      O 9670   0.774   6.257   0.699
 3143WAT     H1 9671   0.844   6.231   0.633
 3143WAT     H2 9672   0.765   6.186   0.769
 3144WAT      O 9673   6.131   2.847   5.281
 3144WAT     H1 9674   6.216   2.899   5.293
 3144WAT     H2 9675   6.136   2.793   5.197
 3145WAT      O 9676   1.912   2.704   0.267
 3145WAT     H1 9677   1.942   2.706   0.363
 3145WAT     H2 9678   1.985   2.739   0.209
 3146WAT      O 9679   8.995   3.936   2.646
 3146WAT     H1 9680   9.028   4.013   2.701
 3146WAT     H2 9681   8.899   3.951   2.623
 3147WAT      O 9682   6.495   8.321   4.386
 3147WAT     H1 9683   6.397   8.303   4.386
 3147WAT     H2 9684   6.522   8.359   4.474
 3148WAT      O 9685   6.010   5.562   7.222
 3148WAT     H1 9686   5.972   5.497   7.155
 3148WAT     H2 9687   6.107   5.545   7.234
 3149WAT      O 9688   7.647   9.738   5.168
 3149WAT     H1 9689   7.720   9.805   5.153
 3149WAT     H2 9690   7.687   9.649   5.186
 3150WAT      O 9691   7.002   6.671   5.128
 3150WAT     H1 9692   6.921   6.643   5.077
 3150WAT     H2 9693   6.982   6.668   5.226
 3151WAT      O 9694   2.257   3.046   3.055
 3151WAT     H1 9695   2.328   3.047   3.126
 3151WAT     H2 9696   2.214   2.955   3.054
 3152WAT      O 9697   0.389   7.706   9.127
 3152WAT     H1 9698   0.485   7.719   9.152
 3152WAT     H2 9699   0.383   7.670   9.034
 3153WAT      O 9700   7.771   0.907   3.545
 3153WAT     H1 9701   7.703   0.859   3.489
 3153WAT     H2 9702   7.858   0.857   3.542
 3154WAT      O 9703   7.339   2.837   0.999
 3154WAT     H1 9704   7.315   2.806   0.907
 3154WAT     H2 9705   7.301   2.773   1.066
 3155WAT      O 9706   6.959   8.059   8.205
 3155WAT     H1 9707   6.905   8.134   8.244
 3155WAT     H2 9708   6.945   8.056   8.106
 3156WAT      O 9709   6.092   9.082   3.698
 3156WAT     H1 9710   6.127   9.163   3.746
 3156WAT     H2 9711   6.146   9.067   3.615
 3157WAT      O 9712   9.176   1.690   9.395
 3157WAT     H1 9713   9.258   1.713   9.446
 3157WAT     H2 9714   9.197   1.687   9.297
 3158WAT      O 9715   3.035   6.857   6.854
 3158WAT     H1 9716   2.975   6.797   6.802
 3158WAT     H2 9717   3.035   6.948   6.812
 3159WAT      O 9718   0.850   5.285   2.580
 3159WAT     H1 9719   0.889   5.252   2.494
 3159WAT     H2 9720   0.834   5.383   2.574
 3160WAT      O 9721   2.591   4.156   4.333
 3160WAT     H1 9722   2.557   4.251   4.338
 3160WAT     H2 9723   2.530   4.097   4.386
 3161WAT      O 9724   7.287   1.696   6.276
 3161WAT     H1 9725   7.273   1.597   6.273
 3161WAT     H2 9726   7.221   1.741   6.216
 3162WAT      O 9727   6.453   3.727   7.261
 3162WAT     H1 9728   6.488   3.699   7.172
 3162WAT     H2 9729   6.400   3.653   7.301
 3163WAT      O 9730   8.163   7.871   6.765
 3163WAT     H1 9731   8.075   7.842   6.801
 3163WAT     H2 9732   8.236   7.842   6.827
 3164WAT      O 9733   8.022   3.608   2.533
 3164WAT     H1 9734   8.043   3.703   2.511
 3164WAT     H2 9735   7.923   3.593   2.528
 3165WAT      O 9736   6.961   0.602   7.273
 3165WAT     H1 9737   7.001   0.680   7.226
 3165WAT     H2 9738   6.913   0.544   7.207
 3166WAT      O 9739   5.462   1.925   8.800
 3166WAT     H1 9740   5.540   1.863   8.791
 3166WAT     H2 9741   5.464   1.991   8.724
 3167WAT      O 9742   6.859   8.013   3.326
 3167WAT     H1 9743   6.888   8.107   3.311
 3167WAT     H2 9744   6.935   7.959   3.362
 3168WAT      O 9745   8.212   6.739   8.679
 3168WAT     H1 9746   8.170   6.801   8.745
 3168WAT     H2 9747   8.204   6.778   8.587
 3169WAT      O 9748   2.400   1.136   2.768
 3169WAT     H1 9749   2.386   1.102   2.675
 3169WAT     H2 9750   2.334   1.209   2.787
 3170WAT      O 9751   8.105   4.810   8.602
 3170WAT     H1 9752   8.033   4.847   8.660
 3170WAT     H2 9753   8.118   4.870   8.523
 3171WAT      O 9754   7.000   2.299   9.437
 3171WAT     H1 9755   7.014   2.353   9.354
 3171WAT     H2 9756   7.033   2.351   9.516
 3172WAT      O 9757   5.278   8.083   0.299
 3172WAT     H1 9758   5.301   8.108   0.393
 3172WAT     H2 9759   5.214   8.150   0.261
 3173WAT      O 9760   2.857   9.704   0.405
 3173WAT     H1 9761   2.909   9.618   0.404
 3173WAT     H2 9762   2.764   9.687   0.372
 3174WAT      O 9763   1.325   8.710   1.279
 3174WAT     H1 9764   1.283   8.620   1.288
 3174WAT     H2 9765   1.296   8.768   1.355
 3175WAT      O 9766   0.098   5.420   8.080
 3175WAT     H1 9767   0.075   5.463   8.167
 3175WAT     H2 9768   0.044   5.461   8.006
 3176WAT      O 9769   7.831   4.925   7.190
 3176WAT     H1 9770   7.799   4.840   7.232
 3176WAT     H2 9771   7.775   4.945   7.110
 3177WAT      O 9772   2.274   6.001   0.616
 3177WAT     H1 9773   2.362   6.037   0.583
 3177WAT     H2 9774   2.232   6.068   0.678
 3178WAT      O 9775   4.354   2.624   5.503
 3178WAT     H1 9776   4.400   2.641   5.590
 3178WAT     H2 9777   4.407   2.664   5.429
 3179WAT      O 9778   1.914   6.794   5.569
 3179WAT     H1 9779   1.928   6.825   5.663
 3179WAT     H2 9780   1.997   6.749   5.537
 3180WAT      O 9781   0.722   9.652   0.477
 3180WAT     H1 9782   0.698   9.562   0.514
 3180WAT     H2 9783   0.642   9.712   0.479
 3181WAT      O 9784   1.631   2.887   8.182
 3181WAT     H1 9785   1.670   2.948   8.250
 3181WAT     H2 9786   1.699   2.820   8.153
 3182WAT      O 9787   3.924   0.597   9.756
 3182WAT     H1 9788   3.952   0.665   9.824
 3182WAT     H2 9789   4.000   0.535   9.736
 3183WAT      O 9790   3.865   0.496   5.664
 3183WAT     H1 9791   3.880   0.483   5.565
 3183WAT     H2 9792   3.808   0.422   5.699
 3184WAT      O 9793   9.061   1.757   0.580
 3184WAT     H1 9794   9.143   1.744   0.635
 3184WAT     H2 9795   9.015   1.842   0.607
 3185WAT      O 9796   9.839   8.553   9.615
 3185WAT     H1 9797   9.774   8.607   9.561
 3185WAT     H2 9798   9.790   8.482   9.665
 3186WAT      O 9799   0.931   6.379   8.027
 3186WAT     H1 9800   0.949   6.425   8.114
 3186WAT     H2 9801   1.018   6.364   7.978
 3187WAT      O 9802   8.194   8.292   8.393
 3187WAT     H1 9803   8.267   8.225   8.398
 3187WAT     H2 9804   8.229   8.382   8.419
 3188WAT      O 9805   2.230   6.695   0.873
 3188WAT     H1 9806   2.185   6.611   0.843
 3188WAT     H2 9807   2.328   6.680   0.878
 3189WAT      O 9808   6.824   6.289   4.551
 3189WAT     H1 9809   6.844   6.360   4.484
 3189WAT     H2 9810   6.910   6.251   4.586
 3190WAT      O 9811   7.147   5.777   1.766
 3190WAT     H1 9812   7.152   5.839   1.844
 3190WAT     H2 9813   7.076   5.709   1.783
 3191WAT      O 9814   7.481   3.719   5.319
 3191WAT     H1 9815   7.404   3.778   5.292
 3191WAT     H2 9816   7.445   3.635   5.360
 3192WAT      O 9817   3.293   5.951   4.293
 3192WAT     H1 9818   3.302   6.039   4.246
 3192WAT     H2 9819   3.297   5.877   4.225
 3193WAT      O 9820   8.748   4.669   7.378
 3193WAT     H1 9821   8.721   4.741   7.314
 3193WAT     H2 9822   8.687   4.671   7.457
 3194WAT      O 9823   8.658   0.386   3.738
 3194WAT     H1 9824   8.720   0.308   3.727
 3194WAT     H2 9825   8.571   0.354   3.775
 3195WAT      O 9826   2.685   1.928   8.646
 3195WAT     H1 9827   2.697   1.859   8.718
 3195WAT     H2 9828   2.763   1.990   8.648
 3196WAT      O 9829   8.744   0.948   3.243
 3196WAT     H1 9830   8.647   0.931   3.257
 3196WAT     H2 9831   8.798   0.890   3.304
 3197WAT      O 9832   6.386   0.241   0.540
 3197WAT     H1 9833   6.323   0.302   0.492
 3197WAT     H2 9834   6.335   0.189   0.609
 3198WAT      O 9835   8.279   6.562   3.984
 3198WAT     H1 9836   8.284   6.479   4.040
 3198WAT     H2 9837   8.353   6.561   3.916
 3199WAT      O 9838   7.986   8.322   8.569
 3199WAT     H1 9839   8.022   8.330   8.662
 3199WAT     H2 9840   8.061   8.327   8.503
 3200WAT      O 9841   1.612   7.945   9.041
 3200WAT     H1 9842   1.557   8.016   8.997
 3200WAT     H2 9843   1.634   7.874   8.973
 3201WAT      O 9844   3.415   0.589   8.503
 3201WAT     H1 9845   3.378   0.643   8.427
 3201WAT     H2 9846   3.361   0.505   8.513
 3202WAT      O 9847   3.175   2.193   1.923
 3202WAT     H1 9848   3.238   2.265   1.950
 3202WAT     H2 9849   3.105   2.181   1.994
 3203WAT      O 9850   9.136   1.198   5.443
 3203WAT     H1 9851   9.116   1.242   5.530
 3203WAT     H2 9852   9.077   1.237   5.372
 3204WAT      O 9853   4.539   5.283   9.770
 3204WAT     H1 9854   4.510   5.213   9.705
 3204WAT     H2 9855   4.461   5.343   9.791
 3205WAT      O 9856   9.433   0.590   4.543
 3205WAT     H1 9857   9.509   0.600   4.479
 3205WAT     H2 9858   9.347   0.611   4.496
 3206WAT      O 9859   2.275   1.348   1.594
 3206WAT     H1 9860   2.321   1.311   1.513
 3206WAT     H2 9861   2.214   1.423   1.567
 3207WAT      O 9862   4.859   8.452   4.177
 3207WAT     H1 9863   4.900   8.521   4.237
 3207WAT     H2 9864   4.795   8.497   4.114
 3208WAT      O 9865   3.848   2.784   7.743
 3208WAT     H1 9866   3.807   2.730   7.670
 3208WAT     H2 9867   3.776   2.837   7.789
 3209WAT      O 9868   1.266   7.090   0.298
 3209WAT     H1 9869   1.231   7.017   0.356
 3209WAT     H2 9870   1.322   7.153   0.353
 3210WAT      O 9871   2.592   8.756   3.912
 3210WAT     H1 9872   2.591   8.851   3.942
 3210WAT     H2 9873   2.604   8.696   3.992
 3211WAT      O 9874   1.322   3.742   8.181
 3211WAT     H1 9875   1.239   3.766   8.231
 3211WAT     H2 9876   1.301   3.673   8.113
 3212WAT      O 9877   5.559   0.118   9.058
 3212WAT     H1 9878   5.537   0.214   9.074
 3212WAT     H2 9879   5.576   0.104   8.960
 3213WAT      O 9880   0.042   5.156   7.296
 3213WAT     H1 9881   0.112   5.133   7.228
 3213WAT     H2 9882   0.026   5.078   7.356
 3214WAT      O 9883   0.191   8.774   0.011
 3214WAT     H1 9884   0.204   8.720  -0.072
 3214WAT     H2 9885   0.121   8.730   0.069
 3215WAT      O 9886   2.486   2.034   1.122
 3215WAT     H1 9887   2.449   2.022   1.030
 3215WAT     H2 9888   2.436   2.106   1.170
 3216WAT      O 9889   6.801   1.842   5.169
 3216WAT     H1 9890   6.767   1.754   5.203
 3216WAT     H2 9891   6.770   1.915   5.229
 3217WAT      O 9892   9.483   3.302   4.797
 3217WAT     H1 9893   9.454   3.345   4.711
 3217WAT     H2 9894   9.578   3.325   4.814
 3218WAT      O 9895   6.972   4.509   3.187
 3218WAT     H1 9896   7.021   4.483   3.104
 3218WAT     H2 9897   6.916   4.590   3.169
 3219WAT      O 9898   7.018   1.560   2.807
 3219WAT     H1 9899   6.943   1.571   2.873
 3219WAT     H2 9900   6.987   1.502   2.731
 3220WAT      O 9901   5.867   5.697   0.509
 3220WAT     H1 9902   5.843   5.728   0.417
 3220WAT     H2 9903   5.930   5.762   0.551
 3221WAT      O 9904   2.507   3.016   7.975
 3221WAT     H1 9905   2.536   3.106   8.007
 3221WAT     H2 9906   2.407   3.009   7.981
 3222WAT      O 9907   0.197   8.216   0.577
 3222WAT     H1 9908   0.102   8.184   0.579
 3222WAT     H2 9909   0.240   8.198   0.665
 3223WAT      O 9910   1.153   3.017   2.359
 3223WAT     H1 9911   1.171   3.109   2.393
 3223WAT     H2 9912   1.239   2.966   2.354
 3224WAT      O 9913   0.188   2.367   4.565
 3224WAT     H1 9914   0.168   2.290   4.627
 3224WAT     H2 9915   0.107   2.424   4.556
 3225WAT      O 9916   8.074   2.980   9.413
 3225WAT     H1 9917   8.118   2.940   9.494
 3225WAT     H2 9918   8.141   3.033   9.362
 3226WAT      O 9919   2.530   0.764   0.048
 3226WAT     H1 9920   2.430   0.763   0.047
 3226WAT     H2 9921   2.562   0.811   0.130
 3227WAT      O 9922   2.300   9.807   2.723
 3227WAT     H1 9923   2.375   9.745   2.703
 3227WAT     H2 9924   2.240   9.767   2.792
 3228WAT      O 9925   4.533   5.641   3.231
 3228WAT     H1 9926   4.585   5.687   3.159
 3228WAT     H2 9927   4.596   5.594   3.293
 3229WAT      O 9928   4.741   8.752   5.515
 3229WAT     H1 9929   4.750   8.761   5.614
 3229WAT     H2 9930   4.682   8.674   5.494
 3230WAT      O 9931   3.350   5.093   7.260
 3230WAT     H1 9932   3.359   5.046   7.348
 3230WAT     H2 9933   3.260   5.071   7.220
 3231WAT      O 9934   1.555   2.294   8.933
 3231WAT     H1 9935   1.478   2.354   8.909
 3231WAT     H2 9936   1.578   2.306   9.029
 3232WAT      O 9937   3.409   8.798   6.508
 3232WAT     H1 9938   3.475   8.728   6.479
 3232WAT     H2 9939   3.438   8.837   6.595
 3233WAT      O 9940   9.699   0.089   8.381
 3233WAT     H1 9941   9.762   0.039   8.322
 3233WAT     H2 9942   9.711   0.188   8.366
 3234WAT      O 9943   7.183   8.238   0.014
 3234WAT     H1 9944   7.278   8.258   0.036
 3234WAT     H2 9945   7.179   8.150  -0.035
 3235WAT      O 9946   7.001   9.110   5.079
 3235WAT     H1 9947   7.080   9.050   5.091
 3235WAT     H2 9948   6.933   9.091   5.150
 3236WAT      O 9949   5.841   7.183   1.680
 3236WAT     H1 9950   5.773   7.222   1.742
 3236WAT     H2 9951   5.853   7.244   1.602
 3237WAT      O 9952   5.073   7.387   5.167
 3237WAT     H1 9953   5.153   7.365   5.223
 3237WAT     H2 9954   5.059   7.486   5.167
 3238WAT      O 9955   4.973   2.803   3.100
 3238WAT     H1 9956   4.882   2.844   3.088
 3238WAT     H2 9957   4.983   2.772   3.195
 3239WAT      O 9958   6.369   7.887   4.535
 3239WAT     H1 9959   6.395   7.976   4.574
 3239WAT     H2 9960   6.274   7.891   4.506
 3240WAT      O 9961   1.513   6.108   5.243
 3240WAT     H1 9962   1.526   6.009   5.253
 3240WAT     H2 9963   1.419   6.127   5.215
 3241WAT      O 9964   4.862   2.582   7.067
 3241WAT     H1 9965   4.844   2.644   7.144
 3241WAT     H2 9966   4.785   2.519   7.056
 3242WAT      O 9967   0.197   6.058   7.005
 3242WAT     H1 9968   0.229   6.069   6.911
 3242WAT     H2 9969   0.196   6.148   7.050
 3243WAT      O 9970   4.937   7.143   1.470
 3243WAT     H1 9971   4.898   7.151   1.378
 3243WAT     H2 9972   4.917   7.052   1.506
 3244WAT      O 9973   7.762   2.289   3.851
 3244WAT     H1 9974   7.839   2.326   3.903
 3244WAT     H2 9975   7.678   2.335   3.877
 3245WAT      O 9976   7.837   3.360   2.697
 3245WAT     H1 9977   7.785   3.444   2.685
 3245WAT     H2 9978   7.783   3.294   2.751
 3246WAT      O 9979   7.443   6.854   7.949
 3246WAT     H1 9980   7.400   6.843   7.860
 3246WAT     H2 9981   7.382   6.903   8.011
 3247WAT      O 9982   8.852   0.713   5.469
 3247WAT     H1 9983   8.839   0.670   5.558
 3247WAT     H2 9984   8.775   0.774   5.450
 3248WAT      O 9985   5.341   6.661   8.351
 3248WAT     H1 9986   5.419   6.613   8.392
 3248WAT     H2 9987   5.326   6.747   8.399
 3249WAT      O 9988   2.606   6.865   4.262
 3249WAT     H1 9989   2.563   6.859   4.172
 3249WAT     H2 9990   2.673   6.791   4.272
 3250WAT      O 9991   3.530   1.810   9.320
 3250WAT     H1 9992   3.465   1.835   9.392
 3250WAT     H2 9993   3.480   1.793   9.235
 3251WAT      O 9994   6.348   0.779   1.952
 3251WAT     H1 9995   6.394   0.867   1.966
 3251WAT     H2 9996   6.257   0.782   1.993
 3252WAT      O 9997   0.149   2.078   5.834
 3252WAT     H1 9998   0.057   2.049   5.861
 3252WAT     H2 9999   0.215   2.008   5.860
 3253WAT      O10000   3.175   7.213   4.870
 3253WAT     H110001   3.239   7.141   4.846
 3253WAT     H210002   3.179   7.231   4.968
 3254WAT      O10003   3.732   9.566   8.211
 3254WAT     H110004   3.832   9.567   8.205
 3254WAT     H210005   3.702   9.480   8.252
 3255WAT      O10006   3.831   8.663   1.433
 3255WAT     H110007   3.878   8.673   1.345
 3255WAT     H210008   3.898   8.672   1.507
 3256WAT      O10009   4.773   3.666   6.060
 3256WAT     H110010   4.810   3.657   5.968
 3256WAT     H210011   4.840   3.713   6.119
 3257WAT      O10012   6.969   6.175   5.125
 3257WAT     H110013   7.048   6.233   5.145
 3257WAT     H210014   6.916   6.161   5.208
 3258WAT      O10015   6.384   1.048   3.133
 3258WAT     H110016   6.377   1.047   3.233
 3258WAT     H210017   6.437   1.128   3.105
 3259WAT      O10018   5.402   3.016   8.445
 3259WAT     H110019   5.309   3.045   8.420
 3259WAT     H210020   5.468   3.066   8.389
 3260WAT      O10021   6.887   9.644   1.803
 3260WAT     H110022   6.901   9.740   1.780
 3260WAT     H210023   6.831   9.637   1.885
 3261WAT      O10024   9.615   1.903   3.808
 3261WAT     H110025   9.526   1.920   3.851
 3261WAT     H210026   9.618   1.948   3.719
 3262WAT      O10027   3.712   9.798   8.935
 3262WAT     H110028   3.641   9.858   8.899
 3262WAT     H210029   3.689   9.774   9.030
 3263WAT      O10030   1.769   8.517   0.347
 3263WAT     H110031   1.751   8.506   0.445
 3263WAT     H210032   1.860   8.555   0.334
 3264WAT      O10033   5.872   4.724   2.368
 3264WAT     H110034   5.929   4.737   2.287
 3264WAT     H210035   5.837   4.813   2.398
 3265WAT      O10036   6.927   2.291   9.883
 3265WAT     H110037   7.027   2.295   9.876
 3265WAT     H210038   6.889   2.379   9.854
 3266WAT      O10039   3.130   0.852   5.675
 3266WAT     H110040   3.064   0.787   5.713
 3266WAT     H210041   3.096   0.945   5.686
 3267WAT      O10042   3.570   8.160   4.766
 3267WAT     H110043   3.492   8.221   4.757
 3267WAT     H210044   3.577   8.102   4.685
 3268WAT      O10045   9.678   4.468   4.679
 3268WAT     H110046   9.666   4.471   4.778
 3268WAT     H210047   9.610   4.406   4.639
 3269WAT      O10048   2.569   3.371   1.671
 3269WAT     H110049   2.581   3.448   1.734
 3269WAT     H210050   2.495   3.390   1.607
 3270WAT      O10051   0.302   9.546   7.172
 3270WAT     H110052   0.337   9.610   7.103
 3270WAT     H210053   0.295   9.592   7.260
 3271WAT      O10054   3.558   5.486   0.554
 3271WAT     H110055   3.629   5.555   0.566
 3271WAT     H210056   3.601   5.396   0.545
 3272WAT      O10057   9.600   8.692   3.568
 3272WAT     H110058   9.648   8.607   3.590
 3272WAT     H210059   9.549   8.724   3.648
 3273WAT      O10060   0.954   4.890   3.160
 3273WAT     H110061   0.903   4.882   3.074
 3273WAT     H210062   0.954   4.985   3.190
 3274WAT      O10063   9.370   4.053   6.952
 3274WAT     H110064   9.286   4.037   7.005
 3274WAT     H210065   9.346   4.086   6.861
 3275WAT      O10066   9.795   3.296   9.697
 3275WAT     H110067   9.777   3.257   9.788
 3275WAT     H210068   9.764   3.391   9.695
 3276WAT      O10069   7.449   4.002   8.613
 3276WAT     H110070   7.467   4.093   8.651
 3276WAT     H210071   7.494   3.933   8.670
 3277WAT      O10072   9.300   8.059   4.895
 3277WAT     H110073   9.222   8.007   4.860
 3277WAT     H210074   9.286   8.156   4.875
 3278WAT      O10075   5.024   4.248   1.076
 3278WAT     H110076   5.032   4.218   0.980
 3278WAT     H210077   4.973   4.334   1.080
 3279WAT      O10078   4.619   9.402   2.856
 3279WAT     H110079   4.672   9.342   2.916
 3279WAT     H210080   4.532   9.425   2.899
 3280WAT      O10081   9.073   3.889   7.683
 3280WAT     H110082   9.144   3.913   7.616
 3280WAT     H210083   9.010   3.822   7.643
 3281WAT      O10084   9.861   8.051   9.239
 3281WAT     H110085   9.930   7.981   9.222
 3281WAT     H210086   9.846   8.061   9.337
 3282WAT      O10087   2.540   6.614   7.592
 3282WAT     H110088   2.497   6.677   7.528
 3282WAT     H210089   2.612   6.662   7.642
 3283WAT      O10090   1.139   9.759   0.066
 3283WAT     H110091   1.151   9.773   0.164
 3283WAT     H210092   1.126   9.847   0.021
 3284WAT      O10093   8.163   7.759   6.425
 3284WAT     H110094   8.203   7.787   6.513
 3284WAT     H210095   8.165   7.836   6.362
 3285WAT      O10096   3.200   0.245   5.538
 3285WAT     H110097   3.238   0.335   5.556
 3285WAT     H210098   3.262   0.174   5.571
 3286WAT      O10099   1.702   8.253   6.081
 3286WAT     H110100   1.652   8.225   6.163
 3286WAT     H210101   1.718   8.173   6.024
 3287WAT      O10102   7.038   6.705   9.213
 3287WAT     H110103   6.995   6.640   9.275
 3287WAT     H210104   7.136   6.687   9.207
 3288WAT      O10105   5.167   7.748   3.333
 3288WAT     H110106   5.233   7.684   3.292
 3288WAT     H210107   5.167   7.833   3.282
 3289WAT      O10108   2.325   6.087   5.533
 3289WAT     H110109   2.371   6.094   5.621
 3289WAT     H210110   2.393   6.082   5.460
 3290WAT      O10111   3.742   6.704   2.965
 3290WAT     H110112   3.652   6.666   2.941
 3290WAT     H210113   3.763   6.680   3.060
 3291WAT      O10114   8.516   9.614   4.239
 3291WAT     H110115   8.604   9.660   4.226
 3291WAT     H210116   8.508   9.540   4.172
 3292WAT      O10117   7.485   4.175   4.407
 3292WAT     H110118   7.441   4.151   4.494
 3292WAT     H210119   7.524   4.267   4.414
 3293WAT      O10120   1.129   6.151   0.973
 3293WAT     H110121   1.109   6.100   0.890
 3293WAT     H210122   1.168   6.090   1.042
 3294WAT      O10123   4.212   4.892   0.929
 3294WAT     H110124   4.140   4.877   0.861
 3294WAT     H210125   4.294   4.842   0.902
 3295WAT      O10126   0.025   5.989   9.414
 3295WAT     H110127  -0.017   6.024   9.498
 3295WAT     H210128  -0.025   6.021   9.335
 3296WAT      O10129   0.200   8.746   7.565
 3296WAT     H110130   0.122   8.780   7.513
 3296WAT     H210131   0.269   8.818   7.573
 3297WAT      O10132   5.300   7.869   2.963
 3297WAT     H110133   5.334   7.900   2.874
 3297WAT     H210134   5.360   7.901   3.035
 3298WAT      O10135   3.491   1.535   3.385
 3298WAT     H110136   3.555   1.559   3.312
 3298WAT     H210137   3.508   1.592   3.465
 3299WAT      O10138   2.198   3.574   5.392
 3299WAT     H110139   2.233   3.481   5.402
 3299WAT     H210140   2.223   3.628   5.473
 3300WAT      O10141   6.121   5.863   7.550
 3300WAT     H110142   6.038   5.902   7.590
 3300WAT     H210143   6.199   5.886   7.608
 3301WAT      O10144   6.440   8.454   6.102
 3301WAT     H110145   6.481   8.447   6.193
 3301WAT     H210146   6.403   8.365   6.076
 3302WAT      O10147   0.944   8.263   9.302
 3302WAT     H110148   0.872   8.195   9.285
 3302WAT     H210149   0.937   8.337   9.235
 3303WAT      O10150   1.300   8.334   0.747
 3303WAT     H110151   1.224   8.355   0.808
 3303WAT     H210152   1.342   8.248   0.775
 3304WAT      O10153   6.791   5.735   3.582
 3304WAT     H110154   6.824   5.734   3.677
 3304WAT     H210155   6.763   5.828   3.557
 3305WAT      O10156   7.077   5.305   6.580
 3305WAT     H110157   7.055   5.362   6.659
 3305WAT     H210158   7.155   5.345   6.532
 3306WAT      O10159   6.428   4.552   8.289
 3306WAT     H110160   6.421   4.459   8.324
 3306WAT     H210161   6.486   4.606   8.350
 3307WAT      O10162   2.914   2.832   4.035
 3307WAT     H110163   2.826   2.829   3.987
 3307WAT     H210164   2.988   2.839   3.967
 3308WAT      O10165   4.026   1.470   5.028
 3308WAT     H110166   4.054   1.522   4.947
 3308WAT     H210167   3.929   1.486   5.047
 3309WAT      O10168   8.858   4.073   3.498
 3309WAT     H110169   8.860   4.106   3.403
 3309WAT     H210170   8.944   4.099   3.543
 3310WAT      O10171   2.645   9.342   3.748
 3310WAT     H110172   2.696   9.414   3.795
 3310WAT     H210173   2.708   9.284   3.697
 3311WAT      O10174   0.814   9.024   8.068
 3311WAT     H110175   0.766   8.948   8.112
 3311WAT     H210176   0.822   9.006   7.970
 3312WAT      O10177   0.279   6.301   5.722
 3312WAT     H110178   0.185   6.280   5.750
 3312WAT     H210179   0.338   6.225   5.748
 3313WAT      O10180   6.865   2.281   3.008
 3313WAT     H110181   6.915   2.232   3.080
 3313WAT     H210182   6.917   2.277   2.923
 3314WAT      O10183   9.605   9.299   9.580
 3314WAT     H110184   9.552   9.336   9.657
 3314WAT     H210185   9.585   9.201   9.571
 3315WAT      O10186   1.482   8.128   8.325
 3315WAT     H110187   1.547   8.059   8.291
 3315WAT     H210188   1.529   8.215   8.337
 3316WAT      O10189   2.199   5.456   7.509
 3316WAT     H110190   2.145   5.423   7.431
 3316WAT     H210191   2.296   5.457   7.484
 3317WAT      O10192   8.442   5.105   5.263
 3317WAT     H110193   8.494   5.034   5.311
 3317WAT     H210194   8.388   5.156   5.330
 3318WAT      O10195   3.787   3.141   3.746
 3318WAT     H110196   3.701   3.188   3.768
 3318WAT     H210197   3.839   3.126   3.830
 3319WAT      O10198   5.259   0.057   4.958
 3319WAT     H110199   5.302   0.146   4.949
 3319WAT     H210200   5.312  -0.012   4.908
 3320WAT      O10201   9.420   3.642   2.419
 3320WAT     H110202   9.363   3.724   2.422
 3320WAT     H210203   9.369   3.569   2.372
 3321WAT      O10204   5.785   5.720   3.402
 3321WAT     H110205   5.796   5.774   3.318
 3321WAT     H210206   5.715   5.651   3.388
 3322WAT      O10207   2.949   4.279   8.224
 3322WAT     H110208   2.859   4.277   8.268
 3322WAT     H210209   2.964   4.193   8.177
 3323WAT      O10210   8.342   4.169   6.259
 3323WAT     H110211   8.350   4.269   6.268
 3323WAT     H210212   8.344   4.144   6.162
 3324WAT      O10213   2.695   5.883   6.171
 3324WAT     H110214   2.692   5.981   6.189
 3324WAT     H210215   2.605   5.853   6.137
 3325WAT      O10216   7.761   8.703   9.711
 3325WAT     H110217   7.847   8.731   9.670
 3325WAT     H210218   7.778   8.659   9.799
 3326WAT      O10219   5.099   0.288   1.732
 3326WAT     H110220   5.040   0.223   1.779
 3326WAT     H210221   5.187   0.293   1.778
 3327WAT      O10222   4.615   1.254   3.736
 3327WAT     H110223   4.652   1.284   3.648
 3327WAT     H210224   4.533   1.307   3.757
 3328WAT      O10225   9.014   7.134   5.868
 3328WAT     H110226   9.051   7.082   5.791
 3328WAT     H210227   8.925   7.173   5.842
 3329WAT      O10228   4.401   9.389   6.765
 3329WAT     H110229   4.413   9.343   6.854
 3329WAT     H210230   4.488   9.388   6.715
 3330WAT      O10231   0.556   6.806   1.080
 3330WAT     H110232   0.517   6.797   0.988
 3330WAT     H210233   0.645   6.851   1.075
 3331WAT      O10234   9.418   7.010   3.686
 3331WAT     H110235   9.471   6.929   3.662
 3331WAT     H210236   9.423   7.025   3.785
 3332WAT      O10237   7.807   8.019   8.088
 3332WAT     H110238   7.763   7.934   8.118
 3332WAT     H210239   7.881   8.042   8.151
 3333WAT      O10240   9.580   8.829   9.071
 3333WAT     H110241   9.486   8.863   9.067
 3333WAT     H210242   9.615   8.818   8.978
 3334WAT      O10243   9.723   5.317   4.136
 3334WAT     H110244   9.743   5.219   4.138
 3334WAT     H210245   9.624   5.331   4.145
 3335WAT      O10246   9.539   6.030   3.313
 3335WAT     H110247   9.575   6.116   3.276
 3335WAT     H210248   9.534   6.035   3.412
 3336WAT      O10249   4.318   3.659   6.457
 3336WAT     H110250   4.327   3.758   6.467
 3336WAT     H210251   4.402   3.615   6.486
 3337WAT      O10252   1.254   2.010   1.740
 3337WAT     H110253   1.225   2.064   1.819
 3337WAT     H210254   1.321   1.942   1.768
 3338WAT      O10255   2.054   2.295   3.804
 3338WAT     H110256   1.986   2.266   3.871
 3338WAT     H210257   2.047   2.238   3.722
 3339WAT      O10258   0.755   9.279   2.159
 3339WAT     H110259   0.734   9.193   2.111
 3339WAT     H210260   0.815   9.259   2.236
 3340WAT      O10261   8.701   1.325   4.213
 3340WAT     H110262   8.744   1.411   4.183
 3340WAT     H210263   8.763   1.276   4.273
 3341WAT      O10264   4.930   0.699   7.030
 3341WAT     H110265   5.000   0.707   6.958
 3341WAT     H210266   4.972   0.664   7.113
 3342WAT      O10267   0.300   1.177   2.295
 3342WAT     H110268   0.321   1.257   2.351
 3342WAT     H210269   0.301   1.204   2.198
 3343WAT      O10270   6.449   2.636   3.117
 3343WAT     H110271   6.405   2.656   3.204
 3343WAT     H210272   6.539   2.596   3.133
 3344WAT      O10273   3.111   4.081   7.342
 3344WAT     H110274   3.052   4.115   7.270
 3344WAT     H210275   3.146   4.158   7.396
 3345WAT      O10276   0.935   1.761   7.248
 3345WAT     H110277   1.025   1.724   7.223
 3345WAT     H210278   0.912   1.837   7.187
 3346WAT      O10279   5.137   5.182   3.833
 3346WAT     H110280   5.165   5.087   3.824
 3346WAT     H210281   5.107   5.200   3.926
 3347WAT      O10282   3.531   4.822   0.828
 3347WAT     H110283   3.479   4.809   0.913
 3347WAT     H210284   3.470   4.854   0.756
 3348WAT      O10285   4.845   6.659   9.159
 3348WAT     H110286   4.920   6.717   9.127
 3348WAT     H210287   4.882   6.579   9.206
 3349WAT      O10288   7.704   4.003   3.300
 3349WAT     H110289   7.773   3.966   3.363
 3349WAT     H210290   7.721   4.101   3.287
 3350WAT      O10291   5.396   2.605   8.104
 3350WAT     H110292   5.355   2.655   8.028
 3350WAT     H210293   5.452   2.530   8.068
 3351WAT      O10294   2.619   5.273   4.403
 3351WAT     H110295   2.557   5.343   4.440
 3351WAT     H210296   2.598   5.185   4.445
 3352WAT      O10297   5.412   1.628   2.017
 3352WAT     H110298   5.362   1.545   1.995
 3352WAT     H210299   5.485   1.607   2.083
 3353WAT      O10300   7.804   3.460   0.409
 3353WAT     H110301   7.859   3.483   0.489
 3353WAT     H210302   7.843   3.381   0.363
 3354WAT      O10303   5.932   4.832   5.295
 3354WAT     H110304   5.878   4.886   5.359
 3354WAT     H210305   5.873   4.798   5.222
 3355WAT      O10306   7.271   3.841   0.612
 3355WAT     H110307   7.228   3.791   0.688
 3355WAT     H210308   7.368   3.818   0.608
 3356WAT      O10309   8.054   9.652   8.822
 3356WAT     H110310   8.047   9.655   8.722
 3356WAT     H210311   8.119   9.581   8.849
 3357WAT      O10312   8.765   2.600   3.496
 3357WAT     H110313   8.714   2.645   3.423
 3357WAT     H210314   8.816   2.522   3.457
 3358WAT      O10315   6.792   8.034   5.980
 3358WAT     H110316   6.871   7.979   5.951
 3358WAT     H210317   6.823   8.121   6.017
 3359WAT      O10318   5.737   7.443   6.270
 3359WAT     H110319   5.733   7.354   6.225
 3359WAT     H210320   5.655   7.456   6.325
 3360WAT      O10321   6.757   3.867   0.280
 3360WAT     H110322   6.855   3.851   0.268
 3360WAT     H210323   6.717   3.896   0.194
 3361WAT      O10324   0.096   5.471   4.205
 3361WAT     H110325   0.000   5.443   4.210
 3361WAT     H210326   0.105   5.565   4.236
 3362WAT      O10327   9.200   4.956   5.580
 3362WAT     H110328   9.121   4.907   5.617
 3362WAT     H210329   9.277   4.948   5.644
 3363WAT      O10330   8.007   0.212   7.644
 3363WAT     H110331   8.104   0.187   7.646
 3363WAT     H210332   7.954   0.137   7.605
 3364WAT      O10333   8.124   2.547   1.394
 3364WAT     H110334   8.156   2.579   1.304
 3364WAT     H210335   8.095   2.451   1.386
 3365WAT      O10336   2.457   7.492   7.329
 3365WAT     H110337   2.363   7.484   7.293
 3365WAT     H210338   2.453   7.511   7.427
 3366WAT      O10339   1.473   8.635   0.331
 3366WAT     H110340   1.439   8.555   0.281
 3366WAT     H210341   1.565   8.617   0.366
 3367WAT      O10342   0.624   3.310   1.007
 3367WAT     H110343   0.587   3.367   0.934
 3367WAT     H210344   0.576   3.222   1.008
 3368WAT      O10345   4.284   3.429   9.200
 3368WAT     H110346   4.286   3.394   9.294
 3368WAT     H210347   4.336   3.368   9.141
 3369WAT      O10348   7.038   2.836   8.966
 3369WAT     H110349   7.005   2.801   8.878
 3369WAT     H210350   7.138   2.839   8.965
 3370WAT      O10351   2.584   6.233   1.456
 3370WAT     H110352   2.494   6.259   1.419
 3370WAT     H210353   2.622   6.309   1.508
 3371WAT      O10354   6.493   6.859   0.857
 3371WAT     H110355   6.585   6.898   0.868
 3371WAT     H210356   6.497   6.779   0.798
 3372WAT      O10357   5.758   9.658   1.017
 3372WAT     H110358   5.738   9.592   1.090
 3372WAT     H210359   5.721   9.624   0.931
 3373WAT      O10360   8.067   5.514   3.886
 3373WAT     H110361   8.135   5.542   3.954
 3373WAT     H210362   8.085   5.419   3.858
 3374WAT      O10363   2.258   5.108   0.891
 3374WAT     H110364   2.232   5.083   0.984
 3374WAT     H210365   2.238   5.031   0.829
 3375WAT      O10366   1.513   5.586   4.923
 3375WAT     H110367   1.536   5.565   4.828
 3375WAT     H210368   1.597   5.608   4.974
 3376WAT      O10369   0.030   3.835   4.395
 3376WAT     H110370  -0.017   3.848   4.482
 3376WAT     H210371   0.033   3.737   4.373
 3377WAT      O10372   4.274   8.025   1.034
 3377WAT     H110373   4.244   8.115   1.002
 3377WAT     H210374   4.262   8.019   1.133
 3378WAT      O10375   7.535   6.268   3.109
 3378WAT     H110376   7.509   6.335   3.179
 3378WAT     H210377   7.632   6.247   3.118
 3379WAT      O10378   5.437   6.169   0.580
 3379WAT     H110379   5.500   6.149   0.656
 3379WAT     H210380   5.345   6.140   0.604
 3380WAT      O10381   3.694   8.683   2.863
 3380WAT     H110382   3.614   8.674   2.923
 3380WAT     H210383   3.675   8.639   2.776
 3381WAT      O10384   0.272   1.808   2.010
 3381WAT     H110385   0.344   1.753   2.053
 3381WAT     H210386   0.253   1.889   2.067
 3382WAT      O10387   8.029   7.669   1.488
 3382WAT     H110388   7.954   7.726   1.453
 3382WAT     H210389   8.081   7.721   1.555
 3383WAT      O10390   5.923   4.776   2.732
 3383WAT     H110391   6.018   4.765   2.762
 3383WAT     H210392   5.918   4.845   2.660
 3384WAT      O10393   5.574   1.541   8.194
 3384WAT     H110394   5.588   1.524   8.097
 3384WAT     H210395   5.621   1.626   8.220
 3385WAT      O10396   5.284   3.786   3.630
 3385WAT     H110397   5.319   3.706   3.679
 3385WAT     H210398   5.192   3.767   3.598
 3386WAT      O10399   6.948   0.972   4.375
 3386WAT     H110400   6.965   0.889   4.323
 3386WAT     H210401   7.009   0.974   4.455
 3387WAT      O10402   0.396   4.128   2.118
 3387WAT     H110403   0.430   4.202   2.061
 3387WAT     H210404   0.459   4.112   2.195
 3388WAT      O10405   6.499   2.609   4.949
 3388WAT     H110406   6.545   2.624   4.862
 3388WAT     H210407   6.566   2.602   5.022
 3389WAT      O10408   6.494   9.137   8.933
 3389WAT     H110409   6.424   9.207   8.920
 3389WAT     H210410   6.462   9.051   8.893
 3390WAT      O10411   9.705   7.226   9.824
 3390WAT     H110412   9.731   7.300   9.886
 3390WAT     H210413   9.612   7.196   9.845
 3391WAT      O10414   8.948   5.555   7.912
 3391WAT     H110415   8.988   5.638   7.950
 3391WAT     H210416   8.948   5.483   7.981
 3392WAT      O10417   4.907   5.770   2.088
 3392WAT     H110418   4.961   5.719   2.155
 3392WAT     H210419   4.966   5.801   2.013
 3393WAT      O10420   7.013   7.597   9.285
 3393WAT     H110421   7.070   7.656   9.229
 3393WAT     H210422   6.918   7.630   9.283
 3394WAT      O10423   1.004   4.856   5.857
 3394WAT     H110424   1.082   4.918   5.867
 3394WAT     H210425   1.035   4.762   5.868
 3395WAT      O10426   3.746   0.260   9.381
 3395WAT     H110427   3.686   0.334   9.351
 3395WAT     H210428   3.692   0.179   9.403
 3396WAT      O10429   4.630   4.028   0.360
 3396WAT     H110430   4.704   4.001   0.422
 3396WAT     H210431   4.621   3.960   0.287
 3397WAT      O10432   4.321   6.252   0.312
 3397WAT     H110433   4.350   6.227   0.220
 3397WAT     H210434   4.401   6.255   0.373
 3398WAT      O10435   5.306   4.421   6.432
 3398WAT     H110436   5.270   4.398   6.342
 3398WAT     H210437   5.231   4.430   6.497
 3399WAT      O10438   9.392   0.661   8.632
 3399WAT     H110439   9.469   0.651   8.694
 3399WAT     H210440   9.346   0.573   8.620
 3400WAT      O10441   4.621   0.834   8.743
 3400WAT     H110442   4.576   0.786   8.668
 3400WAT     H210443   4.580   0.807   8.830
 3401WAT      O10444   0.862   7.064   6.875
 3401WAT     H110445   0.945   7.119   6.867
 3401WAT     H210446   0.884   6.977   6.919
 3402WAT      O10447   4.013   4.063   5.365
 3402WAT     H110448   3.934   4.071   5.305
 3402WAT     H210449   4.091   4.109   5.324
 3403WAT      O10450   7.306   7.560   1.097
 3403WAT     H110451   7.286   7.502   1.018
 3403WAT     H210452   7.244   7.536   1.171
 3404WAT      O10453   6.245   5.670   1.034
 3404WAT     H110454   6.155   5.636   1.005
 3404WAT     H210455   6.281   5.610   1.105
 3405WAT      O10456   0.980   1.472   1.438
 3405WAT     H110457   1.031   1.556   1.456
 3405WAT     H210458   0.890   1.477   1.481
 3406WAT      O10459   3.659   8.610   0.345
 3406WAT     H110460   3.571   8.656   0.331
 3406WAT     H210461   3.690   8.628   0.438
 3407WAT      O10462   2.383   0.834   3.796
 3407WAT     H110463   2.466   0.789   3.828
 3407WAT     H210464   2.380   0.830   3.696
 3408WAT      O10465   8.138   2.694   1.632
 3408WAT     H110466   8.127   2.647   1.545
 3408WAT     H210467   8.169   2.788   1.616
 3409WAT      O10468   3.768   6.176   4.277
 3409WAT     H110469   3.691   6.186   4.339
 3409WAT     H210470   3.738   6.128   4.194
 3410WAT      O10471   0.178   2.486   2.299
 3410WAT     H110472   0.163   2.388   2.312
 3410WAT     H210473   0.264   2.513   2.343
 3411WAT      O10474   4.511   7.751   8.567
 3411WAT     H110475   4.524   7.850   8.579
 3411WAT     H210476   4.419   7.734   8.532
 3412WAT      O10477   9.327   5.102   8.331
 3412WAT     H110478   9.392   5.087   8.407
 3412WAT     H210479   9.263   5.174   8.356
 3413WAT      O10480   7.207   3.335   2.392
 3413WAT     H110481   7.223   3.248   2.345
 3413WAT     H210482   7.165   3.317   2.481
 3414WAT      O10483   9.168   6.816   0.958
 3414WAT     H110484   9.087   6.827   0.900
 3414WAT     H210485   9.152   6.742   1.023
 3415WAT      O10486   4.351   9.738   1.349
 3415WAT     H110487   4.294   9.677   1.405
 3415WAT     H210488   4.327   9.727   1.253
 3416WAT      O10489   8.932   6.314   8.450
 3416WAT     H110490   9.031   6.305   8.456
 3416WAT     H210491   8.897   6.357   8.533
 3417WAT      O10492   0.363   9.247   4.333
 3417WAT     H110493   0.346   9.225   4.429
 3417WAT     H210494   0.371   9.163   4.280
 3418WAT      O10495   2.978   3.706   0.041
 3418WAT     H110496   2.968   3.613   0.076
 3418WAT     H210497   2.973   3.771   0.117
 3419WAT      O10498   8.375   9.010   6.263
 3419WAT     H110499   8.466   9.010   6.220
 3419WAT     H210500   8.313   9.067   6.210
 3420WAT      O10501   8.559   6.906   6.001
 3420WAT     H110502   8.550   6.817   5.956
 3420WAT     H210503   8.534   6.978   5.936
 3421WAT      O10504   1.572   6.639   8.401
 3421WAT     H110505   1.521   6.723   8.420
 3421WAT     H210506   1.602   6.598   8.487
 3422WAT      O10507   6.135   8.334   4.849
 3422WAT     H110508   6.060   8.394   4.880
 3422WAT     H210509   6.199   8.319   4.924
 3423WAT      O10510   2.704   9.150   4.266
 3423WAT     H110511   2.695   9.211   4.187
 3423WAT     H210512   2.632   9.082   4.264
 3424WAT      O10513   7.410   4.332   0.534
 3424WAT     H110514   7.416   4.319   0.435
 3424WAT     H210515   7.347   4.265   0.572
 3425WAT      O10516   5.542   8.908   1.263
 3425WAT     H110517   5.588   8.971   1.200
 3425WAT     H210518   5.475   8.959   1.317
 3426WAT      O10519   7.490   9.828   3.689
 3426WAT     H110520   7.472   9.751   3.751
 3426WAT     H210521   7.459   9.805   3.597
 3427WAT      O10522   8.853   3.249   6.287
 3427WAT     H110523   8.949   3.257   6.313
 3427WAT     H210524   8.821   3.155   6.303
 3428WAT      O10525   3.028   7.676   6.104
 3428WAT     H110526   3.075   7.716   6.182
 3428WAT     H210527   3.095   7.640   6.039
 3429WAT      O10528   3.229   9.285   9.772
 3429WAT     H110529   3.268   9.222   9.839
 3429WAT     H210530   3.294   9.300   9.698
 3430WAT      O10531   5.503   0.208   7.179
 3430WAT     H110532   5.513   0.118   7.219
 3430WAT     H210533   5.480   0.274   7.250
 3431WAT      O10534   6.411   3.351   3.869
 3431WAT     H110535   6.452   3.351   3.778
 3431WAT     H210536   6.312   3.367   3.861
 3432WAT      O10537   4.737   8.103   7.265
 3432WAT     H110538   4.802   8.146   7.202
 3432WAT     H210539   4.778   8.098   7.356
 3433WAT      O10540   4.181   3.947   6.265
 3433WAT     H110541   4.110   3.887   6.301
 3433WAT     H210542   4.262   3.943   6.324
 3434WAT      O10543   0.034   1.370   2.365
 3434WAT     H110544  -0.032   1.296   2.350
 3434WAT     H210545   0.082   1.356   2.451
 3435WAT      O10546   3.243   5.979   0.791
 3435WAT     H110547   3.199   5.899   0.833
 3435WAT     H210548   3.297   5.949   0.713
 3436WAT      O10549   7.351   3.079   9.431
 3436WAT     H110550   7.291   3.003   9.407
 3436WAT     H210551   7.371   3.077   9.529
 3437WAT      O10552   5.180   1.800   6.600
 3437WAT     H110553   5.106   1.826   6.538
 3437WAT     H210554   5.179   1.701   6.613
 3438WAT      O10555   1.770   1.751   4.545
 3438WAT     H110556   1.744   1.714   4.634
 3438WAT     H210557   1.815   1.680   4.491
 3439WAT      O10558   8.141   9.831   1.544
 3439WAT     H110559   8.170   9.736   1.545
 3439WAT     H210560   8.098   9.853   1.632
 3440WAT      O10561   6.938   9.152   7.073
 3440WAT     H110562   7.003   9.198   7.134
 3440WAT     H210563   6.865   9.215   7.049
 3441WAT      O10564   1.791   6.647   1.897
 3441WAT     H110565   1.710   6.628   1.952
 3441WAT     H210566   1.796   6.745   1.878
 3442WAT      O10567   0.991   2.651   8.296
 3442WAT     H110568   0.942   2.707   8.363
 3442WAT     H210569   0.992   2.556   8.327
 3443WAT      O10570   0.620   5.322   8.066
 3443WAT     H110571   0.521   5.332   8.074
 3443WAT     H210572   0.665   5.378   8.136
 3444WAT      O10573   0.490   2.708   2.410
 3444WAT     H110574   0.486   2.608   2.418
 3444WAT     H210575   0.576   2.741   2.449
 3445WAT      O10576   6.245   1.478   5.569
 3445WAT     H110577   6.176   1.543   5.536
 3445WAT     H210578   6.305   1.524   5.634
 3446WAT      O10579   4.978   7.857   2.943
 3446WAT     H110580   5.027   7.770   2.928
 3446WAT     H210581   4.928   7.852   3.029
 3447WAT      O10582   7.504   4.739   6.397
 3447WAT     H110583   7.585   4.771   6.349
 3447WAT     H210584   7.434   4.714   6.330
 3448WAT      O10585   5.360   0.070   7.737
 3448WAT     H110586   5.311   0.151   7.770
 3448WAT     H210587   5.453   0.070   7.773
 3449WAT      O10588   9.530   6.631   2.648
 3449WAT     H110589   9.567   6.605   2.737
 3449WAT     H210590   9.436   6.600   2.641
 3450WAT      O10591   0.910   1.174   5.971
 3450WAT     H110592   0.831   1.204   6.024
 3450WAT     H210593   0.975   1.250   5.963
 3451WAT      O10594   7.929   8.478   6.801
 3451WAT     H110595   8.023   8.447   6.812
 3451WAT     H210596   7.867   8.400   6.807
 3452WAT      O10597   0.226   9.774   2.340
 3452WAT     H110598   0.307   9.715   2.343
 3452WAT     H210599   0.253   9.864   2.305
 3453WAT      O10600   7.336   9.709   8.801
 3453WAT     H110601   7.407   9.755   8.854
 3453WAT     H210602   7.340   9.739   8.706
 3454WAT      O10603   6.081   1.305   6.128
 3454WAT     H110604   6.145   1.304   6.051
 3454WAT     H210605   5.994   1.346   6.099
 3455WAT      O10606   6.900   5.063   9.639
 3455WAT     H110607   6.990   5.032   9.608
 3455WAT     H210608   6.851   5.105   9.562
 3456WAT      O10609   8.034   5.884   7.668
 3456WAT     H110610   7.943   5.926   7.657
 3456WAT     H210611   8.103   5.956   7.675
 3457WAT      O10612   0.830   0.364   5.843
 3457WAT     H110613   0.856   0.426   5.917
 3457WAT     H210614   0.858   0.271   5.866
 3458WAT      O10615   0.177   7.223   2.918
 3458WAT     H110616   0.141   7.272   2.997
 3458WAT     H210617   0.124   7.246   2.837
 3459WAT      O10618   1.905   0.502   7.056
 3459WAT     H110619   1.993   0.547   7.068
 3459WAT     H210620   1.832   0.571   7.061
 3460WAT      O10621   5.784   5.847   7.874
 3460WAT     H110622   5.694   5.809   7.852
 3460WAT     H210623   5.808   5.823   7.968
 3461WAT      O10624   6.620   2.092   2.953
 3461WAT     H110625   6.689   2.042   2.900
 3461WAT     H210626   6.656   2.113   3.043
 3462WAT      O10627   8.835   3.540   2.004
 3462WAT     H110628   8.760   3.605   2.014
 3462WAT     H210629   8.918   3.589   1.978
 3463WAT      O10630   8.545   4.046   0.720
 3463WAT     H110631   8.630   4.092   0.747
 3463WAT     H210632   8.526   4.066   0.623
 3464WAT      O10633   5.991   0.375   5.610
 3464WAT     H110634   5.956   0.282   5.607
 3464WAT     H210635   5.982   0.411   5.703
 3465WAT      O10636   6.072   7.011   8.863
 3465WAT     H110637   5.974   6.998   8.850
 3465WAT     H210638   6.122   6.964   8.791
 3466WAT      O10639   2.041   6.607   1.956
 3466WAT     H110640   1.944   6.610   1.933
 3466WAT     H210641   2.055   6.645   2.047
 3467WAT      O10642   2.190   6.877   3.454
 3467WAT     H110643   2.178   6.797   3.395
 3467WAT     H210644   2.277   6.870   3.502
 3468WAT      O10645   3.826   9.399   9.054
 3468WAT     H110646   3.828   9.468   8.981
 3468WAT     H210647   3.802   9.442   9.140
 3469WAT      O10648   3.410   5.507   4.221
 3469WAT     H110649   3.423   5.520   4.123
 3469WAT     H210650   3.497   5.519   4.268
 3470WAT      O10651   7.400   4.794   1.238
 3470WAT     H110652   7.430   4.736   1.313
 3470WAT     H210653   7.309   4.830   1.258
 3471WAT      O10654   3.548   5.253   7.387
 3471WAT     H110655   3.499   5.213   7.309
 3471WAT     H210656   3.483   5.301   7.446
 3472WAT      O10657   3.800   0.747   5.608
 3472WAT     H110658   3.823   0.650   5.612
 3472WAT     H210659   3.869   0.800   5.657
 3473WAT      O10660   9.651   4.911   3.070
 3473WAT     H110661   9.662   5.009   3.051
 3473WAT     H210662   9.656   4.860   2.984
 3474WAT      O10663   4.004   2.354   6.040
 3474WAT     H110664   4.101   2.377   6.046
 3474WAT     H210665   3.995   2.255   6.032
 3475WAT      O10666   2.692   9.438   6.512
 3475WAT     H110667   2.598   9.426   6.481
 3475WAT     H210668   2.693   9.490   6.598
 3476WAT      O10669   9.502   7.498   9.594
 3476WAT     H110670   9.596   7.534   9.599
 3476WAT     H210671   9.476   7.462   9.684
 3477WAT      O10672   4.044   2.106   4.001
 3477WAT     H110673   4.060   2.015   4.038
 3477WAT     H210674   3.947   2.115   3.975
 3478WAT      O10675   5.922   8.945   6.207
 3478WAT     H110676   5.828   8.933   6.240
 3478WAT     H210677   5.920   8.997   6.121
 3479WAT      O10678   7.295   9.363   9.268
 3479WAT     H110679   7.213   9.411   9.236
 3479WAT     H210680   7.286   9.346   9.366
 3480WAT      O10681   8.870   2.324   1.282
 3480WAT     H110682   8.804   2.353   1.212
 3480WAT     H210683   8.920   2.244   1.249
 3481WAT      O10684   6.950   6.150   2.462
 3481WAT     H110685   7.015   6.079   2.489
 3481WAT     H210686   6.859   6.110   2.453
 3482WAT      O10687   4.313   8.262   3.343
 3482WAT     H110688   4.275   8.346   3.383
 3482WAT     H210689   4.343   8.201   3.416
 3483WAT      O10690   8.060   5.234   7.177
 3483WAT     H110691   7.968   5.231   7.217
 3483WAT     H210692   8.086   5.143   7.145
 3484WAT      O10693   9.291   3.403   3.213
 3484WAT     H110694   9.255   3.495   3.200
 3484WAT     H210695   9.326   3.368   3.126
 3485WAT      O10696   2.388   9.583   4.791
 3485WAT     H110697   2.311   9.530   4.755
 3485WAT     H210698   2.367   9.614   4.884
 3486WAT      O10699   7.950   9.385   6.514
 3486WAT     H110700   7.992   9.303   6.554
 3486WAT     H210701   8.022   9.444   6.476
 3487WAT      O10702   1.715   4.347   6.015
 3487WAT     H110703   1.772   4.281   6.064
 3487WAT     H210704   1.761   4.373   5.930
 3488WAT      O10705   0.546   6.109   2.291
 3488WAT     H110706   0.576   6.013   2.289
 3488WAT     H210707   0.615   6.166   2.245
 3489WAT      O10708   6.972   2.178   3.224
 3489WAT     H110709   6.964   2.088   3.182
 3489WAT     H210710   6.973   2.169   3.324
 3490WAT      O10711   3.922   4.147   9.407
 3490WAT     H110712   3.924   4.167   9.309
 3490WAT     H210713   4.014   4.127   9.440
 3491WAT      O10714   3.277   9.006   3.374
 3491WAT     H110715   3.374   8.984   3.366
 3491WAT     H210716   3.235   9.005   3.284
 3492WAT      O10717   5.353   0.394   3.958
 3492WAT     H110718   5.299   0.478   3.955
 3492WAT     H210719   5.294   0.316   3.936
 3493WAT      O10720   6.092   4.419   1.140
 3493WAT     H110721   6.103   4.321   1.158
 3493WAT     H210722   6.132   4.442   1.051
 3494WAT      O10723   2.509   2.140   6.228
 3494WAT     H110724   2.537   2.204   6.157
 3494WAT     H210725   2.415   2.158   6.255
 3495WAT      O10726   5.349   0.399   3.646
 3495WAT     H110727   5.342   0.428   3.742
 3495WAT     H210728   5.339   0.480   3.587
 3496WAT      O10729   4.900   0.115   9.691
 3496WAT     H110730   4.917   0.044   9.623
 3496WAT     H210731   4.832   0.179   9.655
 3497WAT      O10732   3.760   1.464   7.943
 3497WAT     H110733   3.793   1.558   7.942
 3497WAT     H210734   3.719   1.444   8.032
 3498WAT      O10735   7.130   4.146   5.409
 3498WAT     H110736   7.038   4.128   5.373
 3498WAT     H210737   7.125   4.158   5.508
 3499WAT      O10738   2.606   3.851   6.276
 3499WAT     H110739   2.664   3.903   6.214
 3499WAT     H210740   2.656   3.833   6.361
 3500WAT      O10741   4.534   2.194   4.025
 3500WAT     H110742   4.568   2.158   3.939
 3500WAT     H210743   4.464   2.263   4.008
 3501WAT      O10744   8.699   5.304   1.923
 3501WAT     H110745   8.704   5.204   1.925
 3501WAT     H210746   8.786   5.341   1.891
 3502WAT      O10747   9.045   7.209   0.376
 3502WAT     H110748   9.091   7.160   0.301
 3502WAT     H210749   9.055   7.307   0.362
 3503WAT      O10750   8.897   8.412   1.107
 3503WAT     H110751   8.847   8.451   1.029
 3503WAT     H210752   8.966   8.477   1.138
 3504WAT      O10753   0.326   8.250   4.662
 3504WAT     H110754   0.380   8.291   4.736
 3504WAT     H210755   0.241   8.212   4.700
 3505WAT      O10756   9.427   6.081   4.249
 3505WAT     H110757   9.379   6.019   4.311
 3505WAT     H210758   9.485   6.028   4.187
 3506WAT      O10759   5.048   8.576   8.019
 3506WAT     H110760   5.145   8.596   8.009
 3506WAT     H210761   5.014   8.530   7.937
 3507WAT      O10762   3.044   6.176   9.010
 3507WAT     H110763   3.039   6.186   8.910
 3507WAT     H210764   2.964   6.125   9.042
 3508WAT      O10765   7.585   2.114   2.209
 3508WAT     H110766   7.573   2.185   2.279
 3508WAT     H210767   7.523   2.038   2.228
 3509WAT      O10768   7.473   7.586   6.877
 3509WAT     H110769   7.486   7.487   6.876
 3509WAT     H210770   7.547   7.630   6.825
 3510WAT      O10771   6.025   2.292   2.693
 3510WAT     H110772   6.100   2.230   2.717
 3510WAT     H210773   5.945   2.271   2.750
 3511WAT      O10774   7.173   2.701   9.681
 3511WAT     H110775   7.093   2.756   9.659
 3511WAT     H210776   7.205   2.723   9.774
 3512WAT      O10777   5.184   8.545   4.096
 3512WAT     H110778   5.129   8.600   4.034
 3512WAT     H210779   5.266   8.595   4.122
 3513WAT      O10780   5.886   9.317   0.726
 3513WAT     H110781   5.879   9.228   0.682
 3513WAT     H210782   5.873   9.307   0.825
 3514WAT      O10783   2.283   7.957   7.308
 3514WAT     H110784   2.352   7.884   7.303
 3514WAT     H210785   2.316   8.030   7.368
 3515WAT      O10786   5.835   1.654   3.298
 3515WAT     H110787   5.827   1.753   3.283
 3515WAT     H210788   5.931   1.631   3.314
 3516WAT      O10789   7.909   5.849   0.501
 3516WAT     H110790   7.819   5.857   0.459
 3516WAT     H210791   7.972   5.805   0.438
 3517WAT      O10792   9.530   0.674   0.542
 3517WAT     H110793   9.529   0.715   0.633
 3517WAT     H210794   9.492   0.739   0.476
 3518WAT      O10795   1.023   8.022   0.646
 3518WAT     H110796   1.093   7.950   0.637
 3518WAT     H210797   1.018   8.052   0.741
 3519WAT      O10798   1.644   4.110   2.115
 3519WAT     H110799   1.594   4.196   2.100
 3519WAT     H210800   1.700   4.090   2.034
 3520WAT      O10801   8.496   1.327   8.374
 3520WAT     H110802   8.462   1.262   8.306
 3520WAT     H210803   8.589   1.354   8.352
 3521WAT      O10804   4.101   7.811   5.458
 3521WAT     H110805   4.029   7.881   5.452
 3521WAT     H210806   4.067   7.726   5.418
 3522WAT      O10807   2.424   4.957   3.387
 3522WAT     H110808   2.377   4.959   3.298
 3522WAT     H210809   2.499   4.891   3.383
 3523WAT      O10810   2.565   4.873   2.420
 3523WAT     H110811   2.551   4.952   2.481
 3523WAT     H210812   2.611   4.904   2.336
 3524WAT      O10813   8.912   4.656   6.179
 3524WAT     H110814   8.873   4.740   6.141
 3524WAT     H210815   8.840   4.600   6.219
 3525WAT      O10816   1.398   9.203   1.782
 3525WAT     H110817   1.401   9.104   1.767
 3525WAT     H210818   1.345   9.222   1.865
 3526WAT      O10819   8.610   2.870   8.529
 3526WAT     H110820   8.668   2.911   8.600
 3526WAT     H210821   8.595   2.936   8.456
 3527WAT      O10822   8.165   6.052   1.078
 3527WAT     H110823   8.075   6.058   1.122
 3527WAT     H210824   8.232   6.100   1.133
 3528WAT      O10825   2.678   0.430   2.637
 3528WAT     H110826   2.589   0.471   2.618
 3528WAT     H210827   2.728   0.417   2.551
 3529WAT      O10828   4.661   0.545   5.890
 3529WAT     H110829   4.593   0.573   5.958
 3529WAT     H210830   4.618   0.483   5.825
 3530WAT      O10831   6.111   1.638   4.509
 3530WAT     H110832   6.059   1.553   4.512
 3530WAT     H210833   6.189   1.632   4.571
 3531WAT      O10834   9.798   7.908   2.617
 3531WAT     H110835   9.888   7.869   2.594
 3531WAT     H210836   9.801   7.946   2.709
 3532WAT      O10837   4.995   0.281   1.249
 3532WAT     H110838   5.026   0.315   1.338
 3532WAT     H210839   5.046   0.326   1.176
 3533WAT      O10840   1.411   0.414   8.030
 3533WAT     H110841   1.328   0.457   7.992
 3533WAT     H210842   1.389   0.322   8.062
 3534WAT      O10843   1.746   3.448   5.500
 3534WAT     H110844   1.659   3.498   5.510
 3534WAT     H210845   1.817   3.494   5.553
 3535WAT      O10846   5.570   6.233   5.873
 3535WAT     H110847   5.669   6.225   5.873
 3535WAT     H210848   5.543   6.316   5.823
 3536WAT      O10849   0.182   1.348   1.192
 3536WAT     H110850   0.150   1.294   1.114
 3536WAT     H210851   0.107   1.358   1.258
 3537WAT      O10852   5.573   5.561   3.318
 3537WAT     H110853   5.495   5.502   3.335
 3537WAT     H210854   5.542   5.645   3.272
 3538WAT      O10855   3.345   9.449   6.571
 3538WAT     H110856   3.348   9.350   6.564
 3538WAT     H210857   3.377   9.489   6.485
 3539WAT      O10858   1.529   6.351   7.543
 3539WAT     H110859   1.604   6.354   7.610
 3539WAT     H210860   1.550   6.282   7.473
 3540WAT      O10861   9.093   8.279   6.043
 3540WAT     H110862   9.155   8.347   6.003
 3540WAT     H210863   9.025   8.252   5.974
 3541WAT      O10864   7.302   9.406   6.903
 3541WAT     H110865   7.350   9.417   6.816
 3541WAT     H210866   7.364   9.369   6.972
 3542WAT      O10867   9.044   6.208   2.436
 3542WAT     H110868   9.141   6.197   2.415
 3542WAT     H210869   9.002   6.268   2.368
 3543WAT      O10870   2.686   2.466   2.220
 3543WAT     H110871   2.782   2.464   2.247
 3543WAT     H210872   2.662   2.378   2.177
 3544WAT      O10873   4.736   6.531   9.767
 3544WAT     H110874   4.665   6.498   9.705
 3544WAT     H210875   4.825   6.527   9.721
 3545WAT      O10876   6.299   7.772   1.632
 3545WAT     H110877   6.241   7.777   1.713
 3545WAT     H210878   6.381   7.827   1.647
 3546WAT      O10879   4.142   3.094   5.752
 3546WAT     H110880   4.183   3.005   5.773
 3546WAT     H210881   4.061   3.081   5.696
 3547WAT      O10882   6.740   9.320   6.988
 3547WAT     H110883   6.743   9.420   6.987
 3547WAT     H210884   6.752   9.286   6.894
 3548WAT      O10885   5.035   1.431   8.539
 3548WAT     H110886   5.134   1.438   8.522
 3548WAT     H210887   5.005   1.511   8.591
 3549WAT      O10888   1.996   6.192   8.487
 3549WAT     H110889   1.955   6.133   8.417
 3549WAT     H210890   2.021   6.136   8.566
 3550WAT      O10891   1.833   2.553   4.818
 3550WAT     H110892   1.917   2.604   4.801
 3550WAT     H210893   1.832   2.522   4.913
 3551WAT      O10894   1.004   7.883   5.368
 3551WAT     H110895   0.920   7.918   5.409
 3551WAT     H210896   1.016   7.787   5.393
 3552WAT      O10897   6.829   5.526   6.404
 3552WAT     H110898   6.779   5.606   6.439
 3552WAT     H210899   6.922   5.553   6.380
 3553WAT      O10900   8.414   2.950   5.832
 3553WAT     H110901   8.495   2.954   5.890
 3553WAT     H210902   8.441   2.925   5.739
 3554WAT      O10903   1.994   9.834   1.342
 3554WAT     H110904   1.996   9.923   1.388
 3554WAT     H210905   2.037   9.765   1.400
 3555WAT      O10906   4.456   2.909   0.432
 3555WAT     H110907   4.526   2.909   0.361
 3555WAT     H210908   4.499   2.893   0.521
 3556WAT      O10909   9.720   8.009   3.393
 3556WAT     H110910   9.804   7.985   3.443
 3556WAT     H210911   9.688   8.099   3.422
 3557WAT      O10912   5.048   0.269   7.495
 3557WAT     H110913   4.990   0.343   7.527
 3557WAT     H210914   5.004   0.222   7.418
 3558WAT      O10915   4.017   2.969   0.879
 3558WAT     H110916   4.007   3.069   0.879
 3558WAT     H210917   4.106   2.944   0.842
 3559WAT      O10918   4.732   6.976   4.558
 3559WAT     H110919   4.810   7.019   4.604
 3559WAT     H210920   4.707   6.892   4.606
 3560WAT      O10921   7.770   3.897   4.818
 3560WAT     H110922   7.685   3.899   4.765
 3560WAT     H210923   7.774   3.978   4.876
 3561WAT      O10924   3.566   6.852   9.135
 3561WAT     H110925   3.573   6.783   9.064
 3561WAT     H210926   3.471   6.859   9.166
 3562WAT      O10927   1.961   7.564   6.825
 3562WAT     H110928   2.048   7.588   6.783
 3562WAT     H210929   1.885   7.589   6.765
 3563WAT      O10930   0.813   0.696   3.749
 3563WAT     H110931   0.885   0.626   3.756
 3563WAT     H210932   0.767   0.705   3.837
 3564WAT      O10933   9.540   1.963   0.967
 3564WAT     H110934   9.508   1.997   1.055
 3564WAT     H210935   9.471   1.984   0.897
 3565WAT      O10936   9.167   4.289   1.064
 3565WAT     H110937   9.101   4.215   1.071
 3565WAT     H210938   9.123   4.371   1.027
 3566WAT      O10939   8.210   9.696   7.146
 3566WAT     H110940   8.132   9.643   7.181
 3566WAT     H210941   8.194   9.793   7.161
 3567WAT      O10942   7.665   8.217   1.306
 3567WAT     H110943   7.603   8.291   1.278
 3567WAT     H210944   7.663   8.208   1.405
 3568WAT      O10945   9.252   5.324   1.639
 3568WAT     H110946   9.165   5.365   1.611
 3568WAT     H210947   9.254   5.316   1.739
 3569WAT      O10948   2.720   5.748   2.024
 3569WAT     H110949   2.692   5.816   1.957
 3569WAT     H210950   2.651   5.741   2.096
 3570WAT      O10951   6.724   8.928   4.911
 3570WAT     H110952   6.741   8.908   5.007
 3570WAT     H210953   6.754   9.021   4.891
 3571WAT      O10954   8.295   0.314   4.954
 3571WAT     H110955   8.360   0.320   4.877
 3571WAT     H210956   8.318   0.382   5.023
 3572WAT      O10957   2.614   5.541   5.309
 3572WAT     H110958   2.682   5.524   5.238
 3572WAT     H210959   2.660   5.560   5.396
 3573WAT      O10960   1.221   9.515   8.795
 3573WAT     H110961   1.150   9.573   8.755
 3573WAT     H210962   1.291   9.494   8.727
 3574WAT      O10963   2.659   0.902   0.253
 3574WAT     H110964   2.618   0.918   0.343
 3574WAT     H210965   2.756   0.884   0.263
 3575WAT      O10966   4.313   8.670   2.586
 3575WAT     H110967   4.222   8.673   2.545
 3575WAT     H210968   4.340   8.762   2.614
 3576WAT      O10969   1.883   9.399   7.817
 3576WAT     H110970   1.867   9.371   7.912
 3576WAT     H210971   1.811   9.363   7.758
 3577WAT      O10972   0.694   0.985   2.491
 3577WAT     H110973   0.765   0.915   2.501
 3577WAT     H210974   0.698   1.023   2.399
 3578WAT      O10975   3.219   4.396   3.004
 3578WAT     H110976   3.317   4.395   2.984
 3578WAT     H210977   3.174   4.323   2.952
 3579WAT      O10978   8.355   2.035   9.287
 3579WAT     H110979   8.420   1.979   9.236
 3579WAT     H210980   8.286   1.976   9.330
 3580WAT      O10981   7.069   8.198   2.497
 3580WAT     H110982   7.097   8.255   2.420
 3580WAT     H210983   6.973   8.172   2.487
 3581WAT      O10984   0.175   2.809   0.109
 3581WAT     H110985   0.172   2.725   0.163
 3581WAT     H210986   0.084   2.851   0.108
 3582WAT      O10987   8.067   7.455   0.829
 3582WAT     H110988   8.067   7.535   0.770
 3582WAT     H210989   8.042   7.482   0.922
 3583WAT      O10990   7.937   3.220   1.700
 3583WAT     H110991   7.871   3.290   1.673
 3583WAT     H210992   7.901   3.130   1.677
 3584WAT      O10993   6.359   8.976   7.932
 3584WAT     H110994   6.438   9.014   7.884
 3584WAT     H210995   6.389   8.902   7.993
 3585WAT      O10996   0.091   2.997   6.532
 3585WAT     H110997   0.115   3.091   6.507
 3585WAT     H210998   0.011   2.969   6.479
 3586WAT      O10999   0.715   7.670   7.258
 3586WAT     H111000   0.771   7.593   7.224
 3586WAT     H211001   0.747   7.695   7.350
 3587WAT      O11002   7.424   0.483   5.996
 3587WAT     H111003   7.338   0.522   5.962
 3587WAT     H211004   7.404   0.402   6.051
 3588WAT      O11005   7.861   3.945   1.809
 3588WAT     H111006   7.943   3.939   1.866
 3588WAT     H211007   7.863   4.030   1.756
 3589WAT      O11008   8.321   2.797   2.507
 3589WAT     H111009   8.243   2.828   2.452
 3589WAT     H211010   8.288   2.740   2.583
 3590WAT      O11011   2.273   6.684   1.859
 3590WAT     H111012   2.190   6.647   1.901
 3590WAT     H211013   2.254   6.776   1.823
 3591WAT      O11014   4.380   5.414   3.197
 3591WAT     H111015   4.450   5.347   3.172
 3591WAT     H211016   4.424   5.501   3.218
 3592WAT      O11017   2.633   2.668   0.021
 3592WAT     H111018   2.621   2.760  -0.018
 3592WAT     H211019   2.722   2.663   0.067
 3593WAT      O11020   2.466   1.197   3.188
 3593WAT     H111021   2.396   1.256   3.228
 3593WAT     H211022   2.536   1.253   3.145
 3594WAT      O11023   7.395   7.457   3.785
 3594WAT     H111024   7.381   7.556   3.790
 3594WAT     H211025   7.439   7.435   3.698
 3595WAT      O11026   6.929   7.555   3.767
 3595WAT     H111027   6.911   7.637   3.712
 3595WAT     H211028   6.875   7.559   3.851
 3596WAT      O11029   2.630   5.915   0.833
 3596WAT     H111030   2.577   5.837   0.865
 3596WAT     H211031   2.693   5.886   0.762
 3597WAT      O11032   1.537   1.147   0.033
 3597WAT     H111033   1.440   1.166   0.020
 3597WAT     H211034   1.570   1.088  -0.040
 3598WAT      O11035   9.026   5.981   9.631
 3598WAT     H111036   9.003   6.021   9.720
 3598WAT     H211037   8.997   6.043   9.558
 3599WAT      O11038   3.354   1.943   1.525
 3599WAT     H111039   3.292   1.902   1.592
 3599WAT     H211040   3.327   2.038   1.507
 3600WAT      O11041   8.896   5.068   1.417
 3600WAT     H111042   8.893   5.075   1.517
 3600WAT     H211043   8.974   5.011   1.391
 3601WAT      O11044   7.993   2.070   9.009
 3601WAT     H111045   7.990   2.074   8.909
 3601WAT     H211046   8.076   2.116   9.041
 3602WAT      O11047   8.910   0.889   5.815
 3602WAT     H111048   8.868   0.847   5.895
 3602WAT     H211049   8.966   0.967   5.843
 3603WAT      O11050   0.144   7.866   1.792
 3603WAT     H111051   0.212   7.803   1.829
 3603WAT     H211052   0.055   7.822   1.792
 3604WAT      O11053   7.087   3.187   3.266
 3604WAT     H111054   7.073   3.099   3.221
 3604WAT     H211055   7.019   3.198   3.338
 3605WAT      O11056   6.563   9.018   6.525
 3605WAT     H111057   6.510   8.976   6.450
 3605WAT     H211058   6.501   9.045   6.598
 3606WAT      O11059   4.945   7.717   2.370
 3606WAT     H111060   4.903   7.807   2.363
 3606WAT     H211061   5.023   7.721   2.432
 3607WAT      O11062   6.929   5.559   7.485
 3607WAT     H111063   6.943   5.658   7.478
 3607WAT     H211064   6.860   5.530   7.419
 3608WAT      O11065   3.973   2.948   3.197
 3608WAT     H111066   4.059   2.939   3.247
 3608WAT     H211067   3.926   3.032   3.226
 3609WAT      O11068   2.137   6.064   1.667
 3609WAT     H111069   2.151   6.087   1.764
 3609WAT     H211070   2.214   6.010   1.634
 3610WAT      O11071   7.410   6.578   4.611
 3610WAT     H111072   7.319   6.597   4.575
 3610WAT     H211073   7.410   6.592   4.711
 3611WAT      O11074   8.497   8.456   1.901
 3611WAT     H111075   8.513   8.554   1.906
 3611WAT     H211076   8.445   8.426   1.982
 3612WAT      O11077   2.803   6.351   8.684
 3612WAT     H111078   2.808   6.324   8.587
 3612WAT     H211079   2.728   6.301   8.728
 3613WAT      O11080   0.471   0.849   8.993
 3613WAT     H111081   0.558   0.850   9.042
 3613WAT     H211082   0.412   0.922   9.028
 3614WAT      O11083   7.553   8.995   8.071
 3614WAT     H111084   7.604   9.078   8.048
 3614WAT     H211085   7.615   8.926   8.109
 3615WAT      O11086   4.842   4.484   3.445
 3615WAT     H111087   4.809   4.389   3.444
 3615WAT     H211088   4.938   4.485   3.474
 3616WAT      O11089   8.911   1.847   5.096
 3616WAT     H111090   8.904   1.931   5.150
 3616WAT     H211091   9.004   1.838   5.061
 3617WAT      O11092   8.515   7.615   2.054
 3617WAT     H111093   8.608   7.582   2.069
 3617WAT     H211094   8.519   7.711   2.025
 3618WAT      O11095   9.842   5.757   0.815
 3618WAT     H111096   9.928   5.808   0.815
 3618WAT     H211097   9.861   5.660   0.803
 3619WAT      O11098   0.222   7.558   4.768
 3619WAT     H111099   0.224   7.639   4.827
 3619WAT     H211100   0.127   7.529   4.754
 3620WAT      O11101   8.284   7.287   0.815
 3620WAT     H111102   8.214   7.358   0.822
 3620WAT     H211103   8.371   7.321   0.851
 3621WAT      O11104   3.264   1.907   4.371
 3621WAT     H111105   3.322   1.826   4.385
 3621WAT     H211106   3.237   1.944   4.460
 3622WAT      O11107   0.567   4.368   7.246
 3622WAT     H111108   0.482   4.421   7.236
 3622WAT     H211109   0.646   4.428   7.233
 3623WAT      O11110   0.556   9.386   3.166
 3623WAT     H111111   0.494   9.309   3.154
 3623WAT     H211112   0.510   9.458   3.218
 3624WAT      O11113   3.964   2.078   6.019
 3624WAT     H111114   4.037   2.085   6.087
 3624WAT     H211115   4.001   2.041   5.934
 3625WAT      O11116   6.007   7.758   2.169
 3625WAT     H111117   5.920   7.714   2.190
 3625WAT     H211118   6.056   7.779   2.254
 3626WAT      O11119   7.460   0.255   6.141
 3626WAT     H111120   7.440   0.250   6.238
 3626WAT     H211121   7.541   0.312   6.126
 3627WAT      O11122   3.263   2.220   4.091
 3627WAT     H111123   3.273   2.302   4.035
 3627WAT     H211124   3.262   2.246   4.188
 3628WAT      O11125   7.599   0.722   2.436
 3628WAT     H111126   7.519   0.711   2.377
 3628WAT     H211127   7.681   0.692   2.387
 3629WAT      O11128   5.350   6.347   4.126
 3629WAT     H111129   5.328   6.412   4.200
 3629WAT     H211130   5.434   6.298   4.149
 3630WAT      O11131   7.824   0.726   6.136
 3630WAT     H111132   7.861   0.783   6.063
 3630WAT     H211133   7.724   0.732   6.135
 3631WAT      O11134   0.588   7.501   8.777
 3631WAT     H111135   0.498   7.539   8.798
 3631WAT     H211136   0.578   7.417   8.725
 3632WAT      O11137   8.899   1.962   1.541
 3632WAT     H111138   8.944   1.880   1.506
 3632WAT     H211139   8.855   1.942   1.628
 3633WAT      O11140   6.267   5.763   4.400
 3633WAT     H111141   6.269   5.859   4.426
 3633WAT     H211142   6.180   5.723   4.430
 3634WAT      O11143   1.388   0.216   2.356
 3634WAT     H111144   1.427   0.144   2.298
 3634WAT     H211145   1.452   0.293   2.361
 3635WAT      O11146   1.424   6.130   3.961
 3635WAT     H111147   1.335   6.160   3.996
 3635WAT     H211148   1.424   6.135   3.861
 3636WAT      O11149   0.584   1.309   8.966
 3636WAT     H111150   0.487   1.284   8.972
 3636WAT     H211151   0.591   1.405   8.936
 3637WAT      O11152   5.015   0.171   4.201
 3637WAT     H111153   5.094   0.222   4.235
 3637WAT     H211154   4.966   0.130   4.278
 3638WAT      O11155   3.428   4.606   1.448
 3638WAT     H111156   3.450   4.527   1.391
 3638WAT     H211157   3.334   4.598   1.481
 3639WAT      O11158   6.244   1.705   7.398
 3639WAT     H111159   6.188   1.769   7.451
 3639WAT     H211160   6.339   1.736   7.397
 3640WAT      O11161   7.738   9.436   5.179
 3640WAT     H111162   7.756   9.358   5.120
 3640WAT     H211163   7.639   9.445   5.192
 3641WAT      O11164   8.880   9.490   0.983
 3641WAT     H111165   8.905   9.542   1.064
 3641WAT     H211166   8.782   9.471   0.984
 3642WAT      O11167   4.918   0.415   5.225
 3642WAT     H111168   4.837   0.406   5.166
 3642WAT     H211169   4.916   0.504   5.271
 3643WAT      O11170   5.083   7.574   3.830
 3643WAT     H111171   5.135   7.644   3.879
 3643WAT     H211172   5.022   7.617   3.765
 3644WAT      O11173   6.019   7.396   9.500
 3644WAT     H111174   5.926   7.365   9.484
 3644WAT     H211175   6.054   7.356   9.585
 3645WAT      O11176   1.547   2.672   6.740
 3645WAT     H111177   1.569   2.601   6.674
 3645WAT     H211178   1.533   2.630   6.830
 3646WAT      O11179   4.310   8.808   6.808
 3646WAT     H111180   4.324   8.777   6.902
 3646WAT     H211181   4.298   8.728   6.749
 3647WAT      O11182   0.548   4.701   0.895
 3647WAT     H111183   0.544   4.612   0.851
 3647WAT     H211184   0.509   4.770   0.835
 3648WAT      O11185   8.945   2.122   2.435
 3648WAT     H111186   8.936   2.197   2.369
 3648WAT     H211187   9.037   2.122   2.473
 3649WAT      O11188   2.575   7.722   0.930
 3649WAT     H111189   2.590   7.629   0.962
 3649WAT     H211190   2.655   7.754   0.880
 3650WAT      O11191   5.781   3.313   1.799
 3650WAT     H111192   5.854   3.247   1.781
 3650WAT     H211193   5.717   3.312   1.722
 3651WAT      O11194   7.783   0.932   9.255
 3651WAT     H111195   7.707   0.977   9.209
 3651WAT     H211196   7.804   0.979   9.341
 3652WAT      O11197   1.450   0.705   6.791
 3652WAT     H111198   1.485   0.797   6.773
 3652WAT     H211199   1.420   0.663   6.705
 3653WAT      O11200   5.680   8.914   5.540
 3653WAT     H111201   5.668   9.013   5.534
 3653WAT     H211202   5.778   8.892   5.540
 3654WAT      O11203   9.688   0.447   5.366
 3654WAT     H111204   9.761   0.394   5.324
 3654WAT     H211205   9.600   0.422   5.325
 3655WAT      O11206   2.826   2.214   4.873
 3655WAT     H111207   2.891   2.272   4.922
 3655WAT     H211208   2.792   2.263   4.793
 3656WAT      O11209   7.486   1.030   3.663
 3656WAT     H111210   7.391   1.007   3.685
 3656WAT     H211211   7.527   1.080   3.739
 3657WAT      O11212   3.616   4.525   6.864
 3657WAT     H111213   3.652   4.444   6.818
 3657WAT     H211214   3.644   4.524   6.960
 3658WAT      O11215   5.367   7.947   2.717
 3658WAT     H111216   5.354   8.000   2.633
 3658WAT     H211217   5.396   7.854   2.694
 3659WAT      O11218   1.279   9.844   2.199
 3659WAT     H111219   1.202   9.782   2.207
 3659WAT     H211220   1.357   9.796   2.160
 3660WAT      O11221   6.160   4.474   0.196
 3660WAT     H111222   6.161   4.389   0.145
 3660WAT     H211223   6.066   4.509   0.202
 3661WAT      O11224   6.072   9.269   8.902
 3661WAT     H111225   6.015   9.222   8.834
 3661WAT     H211226   6.019   9.283   8.986
 3662WAT      O11227   5.318   4.493   8.142
 3662WAT     H111228   5.396   4.485   8.204
 3662WAT     H211229   5.335   4.566   8.076
 3663WAT      O11230   8.064   1.816   4.557
 3663WAT     H111231   8.017   1.798   4.644
 3663WAT     H211232   8.100   1.910   4.558
 3664WAT      O11233   2.751   2.877   2.829
 3664WAT     H111234   2.737   2.805   2.896
 3664WAT     H211235   2.717   2.847   2.740
 3665WAT      O11236   6.418   9.245   5.099
 3665WAT     H111237   6.454   9.224   5.008
 3665WAT     H211238   6.320   9.263   5.093
 3666WAT      O11239   2.999   8.723   8.328
 3666WAT     H111240   3.031   8.799   8.385
 3666WAT     H211241   3.005   8.749   8.231
 3667WAT      O11242   4.516   9.217   8.995
 3667WAT     H111243   4.599   9.253   9.037
 3667WAT     H211244   4.523   9.224   8.896
 3668WAT      O11245   4.216   7.852   4.835
 3668WAT     H111246   4.200   7.782   4.905
 3668WAT     H211247   4.141   7.918   4.836
 3669WAT      O11248   3.520   5.580   7.799
 3669WAT     H111249   3.570   5.520   7.862
 3669WAT     H211250   3.585   5.634   7.745
 3670WAT      O11251   1.262   0.165   4.289
 3670WAT     H111252   1.307   0.084   4.327
 3670WAT     H211253   1.180   0.185   4.343
 3671WAT      O11254   2.175   2.877   1.780
 3671WAT     H111255   2.178   2.955   1.718
 3671WAT     H211256   2.160   2.794   1.727
 3672WAT      O11257   6.740   7.074   9.240
 3672WAT     H111258   6.806   7.149   9.233
 3672WAT     H211259   6.725   7.035   9.149
 3673WAT      O11260   7.284   3.803   4.592
 3673WAT     H111261   7.184   3.809   4.597
 3673WAT     H211262   7.310   3.717   4.549
 3674WAT      O11263   4.924   7.724   8.404
 3674WAT     H111264   4.950   7.656   8.472
 3674WAT     H211265   4.964   7.812   8.428
 3675WAT      O11266   4.139   0.563   7.157
 3675WAT     H111267   4.225   0.567   7.208
 3675WAT     H211268   4.109   0.468   7.151
 3676WAT      O11269   2.137   3.363   0.613
 3676WAT     H111270   2.115   3.404   0.525
 3676WAT     H211271   2.224   3.315   0.608
 3677WAT      O11272   2.494   4.378   5.492
 3677WAT     H111273   2.555   4.344   5.420
 3677WAT     H211274   2.418   4.313   5.504
 3678WAT      O11275   0.961   5.104   2.789
 3678WAT     H111276   0.950   5.011   2.755
 3678WAT     H211277   0.968   5.167   2.711
 3679WAT      O11278   6.381   9.710   0.020
 3679WAT     H111279   6.282   9.724   0.018
 3679WAT     H211280   6.402   9.616  -0.005
 3680WAT      O11281   2.883   1.679   2.908
 3680WAT     H111282   2.900   1.766   2.863
 3680WAT     H211283   2.855   1.611   2.840
 3681WAT      O11284   1.502   6.095   8.608
 3681WAT     H111285   1.578   6.136   8.557
 3681WAT     H211286   1.491   6.143   8.695
 3682WAT      O11287   3.523   5.043   5.503
 3682WAT     H111288   3.568   4.954   5.491
 3682WAT     H211289   3.475   5.067   5.419
 3683WAT      O11290   3.960   4.694   8.010
 3683WAT     H111291   3.979   4.686   7.912
 3683WAT     H211292   3.871   4.652   8.030
 3684WAT      O11293   0.577   8.847   2.446
 3684WAT     H111294   0.522   8.925   2.475
 3684WAT     H211295   0.624   8.869   2.361
 3685WAT      O11296   9.475   5.085   8.935
 3685WAT     H111297   9.527   5.167   8.912
 3685WAT     H211298   9.496   5.013   8.868
 3686WAT      O11299   8.214   7.888   5.238
 3686WAT     H111300   8.177   7.796   5.254
 3686WAT     H211301   8.291   7.904   5.299
 3687WAT      O11302   5.375   2.796   3.882
 3687WAT     H111303   5.336   2.797   3.790
 3687WAT     H211304   5.370   2.704   3.920
 3688WAT      O11305   5.166   5.264   0.960
 3688WAT     H111306   5.185   5.219   1.047
 3688WAT     H211307   5.067   5.268   0.945
 3689WAT      O11308   9.299   9.415   9.107
 3689WAT     H111309   9.255   9.392   9.020
 3689WAT     H211310   9.398   9.400   9.100
 3690WAT      O11311   8.514   0.056   8.573
 3690WAT     H111312   8.591   0.015   8.523
 3690WAT     H211313   8.454  -0.016   8.607
 3691WAT      O11314   7.030   4.870   8.571
 3691WAT     H111315   7.052   4.967   8.564
 3691WAT     H211316   7.093   4.825   8.634
 3692WAT      O11317   5.463   9.652   3.364
 3692WAT     H111318   5.462   9.608   3.453
 3692WAT     H211319   5.432   9.587   3.294
 3693WAT      O11320   1.045   0.328   4.795
 3693WAT     H111321   1.047   0.427   4.779
 3693WAT     H211322   1.100   0.282   4.725
 3694WAT      O11323   3.591   4.027   4.762
 3694WAT     H111324   3.672   4.078   4.735
 3694WAT     H211325   3.598   3.933   4.729
 3695WAT      O11326   5.292   2.591   5.719
 3695WAT     H111327   5.313   2.646   5.800
 3695WAT     H211328   5.201   2.552   5.727
 3696WAT      O11329   6.110   6.623   7.178
 3696WAT     H111330   6.197   6.594   7.220
 3696WAT     H211331   6.041   6.635   7.250
 3697WAT      O11332   4.101   7.450   2.125
 3697WAT     H111333   4.135   7.527   2.072
 3697WAT     H211334   4.022   7.410   2.079
 3698WAT      O11335   0.278   3.807   6.814
 3698WAT     H111336   0.209   3.806   6.886
 3698WAT     H211337   0.233   3.813   6.725
 3699WAT      O11338   5.057   1.421   3.057
 3699WAT     H111339   5.064   1.498   3.121
 3699WAT     H211340   5.147   1.402   3.019
 3700WAT      O11341   5.169   4.602   8.829
 3700WAT     H111342   5.142   4.634   8.737
 3700WAT     H211343   5.268   4.586   8.830
 3701WAT      O11344   5.068   0.251   5.895
 3701WAT     H111345   5.151   0.203   5.923
 3701WAT     H211346   5.075   0.274   5.798
 3702WAT      O11347   9.509   6.967   4.457
 3702WAT     H111348   9.451   6.891   4.485
 3702WAT     H211349   9.488   7.047   4.515
 3703WAT      O11350   0.790   5.736   9.628
 3703WAT     H111351   0.776   5.640   9.651
 3703WAT     H211352   0.849   5.744   9.548
 3704WAT      O11353   6.181   5.569   1.507
 3704WAT     H111354   6.236   5.634   1.561
 3704WAT     H211355   6.229   5.481   1.504
 3705WAT      O11356   7.781   5.306   8.485
 3705WAT     H111357   7.803   5.377   8.552
 3705WAT     H211358   7.848   5.310   8.410
 3706WAT      O11359   4.536   9.585   9.225
 3706WAT     H111360   4.569   9.567   9.317
 3706WAT     H211361   4.611   9.619   9.168
 3707WAT      O11362   5.198   4.905   6.316
 3707WAT     H111363   5.283   4.954   6.333
 3707WAT     H211364   5.125   4.944   6.372
 3708WAT      O11365   1.099   8.301   4.145
 3708WAT     H111366   1.024   8.360   4.116
 3708WAT     H211367   1.185   8.353   4.142
 3709WAT      O11368   0.468   0.711   2.431
 3709WAT     H111369   0.445   0.809   2.439
 3709WAT     H211370   0.534   0.699   2.357
 3710WAT      O11371   2.033   5.835   1.356
 3710WAT     H111372   2.044   5.747   1.310
 3710WAT     H211373   1.943   5.839   1.400
 3711WAT      O11374   4.339   2.291   2.738
 3711WAT     H111375   4.362   2.286   2.641
 3711WAT     H211376   4.423   2.301   2.792
 3712WAT      O11377   8.313   5.266   8.265
 3712WAT     H111378   8.255   5.321   8.204
 3712WAT     H211379   8.381   5.325   8.308
 3713WAT      O11380   5.961   2.774   0.203
 3713WAT     H111381   6.023   2.794   0.128
 3713WAT     H211382   5.917   2.685   0.187
 3714WAT      O11383   8.490   9.579   2.257
 3714WAT     H111384   8.516   9.483   2.246
 3714WAT     H211385   8.566   9.638   2.227
 3715WAT      O11386   8.365   7.156   1.738
 3715WAT     H111387   8.446   7.098   1.746
 3715WAT     H211388   8.307   7.121   1.663
 3716WAT      O11389   0.817   1.144   8.885
 3716WAT     H111390   0.872   1.159   8.803
 3716WAT     H211391   0.735   1.201   8.881
 3717WAT      O11392   6.557   2.639   9.421
 3717WAT     H111393   6.550   2.540   9.406
 3717WAT     H211394   6.520   2.662   9.511
 3718WAT      O11395   2.230   1.542   6.641
 3718WAT     H111396   2.197   1.513   6.551
 3718WAT     H211397   2.317   1.497   6.661
 3719WAT      O11398   3.824   6.827   3.819
 3719WAT     H111399   3.783   6.738   3.839
 3719WAT     H211400   3.758   6.899   3.841
 3720WAT      O11401   1.355   5.218   4.373
 3720WAT     H111402   1.279   5.274   4.340
 3720WAT     H211403   1.320   5.132   4.410
 3721WAT      O11404   1.065   8.932   9.860
 3721WAT     H111405   1.134   8.980   9.914
 3721WAT     H211406   1.009   8.875   9.921
 3722WAT      O11407   8.291   9.425   6.164
 3722WAT     H111408   8.384   9.461   6.167
 3722WAT     H211409   8.294   9.325   6.170
 3723WAT      O11410   8.973   8.744   2.710
 3723WAT     H111411   9.016   8.830   2.737
 3723WAT     H211412   8.878   8.743   2.740
 3724WAT      O11413   7.713   2.500   5.004
 3724WAT     H111414   7.665   2.542   5.081
 3724WAT     H211415   7.720   2.401   5.019
 3725WAT      O11416   8.352   3.652   2.053
 3725WAT     H111417   8.291   3.590   2.004
 3725WAT     H211418   8.317   3.745   2.048
 3726WAT      O11419   3.787   8.327   4.633
 3726WAT     H111420   3.726   8.378   4.573
 3726WAT     H211421   3.741   8.310   4.720
 3727WAT      O11422   2.077   7.333   0.263
 3727WAT     H111423   2.050   7.301   0.354
 3727WAT     H211424   2.175   7.319   0.250
 3728WAT      O11425   5.693   8.697   1.363
 3728WAT     H111426   5.634   8.776   1.348
 3728WAT     H211427   5.709   8.650   1.276
 3729WAT      O11428   1.821   0.521   4.119
 3729WAT     H111429   1.786   0.559   4.205
 3729WAT     H211430   1.853   0.428   4.135
 3730WAT      O11431   5.715   8.719   7.626
 3730WAT     H111432   5.763   8.720   7.714
 3730WAT     H211433   5.620   8.694   7.641
 3731WAT      O11434   1.307   0.718   8.662
 3731WAT     H111435   1.275   0.670   8.744
 3731WAT     H211436   1.395   0.681   8.633
 3732WAT      O11437   6.331   2.668   8.727
 3732WAT     H111438   6.290   2.585   8.765
 3732WAT     H211439   6.431   2.662   8.733
 3733WAT      O11440   2.629   8.280   6.355
 3733WAT     H111441   2.567   8.296   6.278
 3733WAT     H211442   2.632   8.182   6.375
 3734WAT      O11443   6.585   8.226   0.210
 3734WAT     H111444   6.655   8.241   0.140
 3734WAT     H211445   6.496   8.253   0.174
 3735WAT      O11446   3.245   0.870   7.954
 3735WAT     H111447   3.288   0.815   7.883
 3735WAT     H211448   3.179   0.814   8.004
 3736WAT      O11449   3.049   0.149   6.151
 3736WAT     H111450   2.951   0.131   6.143
 3736WAT     H211451   3.074   0.155   6.248
 3737WAT      O11452   6.270   6.753   4.714
 3737WAT     H111453   6.193   6.731   4.654
 3737WAT     H211454   6.237   6.808   4.791
 3738WAT      O11455   6.712   3.489   6.131
 3738WAT     H111456   6.688   3.393   6.144
 3738WAT     H211457   6.631   3.541   6.104
 3739WAT      O11458   9.258   0.792   7.902
 3739WAT     H111459   9.315   0.751   7.831
 3739WAT     H211460   9.230   0.721   7.967
 3740WAT      O11461   9.766   6.356   2.829
 3740WAT     H111462   9.747   6.313   2.741
 3740WAT     H211463   9.702   6.431   2.844
 3741WAT      O11464   2.953   1.958   7.157
 3741WAT     H111465   2.899   2.034   7.191
 3741WAT     H211466   3.042   1.991   7.126
 3742WAT      O11467   1.258   0.894   6.454
 3742WAT     H111468   1.193   0.970   6.446
 3742WAT     H211469   1.243   0.831   6.378
 3743WAT      O11470   6.633   6.507   2.307
 3743WAT     H111471   6.720   6.459   2.312
 3743WAT     H211472   6.580   6.474   2.229
 3744WAT      O11473   4.222   1.054   6.666
 3744WAT     H111474   4.135   1.101   6.656
 3744WAT     H211475   4.279   1.103   6.732
 3745WAT      O11476   2.256   3.664   2.851
 3745WAT     H111477   2.212   3.638   2.937
 3745WAT     H211478   2.341   3.613   2.840
 3746WAT      O11479   5.638   5.347   5.248
 3746WAT     H111480   5.556   5.299   5.281
 3746WAT     H211481   5.617   5.444   5.236
 3747WAT      O11482   9.657   5.444   1.817
 3747WAT     H111483   9.646   5.514   1.746
 3747WAT     H211484   9.732   5.383   1.794
 3748WAT      O11485   7.842   1.250   6.829
 3748WAT     H111486   7.889   1.181   6.773
 3748WAT     H211487   7.775   1.206   6.888
 3749WAT      O11488   5.017   8.936   8.537
 3749WAT     H111489   4.971   9.001   8.477
 3749WAT     H211490   5.048   8.983   8.620
 3750WAT      O11491   8.436   2.662   3.213
 3750WAT     H111492   8.377   2.667   3.132
 3750WAT     H211493   8.480   2.572   3.216
 3751WAT      O11494   8.121   5.457   4.443
 3751WAT     H111495   8.086   5.545   4.409
 3751WAT     H211496   8.143   5.398   4.365
 3752WAT      O11497   5.006   0.861   6.614
 3752WAT     H111498   4.983   0.773   6.656
 3752WAT     H211499   4.923   0.917   6.609
 3753WAT      O11500   2.776   3.670   6.825
 3753WAT     H111501   2.710   3.742   6.846
 3753WAT     H211502   2.792   3.613   6.906
 3754WAT      O11503   9.638   1.379   0.295
 3754WAT     H111504   9.710   1.424   0.243
 3754WAT     H211505   9.559   1.441   0.303
 3755WAT      O11506   5.249   7.191   3.781
 3755WAT     H111507   5.289   7.112   3.733
 3755WAT     H211508   5.186   7.239   3.719
 3756WAT      O11509   2.134   8.535   0.494
 3756WAT     H111510   2.085   8.563   0.412
 3756WAT     H211511   2.232   8.552   0.482
 3757WAT      O11512   5.360   3.699   6.046
 3757WAT     H111513   5.406   3.785   6.022
 3757WAT     H211514   5.308   3.712   6.130
 3758WAT      O11515   8.434   5.695   8.418
 3758WAT     H111516   8.345   5.739   8.432
 3758WAT     H211517   8.507   5.764   8.423
 3759WAT      O11518   3.588   5.339   7.950
 3759WAT     H111519   3.675   5.289   7.957
 3759WAT     H211520   3.529   5.294   7.883
 3760WAT      O11521   6.465   3.558   1.143
 3760WAT     H111522   6.399   3.551   1.068
 3760WAT     H211523   6.431   3.623   1.211
 3761WAT      O11524   1.478   4.528   6.300
 3761WAT     H111525   1.477   4.428   6.290
 3761WAT     H211526   1.388   4.560   6.330
 3762WAT      O11527   4.233   8.542   5.886
 3762WAT     H111528   4.139   8.538   5.853
 3762WAT     H211529   4.263   8.637   5.889
 3763WAT      O11530   6.210   7.438   0.039
 3763WAT     H111531   6.221   7.461   0.136
 3763WAT     H211532   6.117   7.406   0.023
 3764WAT      O11533   4.117   0.820   6.717
 3764WAT     H111534   4.170   0.904   6.712
 3764WAT     H211535   4.115   0.776   6.627
 3765WAT      O11536   4.774   0.777   0.658
 3765WAT     H111537   4.848   0.824   0.705
 3765WAT     H211538   4.710   0.740   0.725
 3766WAT      O11539   5.197   5.156   5.690
 3766WAT     H111540   5.110   5.187   5.652
 3766WAT     H211541   5.212   5.201   5.778
 3767WAT      O11542   2.308   5.460   8.788
 3767WAT     H111543   2.391   5.461   8.844
 3767WAT     H211544   2.231   5.495   8.842
 3768WAT      O11545   6.521   1.561   4.160
 3768WAT     H111546   6.424   1.539   4.171
 3768WAT     H211547   6.542   1.571   4.062
 3769WAT      O11548   6.690   4.661   3.348
 3769WAT     H111549   6.763   4.624   3.406
 3769WAT     H211550   6.650   4.741   3.393
 3770WAT      O11551   6.153   6.029   0.182
 3770WAT     H111552   6.110   6.029   0.272
 3770WAT     H211553   6.243   5.985   0.188
 3771WAT      O11554   0.335   8.645   2.710
 3771WAT     H111555   0.362   8.736   2.680
 3771WAT     H211556   0.358   8.633   2.806
 3772WAT      O11557   3.583   2.030   7.781
 3772WAT     H111558   3.604   2.063   7.689
 3772WAT     H211559   3.485   2.033   7.796
 3773WAT      O11560   9.778   2.385   5.655
 3773WAT     H111561   9.799   2.470   5.703
 3773WAT     H211562   9.858   2.325   5.659
 3774WAT      O11563   9.137   3.057   6.018
 3774WAT     H111564   9.061   3.025   5.961
 3774WAT     H211565   9.218   3.072   5.961
 3775WAT      O11566   6.637   6.677   9.239
 3775WAT     H111567   6.701   6.652   9.166
 3775WAT     H211568   6.679   6.747   9.297
 3776WAT      O11569   9.043   7.892   6.529
 3776WAT     H111570   9.063   7.913   6.625
 3776WAT     H211571   8.948   7.863   6.520
 3777WAT      O11572   1.820   8.272   7.147
 3777WAT     H111573   1.862   8.357   7.116
 3777WAT     H211574   1.891   8.214   7.188
 3778WAT      O11575   2.625   9.288   3.181
 3778WAT     H111576   2.698   9.355   3.193
 3778WAT     H211577   2.582   9.269   3.269
 3779WAT      O11578   7.676   5.483   5.646
 3779WAT     H111579   7.734   5.560   5.674
 3779WAT     H211580   7.668   5.418   5.722
 3780WAT      O11581   6.013   4.505   2.468
 3780WAT     H111582   6.102   4.533   2.503
 3780WAT     H211583   5.959   4.586   2.446
 3781WAT      O11584   8.340   6.389   7.486
 3781WAT     H111585   8.271   6.326   7.452
 3781WAT     H211586   8.424   6.381   7.432
 3782WAT      O11587   7.319   3.936   7.674
 3782WAT     H111588   7.406   3.957   7.720
 3782WAT     H211589   7.247   3.928   7.742
 3783WAT      O11590   3.904   0.960   1.433
 3783WAT     H111591   3.944   0.882   1.481
 3783WAT     H211592   3.829   0.928   1.374
 3784WAT      O11593   4.739   5.745   8.914
 3784WAT     H111594   4.641   5.727   8.921
 3784WAT     H211595   4.782   5.677   8.855
 3785WAT      O11596   3.630   3.751   4.693
 3785WAT     H111597   3.716   3.712   4.663
 3785WAT     H211598   3.555   3.715   4.638
 3786WAT      O11599   4.993   4.112   8.286
 3786WAT     H111600   4.959   4.046   8.353
 3786WAT     H211601   5.093   4.117   8.292
 3787WAT      O11602   0.689   4.952   9.763
 3787WAT     H111603   0.725   4.998   9.843
 3787WAT     H211604   0.694   5.013   9.684
 3788WAT      O11605   9.731   6.206   8.289
 3788WAT     H111606   9.635   6.219   8.262
 3788WAT     H211607   9.777   6.295   8.294
 3789WAT      O11608   7.006   4.787   7.762
 3789WAT     H111609   6.925   4.814   7.709
 3789WAT     H211610   6.999   4.824   7.854
 3790WAT      O11611   1.651   4.952   0.413
 3790WAT     H111612   1.606   5.040   0.396
 3790WAT     H211613   1.698   4.956   0.501
 3791WAT      O11614   5.635   5.455   5.614
 3791WAT     H111615   5.716   5.512   5.601
 3791WAT     H211616   5.566   5.505   5.666
 3792WAT      O11617   4.172   8.689   5.584
 3792WAT     H111618   4.195   8.592   5.579
 3792WAT     H211619   4.095   8.708   5.522
 3793WAT      O11620   7.642   7.053   7.094
 3793WAT     H111621   7.633   6.994   7.174
 3793WAT     H211622   7.737   7.080   7.083
 3794WAT      O11623   3.813   5.527   9.659
 3794WAT     H111624   3.792   5.531   9.756
 3794WAT     H211625   3.822   5.621   9.623
 3795WAT      O11626   2.187   2.040   2.987
 3795WAT     H111627   2.159   1.988   3.068
 3795WAT     H211628   2.176   2.138   3.007
 3796WAT      O11629   0.705   4.372   0.996
 3796WAT     H111630   0.627   4.385   1.057
 3796WAT     H211631   0.689   4.292   0.937
 3797WAT      O11632   0.032   3.811   0.383
 3797WAT     H111633   0.128   3.782   0.385
 3797WAT     H211634   0.022   3.897   0.433
 3798WAT      O11635   5.208   1.399   6.235
 3798WAT     H111636   5.108   1.389   6.227
 3798WAT     H211637   5.245   1.433   6.148
 3799WAT      O11638   2.812   0.779   9.608
 3799WAT     H111639   2.760   0.745   9.529
 3799WAT     H211640   2.773   0.866   9.638
 3800WAT      O11641   1.953   0.260   4.058
 3800WAT     H111642   1.943   0.259   3.958
 3800WAT     H211643   2.011   0.183   4.086
 3801WAT      O11644   0.976   2.358   2.034
 3801WAT     H111645   0.915   2.390   1.961
 3801WAT     H211646   1.059   2.413   2.034
 3802WAT      O11647   8.785   8.209   0.902
 3802WAT     H111648   8.759   8.270   0.977
 3802WAT     H211649   8.881   8.223   0.880
 3803WAT      O11650   0.699   6.231   5.804
 3803WAT     H111651   0.610   6.198   5.835
 3803WAT     H211652   0.767   6.218   5.876
 3804WAT      O11653   5.374   3.701   0.260
 3804WAT     H111654   5.274   3.701   0.267
 3804WAT     H211655   5.402   3.639   0.188
 3805WAT      O11656   6.031   8.266   3.679
 3805WAT     H111657   5.981   8.210   3.613
 3805WAT     H211658   6.056   8.209   3.758
 3806WAT      O11659   6.249   6.648   8.467
 3806WAT     H111660   6.291   6.559   8.484
 3806WAT     H211661   6.152   6.645   8.491
 3807WAT      O11662   2.906   4.033   3.041
 3807WAT     H111663   2.822   3.999   3.084
 3807WAT     H211664   2.972   3.959   3.031
 3808WAT      O11665   9.256   5.257   1.913
 3808WAT     H111666   9.211   5.170   1.936
 3808WAT     H211667   9.348   5.257   1.951
 3809WAT      O11668   0.808   7.264   5.175
 3809WAT     H111669   0.864   7.283   5.095
 3809WAT     H211670   0.712   7.283   5.155
 3810WAT      O11671   3.000   6.128   1.017
 3810WAT     H111672   2.920   6.090   1.064
 3810WAT     H211673   3.069   6.153   1.084
 3811WAT      O11674   6.864   8.156   1.127
 3811WAT     H111675   6.953   8.194   1.153
 3811WAT     H211676   6.830   8.203   1.046
 3812WAT      O11677   9.525   1.767   9.328
 3812WAT     H111678   9.499   1.750   9.423
 3812WAT     H211679   9.461   1.831   9.286
 3813WAT      O11680   7.258   5.977   2.919
 3813WAT     H111681   7.340   6.033   2.907
 3813WAT     H211682   7.278   5.902   2.983
 3814WAT      O11683   2.611   5.018   6.994
 3814WAT     H111684   2.515   5.016   6.965
 3814WAT     H211685   2.668   4.975   6.924
 3815WAT      O11686   1.431   0.983   9.082
 3815WAT     H111687   1.352   0.979   9.022
 3815WAT     H211688   1.410   1.042   9.160
 3816WAT      O11689   1.973   9.381   9.178
 3816WAT     H111690   1.967   9.388   9.277
 3816WAT     H211691   2.021   9.297   9.154
 3817WAT      O11692   6.472   8.421   3.127
 3817WAT     H111693   6.533   8.450   3.201
 3817WAT     H211694   6.467   8.492   3.057
 3818WAT      O11695   4.769   2.847   6.862
 3818WAT     H111696   4.763   2.752   6.829
 3818WAT     H211697   4.866   2.874   6.866
 3819WAT      O11698   8.962   9.531   0.737
 3819WAT     H111699   8.918   9.535   0.827
 3819WAT     H211700   8.976   9.624   0.703
 3820WAT      O11701   7.068   4.485   6.868
 3820WAT     H111702   7.051   4.546   6.946
 3820WAT     H211703   6.992   4.421   6.859
 3821WAT      O11704   5.926   4.400   1.541
 3821WAT     H111705   5.875   4.317   1.562
 3821WAT     H211706   5.922   4.462   1.620
 3822WAT      O11707   6.358   8.163   4.619
 3822WAT     H111708   6.287   8.206   4.564
 3822WAT     H211709   6.423   8.232   4.650
 3823WAT      O11710   0.327   2.738   9.768
 3823WAT     H111711   0.278   2.689   9.839
 3823WAT     H211712   0.324   2.836   9.787
 3824WAT      O11713   3.477   4.643   6.156
 3824WAT     H111714   3.394   4.620   6.208
 3824WAT     H211715   3.510   4.733   6.185
 3825WAT      O11716   7.269   5.654   6.644
 3825WAT     H111717   7.196   5.696   6.589
 3825WAT     H211718   7.358   5.688   6.613
 3826WAT      O11719   9.731   8.199   6.274
 3826WAT     H111720   9.804   8.268   6.274
 3826WAT     H211721   9.645   8.243   6.299
 3827WAT      O11722   9.283   3.681   4.419
 3827WAT     H111723   9.276   3.682   4.519
 3827WAT     H211724   9.203   3.633   4.381
 3828WAT      O11725   1.859   0.357   3.758
 3828WAT     H111726   1.948   0.400   3.747
 3828WAT     H211727   1.832   0.313   3.673
 3829WAT      O11728   3.396   7.979   7.268
 3829WAT     H111729   3.418   7.882   7.258
 3829WAT     H211730   3.454   8.033   7.207
 3830WAT      O11731   2.447   1.942   0.857
 3830WAT     H111732   2.434   1.977   0.764
 3830WAT     H211733   2.480   1.847   0.853
 3831WAT      O11734   4.257   1.746   1.862
 3831WAT     H111735   4.265   1.755   1.961
 3831WAT     H211736   4.290   1.655   1.834
 3832WAT      O11737   3.868   1.639   3.480
 3832WAT     H111738   3.877   1.720   3.421
 3832WAT     H211739   3.959   1.604   3.502
 3833WAT      O11740   9.541   3.150   2.463
 3833WAT     H111741   9.465   3.210   2.489
 3833WAT     H211742   9.551   3.149   2.364
 3834WAT      O11743   6.835   1.688   1.990
 3834WAT     H111744   6.838   1.682   2.090
 3834WAT     H211745   6.925   1.714   1.955
 3835WAT      O11746   3.600   2.459   1.080
 3835WAT     H111747   3.579   2.362   1.096
 3835WAT     H211748   3.699   2.471   1.075
 3836WAT      O11749   5.460   4.907   2.758
 3836WAT     H111750   5.437   4.810   2.768
 3836WAT     H211751   5.400   4.962   2.815
 3837WAT      O11752   1.215   8.097   1.968
 3837WAT     H111753   1.235   8.127   1.875
 3837WAT     H211754   1.291   8.122   2.028
 3838WAT      O11755   3.694   8.509   5.064
 3838WAT     H111756   3.720   8.502   4.968
 3838WAT     H211757   3.708   8.603   5.096
 3839WAT      O11758   3.183   0.463   9.821
 3839WAT     H111759   3.173   0.448   9.919
 3839WAT     H211760   3.194   0.375   9.774
 3840WAT      O11761   7.212   4.864   6.784
 3840WAT     H111762   7.289   4.881   6.722
 3840WAT     H211763   7.203   4.766   6.800
 3841WAT      O11764   3.652   4.201   2.561
 3841WAT     H111765   3.746   4.168   2.559
 3841WAT     H211766   3.628   4.230   2.653
 3842WAT      O11767   1.939   6.270   6.586
 3842WAT     H111768   1.846   6.282   6.551
 3842WAT     H211769   1.977   6.184   6.551
 3843WAT      O11770   4.715   4.875   2.891
 3843WAT     H111771   4.630   4.880   2.943
 3843WAT     H211772   4.693   4.867   2.793
 3844WAT      O11773   0.038   1.787   6.496
 3844WAT     H111774   0.088   1.856   6.548
 3844WAT     H211775   0.099   1.743   6.431
 3845WAT      O11776   0.049   3.294   3.998
 3845WAT     H111777  -0.049   3.310   4.012
 3845WAT     H211778   0.097   3.382   3.990
 3846WAT      O11779   3.657   3.510   0.978
 3846WAT     H111780   3.627   3.459   0.898
 3846WAT     H211781   3.702   3.594   0.949
 3847WAT      O11782   8.587   3.075   0.830
 3847WAT     H111783   8.674   3.115   0.857
 3847WAT     H211784   8.602   2.984   0.792
 3848WAT      O11785   3.138   1.469   6.177
 3848WAT     H111786   3.057   1.516   6.212
 3848WAT     H211787   3.202   1.453   6.252
 3849WAT      O11788   9.688   7.182   4.942
 3849WAT     H111789   9.638   7.100   4.912
 3849WAT     H211790   9.774   7.189   4.893
 3850WAT      O11791   0.736   8.147   5.032
 3850WAT     H111792   0.775   8.222   4.980
 3850WAT     H211793   0.651   8.177   5.074
 3851WAT      O11794   1.986   6.328   3.728
 3851WAT     H111795   1.984   6.244   3.781
 3851WAT     H211796   1.927   6.319   3.647
 3852WAT      O11797   4.758   0.409   8.920
 3852WAT     H111798   4.717   0.328   8.878
 3852WAT     H211799   4.715   0.427   9.009
 3853WAT      O11800   7.425   4.917   4.329
 3853WAT     H111801   7.369   4.880   4.403
 3853WAT     H211802   7.392   5.008   4.304
 3854WAT      O11803   4.837   3.708   2.860
 3854WAT     H111804   4.839   3.804   2.831
 3854WAT     H211805   4.753   3.690   2.910
 3855WAT      O11806   1.562   7.289   5.947
 3855WAT     H111807   1.520   7.206   5.912
 3855WAT     H211808   1.596   7.273   6.040
 3856WAT      O11809   9.769   5.957   5.483
 3856WAT     H111810   9.799   6.053   5.486
 3856WAT     H211811   9.848   5.899   5.463
 3857WAT      O11812   8.181   5.390   1.640
 3857WAT     H111813   8.125   5.353   1.566
 3857WAT     H211814   8.232   5.315   1.683
 3858WAT      O11815   4.228   6.965   8.990
 3858WAT     H111816   4.154   7.030   8.974
 3858WAT     H211817   4.231   6.941   9.087
 3859WAT      O11818   0.615   7.313   3.450
 3859WAT     H111819   0.697   7.369   3.462
 3859WAT     H211820   0.628   7.224   3.494
 3860WAT      O11821   5.554   6.391   2.294
 3860WAT     H111822   5.524   6.297   2.312
 3860WAT     H211823   5.525   6.418   2.202
 3861WAT      O11824   9.159   3.311   9.332
 3861WAT     H111825   9.100   3.350   9.261
 3861WAT     H211826   9.103   3.268   9.402
 3862WAT      O11827   2.586   8.999   6.075
 3862WAT     H111828   2.654   8.965   6.139
 3862WAT     H211829   2.565   8.928   6.007
 3863WAT      O11830   3.296   8.605   3.276
 3863WAT     H111831   3.353   8.548   3.217
 3863WAT     H211832   3.351   8.679   3.315
 3864WAT      O11833   9.303   7.377   7.950
 3864WAT     H111834   9.264   7.402   7.861
 3864WAT     H211835   9.360   7.452   7.983
 3865WAT      O11836   5.840   3.749   8.728
 3865WAT     H111837   5.764   3.690   8.757
 3865WAT     H211838   5.806   3.842   8.713
 3866WAT      O11839   2.847   1.605   3.968
 3866WAT     H111840   2.835   1.695   4.009
 3866WAT     H211841   2.762   1.553   3.977
 3867WAT      O11842   5.953   2.893   4.177
 3867WAT     H111843   5.976   2.976   4.228
 3867WAT     H211844   6.027   2.870   4.114
 3868WAT      O11845   1.220   6.277   6.697
 3868WAT     H111846   1.254   6.188   6.665
 3868WAT     H211847   1.125   6.288   6.669
 3869WAT      O11848   9.387   8.156   3.186
 3869WAT     H111849   9.323   8.118   3.119
 3869WAT     H211850   9.365   8.122   3.277
 3870WAT      O11851   3.310   3.233   1.154
 3870WAT     H111852   3.361   3.226   1.240
 3870WAT     H211853   3.359   3.182   1.083
 3871WAT      O11854   9.220   0.737   4.875
 3871WAT     H111855   9.133   0.762   4.833
 3871WAT     H211856   9.265   0.819   4.910
 3872WAT      O11857   0.719   1.805   1.303
 3872WAT     H111858   0.658   1.766   1.235
 3872WAT     H211859   0.803   1.751   1.307
 3873WAT      O11860   6.242   4.732   4.902
 3873WAT     H111861   6.338   4.724   4.875
 3873WAT     H211862   6.233   4.712   5.000
 3874WAT      O11863   6.790   0.141   8.245
 3874WAT     H111864   6.884   0.107   8.245
 3874WAT     H211865   6.737   0.092   8.315
 3875WAT      O11866   3.720   0.682   0.965
 3875WAT     H111867   3.633   0.666   1.011
 3875WAT     H211868   3.789   0.618   1.000
 3876WAT      O11869   6.147   9.706   7.368
 3876WAT     H111870   6.119   9.627   7.422
 3876WAT     H211871   6.221   9.754   7.415
 3877WAT      O11872   8.796   6.875   2.917
 3877WAT     H111873   8.720   6.890   2.854
 3877WAT     H211874   8.859   6.953   2.912
 3878WAT      O11875   5.391   6.350   6.036
 3878WAT     H111876   5.333   6.418   5.991
 3878WAT     H211877   5.472   6.333   5.979
 3879WAT      O11878   7.579   9.426   9.722
 3879WAT     H111879   7.525   9.382   9.651
 3879WAT     H211880   7.662   9.464   9.681
 3880WAT      O11881   6.142   2.824   2.913
 3880WAT     H111882   6.119   2.735   2.873
 3880WAT     H211883   6.241   2.836   2.913
 3881WAT      O11884   5.105   2.327   4.487
 3881WAT     H111885   5.043   2.354   4.414
 3881WAT     H211886   5.111   2.402   4.554
 3882WAT      O11887   2.835   0.170   8.975
 3882WAT     H111888   2.774   0.240   9.013
 3882WAT     H211889   2.859   0.104   9.046
 3883WAT      O11890   8.578   5.852   1.145
 3883WAT     H111891   8.592   5.803   1.059
 3883WAT     H211892   8.667   5.874   1.185
 3884WAT      O11893   4.747   9.562   7.652
 3884WAT     H111894   4.776   9.637   7.591
 3884WAT     H211895   4.737   9.478   7.599
 3885WAT      O11896   4.488   7.612   2.234
 3885WAT     H111897   4.535   7.700   2.238
 3885WAT     H211898   4.412   7.611   2.300
 3886WAT      O11899   0.151   2.205   3.432
 3886WAT     H111900   0.103   2.119   3.415
 3886WAT     H211901   0.245   2.198   3.397
 3887WAT      O11902   1.808   6.224   0.107
 3887WAT     H111903   1.880   6.202   0.041
 3887WAT     H211904   1.850   6.266   0.188
 3888WAT      O11905   3.265   7.307   6.112
 3888WAT     H111906   3.217   7.224   6.082
 3888WAT     H211907   3.198   7.370   6.153
 3889WAT      O11908   1.223   6.101   6.278
 3889WAT     H111909   1.302   6.044   6.303
 3889WAT     H211910   1.191   6.076   6.187
 3890WAT      O11911   3.695   0.287   0.287
 3890WAT     H111912   3.623   0.220   0.306
 3890WAT     H211913   3.666   0.347   0.213
 3891WAT      O11914   3.976   7.109   9.364
 3891WAT     H111915   3.921   7.026   9.364
 3891WAT     H211916   4.005   7.130   9.271
 3892WAT      O11917   1.333   9.728   1.876
 3892WAT     H111918   1.333   9.828   1.882
 3892WAT     H211919   1.393   9.699   1.802
 3893WAT      O11920   1.495   0.331   3.471
 3893WAT     H111921   1.461   0.419   3.505
 3893WAT     H211922   1.454   0.313   3.382
 3894WAT      O11923   2.602   8.633   0.755
 3894WAT     H111924   2.619   8.711   0.814
 3894WAT     H211925   2.681   8.571   0.757
 3895WAT      O11926   3.578   9.444   9.755
 3895WAT     H111927   3.616   9.388   9.829
 3895WAT     H211928   3.514   9.389   9.701
 3896WAT      O11929   4.949   6.256   7.464
 3896WAT     H111930   4.968   6.304   7.379
 3896WAT     H211931   4.946   6.322   7.539
 3897WAT      O11932   3.061   9.442   3.223
 3897WAT     H111933   3.086   9.535   3.248
 3897WAT     H211934   3.024   9.395   3.303
 3898WAT      O11935   5.349   1.591   3.781
 3898WAT     H111936   5.365   1.525   3.708
 3898WAT     H211937   5.377   1.551   3.869
 3899WAT      O11938   8.963   6.441   5.848
 3899WAT     H111939   8.970   6.489   5.761
 3899WAT     H211940   8.941   6.345   5.832
 3900WAT      O11941   2.164   5.207   7.113
 3900WAT     H111942   2.193   5.236   7.022
 3900WAT     H211943   2.072   5.166   7.107
 3901WAT      O11944   5.027   6.958   0.634
 3901WAT     H111945   5.060   6.914   0.551
 3901WAT     H211946   4.979   6.890   0.690
 3902WAT      O11947   5.571   0.793   6.684
 3902WAT     H111948   5.527   0.877   6.716
 3902WAT     H211949   5.610   0.744   6.762
 3903WAT      O11950   8.642   7.002   4.835
 3903WAT     H111951   8.558   6.992   4.782
 3903WAT     H211952   8.708   6.933   4.806
 3904WAT      O11953   3.181   2.992   3.470
 3904WAT     H111954   3.100   3.021   3.420
 3904WAT     H211955   3.255   3.058   3.455
 3905WAT      O11956   6.892   4.990   2.462
 3905WAT     H111957   6.895   5.000   2.362
 3905WAT     H211958   6.855   4.901   2.485
 3906WAT      O11959   9.673   8.748   0.020
 3906WAT     H111960   9.666   8.818  -0.051
 3906WAT     H211961   9.582   8.727   0.056
 3907WAT      O11962   8.501   3.740   5.775
 3907WAT     H111963   8.481   3.774   5.867
 3907WAT     H211964   8.427   3.679   5.746
 3908WAT      O11965   2.082   5.410   7.280
 3908WAT     H111966   2.061   5.495   7.232
 3908WAT     H211967   2.123   5.344   7.216
 3909WAT      O11968   5.776   1.754   0.286
 3909WAT     H111969   5.854   1.692   0.274
 3909WAT     H211970   5.705   1.729   0.221
 3910WAT      O11971   9.114   7.432   3.871
 3910WAT     H111972   9.050   7.381   3.812
 3910WAT     H211973   9.076   7.439   3.963
 3911WAT      O11974   1.319   7.358   4.702
 3911WAT     H111975   1.414   7.348   4.730
 3911WAT     H211976   1.298   7.455   4.688
 3912WAT      O11977   0.564   6.154   8.982
 3912WAT     H111978   0.495   6.106   9.037
 3912WAT     H211979   0.630   6.199   9.042
 3913WAT      O11980   5.522   4.703   3.761
 3913WAT     H111981   5.592   4.774   3.777
 3913WAT     H211982   5.558   4.615   3.791
 3914WAT      O11983   1.956   4.747   1.514
 3914WAT     H111984   2.018   4.676   1.548
 3914WAT     H211985   1.986   4.775   1.422
 3915WAT      O11986   4.889   6.495   2.849
 3915WAT     H111987   4.800   6.540   2.857
 3915WAT     H211988   4.875   6.396   2.853
 3916WAT      O11989   4.863   2.291   0.493
 3916WAT     H111990   4.932   2.270   0.423
 3916WAT     H211991   4.888   2.377   0.539
 3917WAT      O11992   6.381   5.206   3.323
 3917WAT     H111993   6.289   5.184   3.290
 3917WAT     H211994   6.392   5.175   3.417
 3918WAT      O11995   9.804   5.352   6.823
 3918WAT     H111996   9.783   5.434   6.876
 3918WAT     H211997   9.721   5.297   6.812
 3919WAT      O11998   5.497   2.328   6.615
 3919WAT     H111999   5.505   2.237   6.575
 3919WAT     H212000   5.571   2.344   6.680
 3920WAT      O12001   5.272   5.188   3.486
 3920WAT     H112002   5.300   5.124   3.557
 3920WAT     H212003   5.239   5.138   3.406
 3921WAT      O12004   1.256   8.162   6.655
 3921WAT     H112005   1.287   8.083   6.708
 3921WAT     H212006   1.209   8.130   6.573
 3922WAT      O12007   6.684   3.708   1.766
 3922WAT     H112008   6.702   3.615   1.734
 3922WAT     H212009   6.768   3.762   1.762
 3923WAT      O12010   0.630   7.272   5.404
 3923WAT     H112011   0.646   7.188   5.457
 3923WAT     H212012   0.697   7.278   5.330
 3924WAT      O12013   9.734   3.417   4.881
 3924WAT     H112014   9.809   3.482   4.894
 3924WAT     H212015   9.692   3.395   4.970
 3925WAT      O12016   5.966   8.779   9.506
 3925WAT     H112017   6.038   8.838   9.471
 3925WAT     H212018   5.879   8.804   9.464
 3926WAT      O12019   2.978   2.328   4.489
 3926WAT     H112020   2.911   2.335   4.563
 3926WAT     H212021   2.930   2.310   4.403
 3927WAT      O12022   9.115   3.976   7.064
 3927WAT     H112023   9.062   4.041   7.010
 3927WAT     H212024   9.093   3.987   7.161
 3928WAT      O12025   3.118   7.701   3.252
 3928WAT     H112026   3.209   7.660   3.255
 3928WAT     H212027   3.067   7.674   3.334
 3929WAT      O12028   4.249   0.278   8.114
 3929WAT     H112029   4.228   0.331   8.033
 3929WAT     H212030   4.291   0.337   8.183
 3930WAT      O12031   7.604   4.679   1.409
 3930WAT     H112032   7.591   4.702   1.506
 3930WAT     H212033   7.699   4.697   1.383
 3931WAT      O12034   9.523   7.928   7.186
 3931WAT     H112035   9.461   7.851   7.198
 3931WAT     H212036   9.614   7.894   7.160
 3932WAT      O12037   9.523   2.131   7.956
 3932WAT     H112038   9.430   2.096   7.966
 3932WAT     H212039   9.589   2.059   7.979
 3933WAT      O12040   9.025   7.541   3.576
 3933WAT     H112041   8.990   7.556   3.484
 3933WAT     H212042   9.125   7.547   3.575
 3934WAT      O12043   7.968   4.738   0.085
 3934WAT     H112044   7.970   4.642   0.110
 3934WAT     H212045   8.013   4.750  -0.004
 3935WAT      O12046   5.180   6.257   8.613
 3935WAT     H112047   5.108   6.188   8.625
 3935WAT     H212048   5.211   6.289   8.702
 3936WAT      O12049   1.280   7.932   4.324
 3936WAT     H112050   1.350   8.001   4.305
 3936WAT     H212051   1.264   7.877   4.242
 3937WAT      O12052   1.523   8.708   8.137
 3937WAT     H112053   1.461   8.772   8.181
 3937WAT     H212054   1.526   8.727   8.038
 3938WAT      O12055   9.444   2.680   5.513
 3938WAT     H112056   9.525   2.705   5.460
 3938WAT     H212057   9.367   2.666   5.450
 3939WAT      O12058   1.218   0.276   3.615
 3939WAT     H112059   1.197   0.355   3.558
 3939WAT     H212060   1.315   0.254   3.608
 3940WAT      O12061   9.154   6.552   8.846
 3940WAT     H112062   9.236   6.520   8.799
 3940WAT     H212063   9.162   6.533   8.944
 3941WAT      O12064   5.682   5.237   0.871
 3941WAT     H112065   5.733   5.157   0.902
 3941WAT     H212066   5.616   5.264   0.941
 3942WAT      O12067   2.657   7.535   8.683
 3942WAT     H112068   2.588   7.491   8.741
 3942WAT     H212069   2.745   7.535   8.731
 3943WAT      O12070   4.775   4.684   3.250
 3943WAT     H112071   4.832   4.620   3.301
 3943WAT     H212072   4.778   4.663   3.153
 3944WAT      O12073   6.528   5.988   0.969
 3944WAT     H112074   6.508   5.991   1.067
 3944WAT     H212075   6.444   6.007   0.917
 3945WAT      O12076   0.400   9.197   9.757
 3945WAT     H112077   0.454   9.191   9.673
 3945WAT     H212078   0.309   9.160   9.742
 3946WAT      O12079   2.965   4.266   3.404
 3946WAT     H112080   2.965   4.271   3.304
 3946WAT     H212081   3.051   4.225   3.435
 3947WAT      O12082   3.310   4.672   7.115
 3947WAT     H112083   3.373   4.660   7.192
 3947WAT     H212084   3.357   4.653   7.029
 3948WAT      O12085   5.616   1.931   4.422
 3948WAT     H112086   5.581   1.938   4.329
 3948WAT     H212087   5.703   1.882   4.421
 3949WAT      O12088   9.407   4.657   9.621
 3949WAT     H112089   9.393   4.683   9.525
 3949WAT     H212090   9.343   4.585   9.646
 3950WAT      O12091   0.205   4.917   5.426
 3950WAT     H112092   0.214   4.842   5.360
 3950WAT     H212093   0.295   4.941   5.461
 3951WAT      O12094   7.777   9.470   1.960
 3951WAT     H112095   7.734   9.547   1.912
 3951WAT     H212096   7.869   9.496   1.990
 3952WAT      O12097   4.178   0.103   6.046
 3952WAT     H112098   4.148   0.068   6.135
 3952WAT     H212099   4.136   0.048   5.974
 3953WAT      O12100   8.248   4.288   5.860
 3953WAT     H112101   8.333   4.249   5.824
 3953WAT     H212102   8.172   4.228   5.837
 3954WAT      O12103   1.881   2.208   4.870
 3954WAT     H112104   1.934   2.180   4.790
 3954WAT     H212105   1.792   2.163   4.869
 3955WAT      O12106   4.029   8.538   3.817
 3955WAT     H112107   3.970   8.582   3.885
 3955WAT     H212108   4.111   8.504   3.863
 3956WAT      O12109   6.359   1.101   5.008
 3956WAT     H112110   6.277   1.053   4.977
 3956WAT     H212111   6.396   1.055   5.089
 3957WAT      O12112   6.196   2.622   3.460
 3957WAT     H112113   6.216   2.701   3.402
 3957WAT     H212114   6.097   2.617   3.476
 3958WAT      O12115   0.652   2.314   6.991
 3958WAT     H112116   0.722   2.321   6.921
 3958WAT     H212117   0.695   2.305   7.081
 3959WAT      O12118   5.353   6.960   4.279
 3959WAT     H112119   5.382   6.904   4.202
 3959WAT     H212120   5.434   7.001   4.322
 3960WAT      O12121   7.339   4.172   8.253
 3960WAT     H112122   7.296   4.259   8.275
 3960WAT     H212123   7.269   4.106   8.226
 3961WAT      O12124   1.628   1.117   6.034
 3961WAT     H112125   1.715   1.149   5.997
 3961WAT     H212126   1.595   1.040   5.980
 3962WAT      O12127   5.356   1.075   0.722
 3962WAT     H112128   5.359   1.133   0.804
 3962WAT     H212129   5.318   1.126   0.646
 3963WAT      O12130   8.442   1.295   6.174
 3963WAT     H112131   8.483   1.351   6.247
 3963WAT     H212132   8.447   1.199   6.200
 3964WAT      O12133   6.728   6.179   3.775
 3964WAT     H112134   6.632   6.201   3.756
 3964WAT     H212135   6.732   6.093   3.826
 3965WAT      O12136   0.855   1.965   2.756
 3965WAT     H112137   0.914   2.046   2.751
 3965WAT     H212138   0.784   1.972   2.685
 3966WAT      O12139   6.414   8.043   1.225
 3966WAT     H112140   6.513   8.055   1.229
 3966WAT     H212141   6.371   8.128   1.196
 3967WAT      O12142   4.296   4.440   0.259
 3967WAT     H112143   4.243   4.508   0.209
 3967WAT     H212144   4.328   4.370   0.194
 3968WAT      O12145   8.106   8.390   5.104
 3968WAT     H112146   8.165   8.442   5.165
 3968WAT     H212147   8.140   8.296   5.096
 3969WAT      O12148   6.920   6.420   7.270
 3969WAT     H112149   6.931   6.497   7.207
 3969WAT     H212150   6.972   6.342   7.237
 3970WAT      O12151   0.990   8.799   3.311
 3970WAT     H112152   0.924   8.753   3.370
 3970WAT     H212153   0.955   8.890   3.287
 3971WAT      O12154   4.039   8.447   8.298
 3971WAT     H112155   3.975   8.370   8.286
 3971WAT     H212156   4.131   8.417   8.274
 3972WAT      O12157   7.310   5.338   1.238
 3972WAT     H112158   7.231   5.393   1.211
 3972WAT     H212159   7.355   5.379   1.317
 3973WAT      O12160   8.868   6.340   1.061
 3973WAT     H112161   8.808   6.419   1.049
 3973WAT     H212162   8.951   6.352   1.006
 3974WAT      O12163   5.610   9.108   1.066
 3974WAT     H112164   5.570   9.199   1.054
 3974WAT     H212165   5.575   9.046   0.997
 3975WAT      O12166   9.069   3.453   3.380
 3975WAT     H112167   9.088   3.549   3.403
 3975WAT     H212168   9.155   3.402   3.374
 3976WAT      O12169   5.617   0.788   4.248
 3976WAT     H112170   5.657   0.800   4.157
 3976WAT     H212171   5.643   0.864   4.306
 3977WAT      O12172   2.773   7.602   2.310
 3977WAT     H112173   2.717   7.670   2.262
 3977WAT     H212174   2.864   7.639   2.328
 3978WAT      O12175   7.512   5.628   7.194
 3978WAT     H112176   7.585   5.692   7.168
 3978WAT     H212177   7.550   5.537   7.205
 3979WAT      O12178   6.251   8.358   6.713
 3979WAT     H112179   6.244   8.293   6.638
 3979WAT     H212180   6.305   8.437   6.685
 3980WAT      O12181   5.198   0.342   6.685
 3980WAT     H112182   5.278   0.282   6.685
 3980WAT     H212183   5.186   0.381   6.594
 3981WAT      O12184   5.040   1.650   2.376
 3981WAT     H112185   5.009   1.695   2.460
 3981WAT     H212186   4.978   1.575   2.354
 3982WAT      O12187   2.129   7.531   4.849
 3982WAT     H112188   2.123   7.432   4.834
 3982WAT     H212189   2.190   7.572   4.781
 3983WAT      O12190   5.982   3.254   4.478
 3983WAT     H112191   6.036   3.337   4.492
 3983WAT     H212192   5.988   3.227   4.382
 3984WAT      O12193   9.766   8.673   6.347
 3984WAT     H112194   9.669   8.675   6.325
 3984WAT     H212195   9.813   8.744   6.294
 3985WAT      O12196   0.237   7.885   2.873
 3985WAT     H112197   0.302   7.928   2.936
 3985WAT     H212198   0.143   7.903   2.904
 3986WAT      O12199   0.386   5.113   2.809
 3986WAT     H112200   0.412   5.195   2.757
 3986WAT     H212201   0.305   5.134   2.864
 3987WAT      O12202   9.246   5.251   1.211
 3987WAT     H112203   9.201   5.196   1.281
 3987WAT     H212204   9.294   5.190   1.147
 3988WAT      O12205   7.274   9.072   5.483
 3988WAT     H112206   7.178   9.045   5.472
 3988WAT     H212207   7.330   8.992   5.501
 3989WAT      O12208   9.861   9.498   6.345
 3989WAT     H112209   9.917   9.504   6.428
 3989WAT     H212210   9.804   9.416   6.349
 3990WAT      O12211   0.258   0.176   1.679
 3990WAT     H112212   0.217   0.208   1.764
 3990WAT     H212213   0.337   0.233   1.656
 3991WAT      O12214   6.614   8.258   6.597
 3991WAT     H112215   6.668   8.175   6.586
 3991WAT     H212216   6.557   8.250   6.679
 3992WAT      O12217   1.095   2.484   7.364
 3992WAT     H112218   1.129   2.578   7.363
 3992WAT     H212219   1.170   2.421   7.339
 3993WAT      O12220   2.596   6.359   0.992
 3993WAT     H112221   2.569   6.393   1.082
 3993WAT     H212222   2.695   6.371   0.981
 3994WAT      O12223   1.328   8.523   9.040
 3994WAT     H112224   1.262   8.597   9.028
 3994WAT     H212225   1.358   8.491   8.950
 3995WAT      O12226   0.227   1.522   3.264
 3995WAT     H112227   0.233   1.573   3.178
 3995WAT     H212228   0.154   1.560   3.320
 3996WAT      O12229   2.258   3.276   6.904
 3996WAT     H112230   2.194   3.286   6.981
 3996WAT     H212231   2.216   3.219   6.834
 3997WAT      O12232   0.595   5.399   2.865
 3997WAT     H112233   0.587   5.499   2.869
 3997WAT     H212234   0.540   5.364   2.790
 3998WAT      O12235   4.207   9.652   9.421
 3998WAT     H112236   4.212   9.664   9.520
 3998WAT     H212237   4.267   9.577   9.393
 3999WAT      O12238   8.018   3.178   3.762
 3999WAT     H112239   8.038   3.170   3.664
 3999WAT     H212240   7.974   3.094   3.794
 4000WAT      O12241   9.097   7.627   6.839
 4000WAT     H112242   9.127   7.721   6.856
 4000WAT     H212243   9.030   7.626   6.765
 4001WAT      O12244   2.473   3.812   6.668
 4001WAT     H112245   2.378   3.840   6.661
 4001WAT     H212246   2.505   3.823   6.762
 4002WAT      O12247   3.236   8.540   6.266
 4002WAT     H112248   3.254   8.612   6.200
 4002WAT     H212249   3.225   8.580   6.357
 4003WAT      O12250   0.016   2.173   7.636
 4003WAT     H112251   0.059   2.187   7.725
 4003WAT     H212252  -0.053   2.244   7.620
 4004WAT      O12253   0.589   3.915   4.553
 4004WAT     H112254   0.523   3.987   4.530
 4004WAT     H212255   0.672   3.928   4.500
 4005WAT      O12256   8.569   8.180   3.321
 4005WAT     H112257   8.602   8.093   3.284
 4005WAT     H212258   8.606   8.193   3.413
 4006WAT      O12259   7.717   4.927   2.564
 4006WAT     H112260   7.634   4.980   2.543
 4006WAT     H212261   7.762   4.965   2.644
 4007WAT      O12262   4.245   8.302   6.018
 4007WAT     H112263   4.287   8.311   6.108
 4007WAT     H212264   4.249   8.391   5.971
 4008WAT      O12265   4.738   8.486   8.809
 4008WAT     H112266   4.781   8.517   8.894
 4008WAT     H212267   4.655   8.435   8.830
 4009WAT      O12268   1.156   1.004   7.849
 4009WAT     H112269   1.197   1.095   7.836
 4009WAT     H212270   1.228   0.935   7.850
 4010WAT      O12271   5.502   9.543   2.743
 4010WAT     H112272   5.487   9.519   2.839
 4010WAT     H212273   5.494   9.461   2.687
 4011WAT      O12274   1.692   3.831   4.633
 4011WAT     H112275   1.673   3.793   4.724
 4011WAT     H212276   1.791   3.837   4.620
 4012WAT      O12277   8.810   2.060   9.886
 4012WAT     H112278   8.903   2.086   9.859
 4012WAT     H212279   8.807   2.049   9.985
 4013WAT      O12280   3.550   9.592   3.602
 4013WAT     H112281   3.566   9.577   3.700
 4013WAT     H212282   3.488   9.671   3.591
 4014WAT      O12283   0.609   8.428   8.097
 4014WAT     H112284   0.677   8.385   8.037
 4014WAT     H212285   0.608   8.526   8.080
 4015WAT      O12286   1.979   3.348   8.067
 4015WAT     H112287   2.012   3.269   8.118
 4015WAT     H212288   1.968   3.323   7.970
 4016WAT      O12289   4.360   0.997   3.260
 4016WAT     H112290   4.450   1.040   3.264
 4016WAT     H212291   4.319   1.014   3.170
 4017WAT      O12292   2.546   8.812   4.859
 4017WAT     H112293   2.502   8.821   4.948
 4017WAT     H212294   2.610   8.735   4.861
 4018WAT      O12295   4.378   7.681   6.412
 4018WAT     H112296   4.319   7.748   6.366
 4018WAT     H212297   4.321   7.611   6.456
 4019WAT      O12298   5.653   5.326   3.791
 4019WAT     H112299   5.691   5.386   3.862
 4019WAT     H212300   5.555   5.344   3.782
 4020WAT      O12301   5.822   1.505   3.750
 4020WAT     H112302   5.922   1.497   3.752
 4020WAT     H212303   5.785   1.438   3.686
 4021WAT      O12304   1.201   1.656   9.418
 4021WAT     H112305   1.121   1.598   9.401
 4021WAT     H212306   1.218   1.662   9.516
 4022WAT      O12307   4.913   5.957   9.601
 4022WAT     H112308   4.825   5.923   9.568
 4022WAT     H212309   4.903   6.052   9.631
 4023WAT      O12310   8.630   8.001   4.661
 4023WAT     H112311   8.652   7.908   4.629
 4023WAT     H212312   8.613   8.000   4.759
 4024WAT      O12313   5.938   1.547   9.363
 4024WAT     H112314   5.844   1.530   9.336
 4024WAT     H212315   5.994   1.465   9.346
 4025WAT      O12316   8.832   4.508   4.909
 4025WAT     H112317   8.871   4.419   4.930
 4025WAT     H212318   8.898   4.580   4.931
 4026WAT      O12319   4.615   7.959   3.030
 4026WAT     H112320   4.570   8.041   3.066
 4026WAT     H212321   4.547   7.887   3.018
 4027WAT      O12322   0.682   1.181   4.869
 4027WAT     H112323   0.681   1.195   4.770
 4027WAT     H212324   0.717   1.263   4.914
 4028WAT      O12325   1.965   3.913   2.087
 4028WAT     H112326   1.900   3.873   2.150
 4028WAT     H212327   1.943   3.885   1.993
 4029WAT      O12328   1.267   5.619   7.984
 4029WAT     H112329   1.204   5.563   7.930
 4029WAT     H212330   1.361   5.592   7.965
 4030WAT      O12331   0.423   3.781   6.330
 4030WAT     H112332   0.397   3.700   6.279
 4030WAT     H212333   0.476   3.842   6.272
 4031WAT      O12334   1.707   8.287   8.303
 4031WAT     H112335   1.734   8.267   8.209
 4031WAT     H212336   1.758   8.228   8.366
 4032WAT      O12337   7.630   2.219   4.325
 4032WAT     H112338   7.662   2.157   4.396
 4032WAT     H212339   7.621   2.169   4.239
 4033WAT      O12340   6.559   6.462   3.221
 4033WAT     H112341   6.639   6.409   3.194
 4033WAT     H212342   6.525   6.429   3.308
 4034WAT      O12343   8.045   5.630   5.830
 4034WAT     H112344   8.035   5.687   5.912
 4034WAT     H212345   7.964   5.640   5.773
 4035WAT      O12346   1.761   4.618   1.075
 4035WAT     H112347   1.793   4.712   1.084
 4035WAT     H212348   1.829   4.555   1.112
 4036WAT      O12349   8.033   1.594   1.331
 4036WAT     H112350   8.021   1.562   1.425
 4036WAT     H212351   8.129   1.617   1.315
 4037WAT      O12352   5.669   7.996   6.053
 4037WAT     H112353   5.717   7.978   5.967
 4037WAT     H212354   5.617   8.081   6.045
 4038WAT      O12355   3.674   4.283   4.271
 4038WAT     H112356   3.718   4.201   4.309
 4038WAT     H212357   3.722   4.365   4.303
 4039WAT      O12358   6.787   4.120   3.819
 4039WAT     H112359   6.847   4.187   3.774
 4039WAT     H212360   6.730   4.166   3.887
 4040WAT      O12361   1.550   3.128   4.589
 4040WAT     H112362   1.466   3.143   4.537
 4040WAT     H212363   1.626   3.114   4.526
 4041WAT      O12364   2.940   7.649   5.311
 4041WAT     H112365   2.930   7.669   5.214
 4041WAT     H212366   2.850   7.643   5.354
 4042WAT      O12367   4.139   5.752   0.114
 4042WAT     H112368   4.074   5.692   0.161
 4042WAT     H212369   4.140   5.842   0.160
 4043WAT      O12370   4.136   5.287   1.259
 4043WAT     H112371   4.182   5.305   1.346
 4043WAT     H212372   4.079   5.205   1.268
 4044WAT      O12373   2.343   7.368   1.344
 4044WAT     H112374   2.440   7.346   1.334
 4044WAT     H212375   2.291   7.283   1.352
 4045WAT      O12376   5.342   5.805   5.927
 4045WAT     H112377   5.301   5.836   6.013
 4045WAT     H212378   5.358   5.883   5.868
 4046WAT      O12379   9.069   4.217   3.613
 4046WAT     H112380   9.158   4.195   3.575
 4046WAT     H212381   9.077   4.230   3.712
 4047WAT      O12382   9.546   6.969   4.196
 4047WAT     H112383   9.532   6.961   4.295
 4047WAT     H212384   9.634   7.012   4.178
 4048WAT      O12385   8.147   3.245   6.901
 4048WAT     H112386   8.235   3.235   6.854
 4048WAT     H212387   8.130   3.342   6.920
 4049WAT      O12388   5.180   8.019   4.422
 4049WAT     H112389   5.231   7.986   4.342
 4049WAT     H212390   5.124   7.944   4.459
 4050WAT      O12391   7.587   1.232   4.937
 4050WAT     H112392   7.588   1.186   5.026
 4050WAT     H212393   7.632   1.175   4.870
 4051WAT      O12394   9.541   6.408   5.074
 4051WAT     H112395   9.564   6.433   4.980
 4051WAT     H212396   9.521   6.310   5.078
 4052WAT      O12397   8.567   2.828   6.190
 4052WAT     H112398   8.504   2.877   6.250
 4052WAT     H212399   8.595   2.742   6.233
 4053WAT      O12400   3.765   4.618   8.339
 4053WAT     H112401   3.737   4.543   8.279
 4053WAT     H212402   3.729   4.704   8.303
 4054WAT      O12403   8.030   1.862   8.125
 4054WAT     H112404   8.104   1.925   8.102
 4054WAT     H212405   7.953   1.912   8.164
 4055WAT      O12406   0.669   8.381   2.521
 4055WAT     H112407   0.694   8.331   2.604
 4055WAT     H212408   0.669   8.479   2.540
 4056WAT      O12409   8.444   2.042   8.491
 4056WAT     H112410   8.405   2.129   8.462
 4056WAT     H212411   8.431   1.974   8.419
 4057WAT      O12412   9.061   7.295   8.995
 4057WAT     H112413   9.156   7.271   9.015
 4057WAT     H212414   9.019   7.224   8.938
 4058WAT      O12415   2.269   5.852   7.100
 4058WAT     H112416   2.332   5.818   7.030
 4058WAT     H212417   2.269   5.952   7.099
 4059WAT      O12418   2.017   3.098   5.718
 4059WAT     H112419   2.036   3.162   5.643
 4059WAT     H212420   2.104   3.073   5.762
 4060WAT      O12421   3.442   7.019   4.375
 4060WAT     H112422   3.449   6.947   4.444
 4060WAT     H212423   3.421   6.978   4.287
 4061WAT      O12424   6.003   3.952   8.991
 4061WAT     H112425   6.019   3.864   8.944
 4061WAT     H212426   5.923   3.943   9.050
 4062WAT      O12427   9.244   3.235   6.680
 4062WAT     H112428   9.286   3.325   6.670
 4062WAT     H212429   9.253   3.205   6.775
 4063WAT      O12430   5.139   4.655   6.220
 4063WAT     H112431   5.069   4.714   6.180
 4063WAT     H212432   5.208   4.711   6.265
 4064WAT      O12433   0.997   6.484   1.468
 4064WAT     H112434   1.004   6.538   1.385
 4064WAT     H212435   0.917   6.512   1.521
 4065WAT      O12436   3.865   9.062   2.108
 4065WAT     H112437   3.884   9.062   2.206
 4065WAT     H212438   3.900   8.978   2.067
 4066WAT      O12439   3.370   5.625   0.354
 4066WAT     H112440   3.419   5.635   0.267
 4066WAT     H212441   3.434   5.592   0.424
 4067WAT      O12442   0.399   6.229   2.713
 4067WAT     H112443   0.391   6.257   2.617
 4067WAT     H212444   0.471   6.159   2.721
 4068WAT      O12445   0.211   8.541   9.093
 4068WAT     H112446   0.283   8.538   9.024
 4068WAT     H212447   0.176   8.449   9.110
 4069WAT      O12448   7.132   5.298   9.167
 4069WAT     H112449   7.182   5.315   9.082
 4069WAT     H212450   7.168   5.216   9.211
 4070WAT      O12451   6.608   6.644   2.810
 4070WAT     H112452   6.517   6.649   2.852
 4070WAT     H212453   6.651   6.734   2.813
 4071WAT      O12454   5.093   8.017   8.073
 4071WAT     H112455   5.104   7.919   8.093
 4071WAT     H212456   5.061   8.028   7.979
 4072WAT      O12457   5.851   2.762   3.076
 4072WAT     H112458   5.905   2.700   3.019
 4072WAT     H212459   5.910   2.836   3.110
 4073WAT      O12460   3.929   1.025   0.119
 4073WAT     H112461   3.842   1.036   0.168
 4073WAT     H212462   3.918   1.053   0.024
 4074WAT      O12463   8.630   7.715   0.422
 4074WAT     H112464   8.608   7.622   0.453
 4074WAT     H212465   8.689   7.710   0.341
 4075WAT      O12466   6.735   1.783   1.315
 4075WAT     H112467   6.806   1.832   1.265
 4075WAT     H212468   6.647   1.831   1.304
 4076WAT      O12469   1.270   6.434   0.167
 4076WAT     H112470   1.231   6.385   0.089
 4076WAT     H212471   1.308   6.368   0.232
 4077WAT      O12472   0.758   3.804   0.491
 4077WAT     H112473   0.689   3.771   0.427
 4077WAT     H212474   0.842   3.752   0.480
 4078WAT      O12475   3.891   6.017   0.410
 4078WAT     H112476   3.935   5.962   0.481
 4078WAT     H212477   3.794   6.030   0.433
 4079WAT      O12478   3.022   0.188   5.868
 4079WAT     H112479   3.076   0.271   5.855
 4079WAT     H212480   3.055   0.139   5.949
 4080WAT      O12481   6.427   1.583   5.771
 4080WAT     H112482   6.370   1.621   5.843
 4080WAT     H212483   6.508   1.640   5.759
 4081WAT      O12484   7.322   4.240   1.868
 4081WAT     H112485   7.345   4.204   1.959
 4081WAT     H212486   7.398   4.223   1.806
 4082WAT      O12487   6.913   8.813   2.526
 4082WAT     H112488   6.815   8.808   2.547
 4082WAT     H212489   6.942   8.727   2.484
 4083WAT      O12490   1.663   0.631   6.105
 4083WAT     H112491   1.688   0.624   6.009
 4083WAT     H212492   1.563   0.630   6.114
 4084WAT      O12493   4.902   1.198   2.117
 4084WAT     H112494   4.879   1.265   2.046
 4084WAT     H212495   4.819   1.154   2.149
 4085WAT      O12496   2.065   1.737   7.561
 4085WAT     H112497   2.150   1.742   7.510
 4085WAT     H212498   2.081   1.762   7.657
 4086WAT      O12499   7.754   4.698   7.329
 4086WAT     H112500   7.655   4.708   7.334
 4086WAT     H212501   7.789   4.664   7.416
 4087WAT      O12502   2.543   8.088   1.753
 4087WAT     H112503   2.448   8.095   1.722
 4087WAT     H212504   2.596   8.033   1.688
 4088WAT      O12505   0.651   3.484   8.095
 4088WAT     H112506   0.555   3.508   8.083
 4088WAT     H212507   0.670   3.397   8.049
 4089WAT      O12508   4.108   8.243   1.200
 4089WAT     H112509   4.041   8.181   1.159
 4089WAT     H212510   4.157   8.196   1.274
 4090WAT      O12511   3.323   2.777   3.811
 4090WAT     H112512   3.379   2.843   3.761
 4090WAT     H212513   3.267   2.726   3.745
 4091WAT      O12514   9.370   5.421   4.650
 4091WAT     H112515   9.417   5.333   4.640
 4091WAT     H212516   9.435   5.489   4.685
 4092WAT      O12517   6.832   3.582   6.400
 4092WAT     H112518   6.924   3.611   6.427
 4092WAT     H212519   6.836   3.531   6.315
 4093WAT      O12520   8.220   2.863   1.215
 4093WAT     H112521   8.277   2.929   1.264
 4093WAT     H212522   8.126   2.867   1.250
 4094WAT      O12523   6.230   6.036   4.477
 4094WAT     H112524   6.246   6.132   4.499
 4094WAT     H212525   6.138   6.025   4.439
 4095WAT      O12526   6.874   7.145   1.590
 4095WAT     H112527   6.901   7.079   1.660
 4095WAT     H212528   6.778   7.170   1.603
 4096WAT      O12529   3.516   3.489   8.087
 4096WAT     H112530   3.458   3.560   8.049
 4096WAT     H212531   3.528   3.416   8.020
 4097WAT      O12532   1.052   4.190   3.767
 4097WAT     H112533   1.056   4.108   3.824
 4097WAT     H212534   1.007   4.167   3.680
 4098WAT      O12535   2.771   5.757   8.486
 4098WAT     H112536   2.792   5.816   8.408
 4098WAT     H212537   2.849   5.696   8.502
 4099WAT      O12538   7.100   5.346   0.485
 4099WAT     H112539   7.186   5.362   0.435
 4099WAT     H212540   7.056   5.434   0.504
 4100WAT      O12541   1.333   4.996   8.552
 4100WAT     H112542   1.316   4.898   8.561
 4100WAT     H212543   1.317   5.041   8.639
 4101WAT      O12544   5.641   4.285   1.079
 4101WAT     H112545   5.647   4.299   0.980
 4101WAT     H212546   5.548   4.305   1.109
 4102WAT      O12547   3.362   6.797   2.255
 4102WAT     H112548   3.349   6.877   2.196
 4102WAT     H212549   3.398   6.721   2.200
 4103WAT      O12550   0.313   5.662   0.873
 4103WAT     H112551   0.287   5.757   0.853
 4103WAT     H212552   0.290   5.604   0.795
 4104WAT      O12553   1.014   0.850   3.643
 4104WAT     H112554   0.940   0.784   3.659
 4104WAT     H212555   1.017   0.915   3.718
 4105WAT      O12556   7.780   1.020   2.486
 4105WAT     H112557   7.790   0.971   2.400
 4105WAT     H212558   7.856   0.996   2.547
 4106WAT      O12559   9.633   8.750   5.559
 4106WAT     H112560   9.644   8.729   5.462
 4106WAT     H212561   9.560   8.818   5.571
 4107WAT      O12562   6.982   7.196   4.146
 4107WAT     H112563   7.069   7.228   4.109
 4107WAT     H212564   6.958   7.251   4.226
 4108WAT      O12565   1.485   8.410   3.212
 4108WAT     H112566   1.579   8.418   3.246
 4108WAT     H212567   1.427   8.367   3.281
 4109WAT      O12568   5.598   8.315   7.017
 4109WAT     H112569   5.512   8.271   7.042
 4109WAT     H212570   5.588   8.360   6.928
 4110WAT      O12571   4.174   4.093   7.256
 4110WAT     H112572   4.217   4.013   7.215
 4110WAT     H212573   4.206   4.102   7.351
 4111WAT      O12574   8.202   3.494   9.674
 4111WAT     H112575   8.217   3.588   9.643
 4111WAT     H212576   8.173   3.496   9.770
 4112WAT      O12577   9.265   9.005   6.409
 4112WAT     H112578   9.353   8.998   6.363
 4112WAT     H212579   9.246   8.920   6.459
 4113WAT      O12580   5.959   9.017   2.731
 4113WAT     H112581   5.940   9.016   2.632
 4113WAT     H212582   6.052   8.984   2.747
 4114WAT      O12583   2.783   4.414   9.506
 4114WAT     H112584   2.744   4.322   9.496
 4114WAT     H212585   2.871   4.418   9.460
 4115WAT      O12586   1.406   8.516   8.784
 4115WAT     H112587   1.451   8.602   8.760
 4115WAT     H212588   1.401   8.457   8.703
 4116WAT      O12589   1.843   9.242   4.526
 4116WAT     H112590   1.755   9.279   4.557
 4116WAT     H212591   1.837   9.142   4.522
 4117WAT      O12592   2.591   1.739   7.171
 4117WAT     H112593   2.514   1.703   7.119
 4117WAT     H212594   2.590   1.839   7.167
 4118WAT      O12595   7.211   2.625   3.926
 4118WAT     H112596   7.113   2.643   3.935
 4118WAT     H212597   7.239   2.558   3.995
 4119WAT      O12598   9.549   5.436   8.339
 4119WAT     H112599   9.585   5.522   8.375
 4119WAT     H212600   9.513   5.381   8.414
 4120WAT      O12601   3.823   1.590   1.918
 4120WAT     H112602   3.825   1.580   2.018
 4120WAT     H212603   3.740   1.638   1.891
 4121WAT      O12604   5.193   2.849   6.042
 4121WAT     H112605   5.284   2.822   6.011
 4121WAT     H212606   5.154   2.776   6.099
 4122WAT      O12607   5.638   4.281   0.794
 4122WAT     H112608   5.624   4.272   0.695
 4122WAT     H212609   5.735   4.280   0.814
 4123WAT      O12610   2.559   3.342   3.186
 4123WAT     H112611   2.610   3.399   3.250
 4123WAT     H212612   2.471   3.316   3.227
 4124WAT      O12613   4.896   6.481   4.868
 4124WAT     H112614   4.848   6.562   4.901
 4124WAT     H212615   4.839   6.433   4.802
 4125WAT      O12616   8.627   0.219   6.271
 4125WAT     H112617   8.554   0.158   6.242
 4125WAT     H212618   8.708   0.166   6.296
 4126WAT      O12619   2.862   3.704   7.757
 4126WAT     H112620   2.789   3.671   7.817
 4126WAT     H212621   2.857   3.655   7.669
 4127WAT      O12622   8.122   1.714   6.400
 4127WAT     H112623   8.104   1.803   6.441
 4127WAT     H212624   8.091   1.642   6.462
 4128WAT      O12625   8.088   3.029   0.631
 4128WAT     H112626   8.089   3.120   0.673
 4128WAT     H212627   8.173   3.014   0.580
 4129WAT      O12628   6.029   0.719   3.136
 4129WAT     H112629   6.017   0.633   3.086
 4129WAT     H212630   5.972   0.790   3.093
 4130WAT      O12631   3.520   0.179   3.528
 4130WAT     H112632   3.609   0.154   3.491
 4130WAT     H212633   3.499   0.274   3.506
 4131WAT      O12634   2.849   1.273   5.409
 4131WAT     H112635   2.750   1.279   5.402
 4131WAT     H212636   2.876   1.177   5.418
 4132WAT      O12637   1.516   3.474   7.499
 4132WAT     H112638   1.579   3.408   7.458
 4132WAT     H212639   1.513   3.557   7.442
 4133WAT      O12640   4.599   0.562   1.951
 4133WAT     H112641   4.575   0.581   1.856
 4133WAT     H212642   4.634   0.645   1.994
 4134WAT      O12643   4.766   7.670   2.081
 4134WAT     H112644   4.692   7.725   2.120
 4134WAT     H212645   4.846   7.728   2.065
 4135WAT      O12646   5.852   8.054   0.619
 4135WAT     H112647   5.894   8.136   0.582
 4135WAT     H212648   5.755   8.053   0.597
 4136WAT      O12649   5.206   4.399   6.149
 4136WAT     H112650   5.274   4.375   6.080
 4136WAT     H212651   5.188   4.497   6.145
 4137WAT      O12652   3.553   4.530   5.007
 4137WAT     H112653   3.543   4.615   4.957
 4137WAT     H212654   3.600   4.548   5.094
 4138WAT      O12655   6.304   3.042   1.623
 4138WAT     H112656   6.305   3.087   1.533
 4138WAT     H212657   6.222   2.986   1.631
 4139WAT      O12658   6.088   2.739   9.519
 4139WAT     H112659   6.016   2.754   9.587
 4139WAT     H212660   6.065   2.790   9.436
 4140WAT      O12661   4.826   7.708   1.015
 4140WAT     H112662   4.803   7.687   1.110
 4140WAT     H212663   4.901   7.774   1.012
 4141WAT      O12664   4.252   3.453   0.967
 4141WAT     H112665   4.195   3.449   1.049
 4141WAT     H212666   4.330   3.391   0.978
 4142WAT      O12667   6.979   0.052   3.622
 4142WAT     H112668   7.050   0.034   3.690
 4142WAT     H212669   6.964   0.151   3.615
 4143WAT      O12670   7.332   4.528   0.263
 4143WAT     H112671   7.240   4.490   0.275
 4143WAT     H212672   7.329   4.627   0.279
 4144WAT      O12673   8.207   1.004   1.509
 4144WAT     H112674   8.170   1.096   1.493
 4144WAT     H212675   8.298   0.998   1.469
 4145WAT      O12676   9.858   0.235   9.770
 4145WAT     H112677   9.850   0.189   9.858
 4145WAT     H212678   9.770   0.276   9.746
 4146WAT      O12679   3.966   1.873   3.390
 4146WAT     H112680   3.913   1.915   3.463
 4146WAT     H212681   4.063   1.893   3.403
 4147WAT      O12682   8.961   1.505   0.855
 4147WAT     H112683   8.953   1.551   0.767
 4147WAT     H212684   8.963   1.406   0.842
 4148WAT      O12685   3.331   2.177   3.196
 4148WAT     H112686   3.261   2.194   3.265
 4148WAT     H212687   3.320   2.241   3.120
 4149WAT      O12688   6.108   9.239   2.195
 4149WAT     H112689   6.171   9.200   2.128
 4149WAT     H212690   6.097   9.176   2.271
 4150WAT      O12691   8.096   0.820   0.229
 4150WAT     H112692   8.130   0.782   0.143
 4150WAT     H212693   7.998   0.805   0.235
 4151WAT      O12694   5.855   5.007   0.945
 4151WAT     H112695   5.877   5.004   1.042
 4151WAT     H212696   5.810   4.921   0.919
 4152WAT      O12697   3.577   8.643   7.828
 4152WAT     H112698   3.596   8.605   7.919
 4152WAT     H212699   3.524   8.727   7.838
 4153WAT      O12700   7.124   6.942   4.612
 4153WAT     H112701   7.133   6.854   4.658
 4153WAT     H212702   7.171   6.939   4.524
 4154WAT      O12703   8.887   8.555   4.841
 4154WAT     H112704   8.973   8.607   4.847
 4154WAT     H212705   8.823   8.604   4.782
 4155WAT      O12706   2.644   4.263   6.771
 4155WAT     H112707   2.644   4.196   6.696
 4155WAT     H212708   2.721   4.326   6.759
 4156WAT      O12709   6.744   5.106   2.953
 4156WAT     H112710   6.684   5.159   2.892
 4156WAT     H212711   6.791   5.035   2.899
 4157WAT      O12712   3.621   7.457   5.312
 4157WAT     H112713   3.575   7.368   5.311
 4157WAT     H212714   3.672   7.467   5.397
 4158WAT      O12715   4.304   9.800   4.471
 4158WAT     H112716   4.211   9.798   4.508
 4158WAT     H212717   4.347   9.887   4.494
 4159WAT      O12718   0.443   6.853   3.764
 4159WAT     H112719   0.507   6.841   3.840
 4159WAT     H212720   0.354   6.882   3.800
 4160WAT      O12721   5.301   6.663   9.181
 4160WAT     H112722   5.353   6.734   9.133
 4160WAT     H212723   5.204   6.689   9.184
 4161WAT      O12724   9.597   8.137   7.345
 4161WAT     H112725   9.562   8.055   7.300
 4161WAT     H212726   9.525   8.180   7.398
 4162WAT      O12727   6.611   5.035   4.915
 4162WAT     H112728   6.603   4.978   4.996
 4162WAT     H212729   6.658   4.984   4.842
 4163WAT      O12730   8.405   3.858   9.777
 4163WAT     H112731   8.355   3.853   9.691
 4163WAT     H212732   8.349   3.821   9.851
 4164WAT      O12733   8.830   8.176   4.609
 4164WAT     H112734   8.758   8.109   4.627
 4164WAT     H212735   8.897   8.137   4.546
 4165WAT      O12736   0.519   5.311   2.339
 4165WAT     H112737   0.581   5.240   2.305
 4165WAT     H212738   0.430   5.271   2.361
 4166WAT      O12739   3.002   7.128   3.952
 4166WAT     H112740   2.984   7.171   4.040
 4166WAT     H212741   3.043   7.038   3.967
 4167WAT      O12742   5.093   3.558   9.547
 4167WAT     H112743   5.047   3.549   9.635
 4167WAT     H212744   5.094   3.654   9.519
 4168WAT      O12745   3.121   5.243   8.422
 4168WAT     H112746   3.090   5.170   8.361
 4168WAT     H212747   3.156   5.319   8.367
 4169WAT      O12748   3.472   9.165   8.175
 4169WAT     H112749   3.397   9.224   8.145
 4169WAT     H212750   3.437   9.098   8.241
 4170WAT      O12751   8.143   5.395   9.352
 4170WAT     H112752   8.239   5.400   9.327
 4170WAT     H212753   8.134   5.348   9.440
 4171WAT      O12754   5.568   7.332   7.505
 4171WAT     H112755   5.656   7.319   7.552
 4171WAT     H212756   5.534   7.424   7.524
 4172WAT      O12757   4.464   3.879   2.369
 4172WAT     H112758   4.366   3.881   2.385
 4172WAT     H212759   4.512   3.856   2.454
 4173WAT      O12760   7.003   4.610   2.021
 4173WAT     H112761   6.980   4.695   2.067
 4173WAT     H212762   6.940   4.538   2.051
 4174WAT      O12763   7.559   7.046   4.459
 4174WAT     H112764   7.584   7.076   4.366
 4174WAT     H212765   7.550   6.947   4.460
 4175WAT      O12766   8.249   4.356   9.730
 4175WAT     H112767   8.175   4.288   9.729
 4175WAT     H212768   8.333   4.312   9.762
 4176WAT      O12769   8.943   2.785   4.884
 4176WAT     H112770   8.979   2.871   4.920
 4176WAT     H212771   9.006   2.748   4.816
 4177WAT      O12772   2.190   6.615   8.842
 4177WAT     H112773   2.132   6.692   8.817
 4177WAT     H212774   2.272   6.615   8.785
 4178WAT      O12775   9.060   1.212   1.602
 4178WAT     H112776   9.040   1.309   1.606
 4178WAT     H212777   9.066   1.183   1.507
 4179WAT      O12778   6.263   9.604   1.463
 4179WAT     H112779   6.292   9.511   1.442
 4179WAT     H212780   6.330   9.648   1.522
 4180WAT      O12781   0.476   2.274   3.624
 4180WAT     H112782   0.567   2.238   3.645
 4180WAT     H212783   0.435   2.310   3.708
 4181WAT      O12784   8.635   0.443   7.662
 4181WAT     H112785   8.721   0.447   7.712
 4181WAT     H212786   8.642   0.497   7.579
 4182WAT      O12787   4.321   0.839   7.647
 4182WAT     H112788   4.420   0.824   7.654
 4182WAT     H212789   4.301   0.890   7.564
 4183WAT      O12790   7.779   8.131   6.541
 4183WAT     H112791   7.738   8.046   6.509
 4183WAT     H212792   7.706   8.195   6.568
 4184WAT      O12793   8.559   8.997   8.124
 4184WAT     H112794   8.594   8.998   8.217
 4184WAT     H212795   8.485   9.065   8.116
 4185WAT      O12796   2.720   1.969   5.637
 4185WAT     H112797   2.639   2.026   5.654
 4185WAT     H212798   2.752   1.984   5.543
 4186WAT      O12799   3.163   0.386   7.776
 4186WAT     H112800   3.176   0.334   7.860
 4186WAT     H212801   3.068   0.415   7.768
 4187WAT      O12802   6.167   1.443   1.195
 4187WAT     H112803   6.106   1.369   1.224
 4187WAT     H212804   6.182   1.506   1.272
 4188WAT      O12805   2.766   3.273   9.768
 4188WAT     H112806   2.834   3.300   9.700
 4188WAT     H212807   2.753   3.174   9.764
 4189WAT      O12808   6.600   7.669   0.168
 4189WAT     H112809   6.581   7.710   0.079
 4189WAT     H212810   6.685   7.707   0.204
 4190WAT      O12811   5.677   4.233   7.579
 4190WAT     H112812   5.624   4.316   7.564
 4190WAT     H212813   5.771   4.258   7.604
 4191WAT      O12814   6.922   5.550   2.988
 4191WAT     H112815   6.879   5.490   3.055
 4191WAT     H212816   6.852   5.585   2.925
 4192WAT      O12817   5.744   9.445   8.701
 4192WAT     H112818   5.725   9.464   8.605
 4192WAT     H212819   5.813   9.508   8.735
 4193WAT      O12820   1.382   1.962   9.603
 4193WAT     H112821   1.395   1.981   9.506
 4193WAT     H212822   1.289   1.986   9.630
 4194WAT      O12823   5.879   5.376   3.363
 4194WAT     H112824   5.780   5.369   3.347
 4194WAT     H212825   5.898   5.363   3.460
 4195WAT      O12826   3.922   8.953   1.049
 4195WAT     H112827   4.017   8.961   1.019
 4195WAT     H212828   3.891   9.040   1.088
 4196WAT      O12829   6.734   0.210   9.302
 4196WAT     H112830   6.746   0.240   9.208
 4196WAT     H212831   6.754   0.113   9.310
 4197WAT      O12832   2.694   3.124   1.921
 4197WAT     H112833   2.700   3.042   1.979
 4197WAT     H212834   2.637   3.193   1.967
 4198WAT      O12835   7.599   6.850   1.379
 4198WAT     H112836   7.570   6.772   1.433
 4198WAT     H212837   7.689   6.832   1.339
 4199WAT      O12838   9.358   6.048   1.108
 4199WAT     H112839   9.335   5.972   1.047
 4199WAT     H212840   9.429   6.019   1.172
 4200WAT      O12841   3.924   6.895   8.032
 4200WAT     H112842   3.879   6.983   8.049
 4200WAT     H212843   3.948   6.852   8.118
 4201WAT      O12844   0.611   4.821   1.755
 4201WAT     H112845   0.615   4.742   1.695
 4201WAT     H212846   0.652   4.900   1.709
 4202WAT      O12847   5.636   3.882   9.528
 4202WAT     H112848   5.554   3.845   9.571
 4202WAT     H212849   5.711   3.816   9.539
 4203WAT      O12850   5.616   1.135   7.084
 4203WAT     H112851   5.593   1.163   6.991
 4203WAT     H212852   5.713   1.154   7.102
 4204WAT      O12853   2.461   7.034   2.970
 4204WAT     H112854   2.464   6.962   3.040
 4204WAT     H212855   2.507   7.116   3.004
 4205WAT      O12856   1.035   2.634   7.888
 4205WAT     H112857   0.971   2.675   7.953
 4205WAT     H212858   0.988   2.618   7.801
 4206WAT      O12859   2.957   3.348   6.146
 4206WAT     H112860   3.012   3.424   6.182
 4206WAT     H212861   2.865   3.380   6.125
 4207WAT      O12862   4.839   2.412   0.095
 4207WAT     H112863   4.777   2.490   0.091
 4207WAT     H212864   4.792   2.331   0.059
 4208WAT      O12865   9.617   4.566   4.920
 4208WAT     H112866   9.523   4.567   4.886
 4208WAT     H212867   9.616   4.545   5.018
 4209WAT      O12868   9.606   1.387   2.420
 4209WAT     H112869   9.612   1.455   2.346
 4209WAT     H212870   9.638   1.299   2.385
 4210WAT      O12871   6.388   6.868   0.471
 4210WAT     H112872   6.480   6.905   0.481
 4210WAT     H212873   6.390   6.769   0.483
 4211WAT      O12874   2.304   3.158   2.342
 4211WAT     H112875   2.309   3.081   2.278
 4211WAT     H212876   2.300   3.244   2.291
 4212WAT      O12877   1.206   2.429   3.585
 4212WAT     H112878   1.121   2.399   3.541
 4212WAT     H212879   1.238   2.512   3.540
 4213WAT      O12880  -0.000   9.425   0.544
 4213WAT     H112881   0.052   9.479   0.478
 4213WAT     H212882  -0.033   9.342   0.499
 4214WAT      O12883   4.947   4.629   6.396
 4214WAT     H112884   4.982   4.632   6.490
 4214WAT     H212885   5.024   4.623   6.332
 4215WAT      O12886   9.810   9.650   6.699
 4215WAT     H112887   9.722   9.602   6.693
 4215WAT     H212888   9.876   9.604   6.639
 4216WAT      O12889   2.445   6.111   8.982
 4216WAT     H112890   2.497   6.180   9.031
 4216WAT     H212891   2.347   6.133   8.988
 4217WAT      O12892   8.704   7.082   5.753
 4217WAT     H112893   8.751   7.100   5.667
 4217WAT     H212894   8.736   6.996   5.792
 4218WAT      O12895   6.881   1.735   6.819
 4218WAT     H112896   6.975   1.706   6.836
 4218WAT     H212897   6.880   1.829   6.786
 4219WAT      O12898   2.853   6.294   5.482
 4219WAT     H112899   2.846   6.279   5.580
 4219WAT     H212900   2.924   6.235   5.444
 4220WAT      O12901   8.068   2.371   7.439
 4220WAT     H112902   8.137   2.433   7.403
 4220WAT     H212903   8.039   2.308   7.366
 4221WAT      O12904   0.762   0.862   3.329
 4221WAT     H112905   0.859   0.839   3.325
 4221WAT     H212906   0.749   0.957   3.300
 4222WAT      O12907   4.641   1.298   8.293
 4222WAT     H112908   4.641   1.239   8.373
 4222WAT     H212909   4.679   1.248   8.215
 4223WAT      O12910   6.307   4.505   9.493
 4223WAT     H112911   6.380   4.455   9.447
 4223WAT     H212912   6.291   4.592   9.447
 4224WAT      O12913   7.857   3.600   9.156
 4224WAT     H112914   7.819   3.519   9.202
 4224WAT     H212915   7.919   3.571   9.083
 4225WAT      O12916   7.198   5.524   7.423
 4225WAT     H112917   7.103   5.535   7.449
 4225WAT     H212918   7.204   5.491   7.328
 4226WAT      O12919   3.573   4.379   2.310
 4226WAT     H112920   3.598   4.389   2.406
 4226WAT     H212921   3.494   4.318   2.302
 4227WAT      O12922   4.761   3.646   5.766
 4227WAT     H112923   4.701   3.691   5.699
 4227WAT     H212924   4.848   3.694   5.769
 4228WAT      O12925   2.918   4.259   6.994
 4228WAT     H112926   2.928   4.282   6.897
 4228WAT     H212927   3.000   4.288   7.044
 4229WAT      O12928   5.390   3.726   6.646
 4229WAT     H112929   5.474   3.777   6.626
 4229WAT     H212930   5.353   3.689   6.561
 4230WAT      O12931   0.589   3.229   9.539
 4230WAT     H112932   0.517   3.159   9.545
 4230WAT     H212933   0.554   3.315   9.577
 4231WAT      O12934   3.392   6.947   4.704
 4231WAT     H112935   3.371   6.989   4.793
 4231WAT     H212936   3.486   6.911   4.706
 4232WAT      O12937   8.478   1.748   8.687
 4232WAT     H112938   8.528   1.768   8.602
 4232WAT     H212939   8.453   1.833   8.732
 4233WAT      O12940   6.765   1.791   4.263
 4233WAT     H112941   6.770   1.696   4.294
 4233WAT     H212942   6.852   1.817   4.221
 4234WAT      O12943   8.745   8.382   2.934
 4234WAT     H112944   8.684   8.426   2.868
 4234WAT     H212945   8.833   8.361   2.890
 4235WAT      O12946   6.736   0.005   1.286
 4235WAT     H112947   6.717   0.084   1.228
 4235WAT     H212948   6.673   0.004   1.364
 4236WAT      O12949   7.185   5.395   7.816
 4236WAT     H112950   7.096   5.420   7.778
 4236WAT     H212951   7.243   5.361   7.743
 4237WAT      O12952   2.756   8.833   3.023
 4237WAT     H112953   2.799   8.756   3.070
 4237WAT     H212954   2.695   8.799   2.951
 4238WAT      O12955   5.756   5.523   1.693
 4238WAT     H112956   5.662   5.538   1.662
 4238WAT     H212957   5.816   5.591   1.650
 4239WAT      O12958   8.247   5.317   8.994
 4239WAT     H112959   8.295   5.355   9.073
 4239WAT     H212960   8.314   5.284   8.927
 4240WAT      O12961   5.100   0.360   2.408
 4240WAT     H112962   5.050   0.317   2.333
 4240WAT     H212963   5.065   0.327   2.496
 4241WAT      O12964   6.387   0.482   0.854
 4241WAT     H112965   6.381   0.453   0.950
 4241WAT     H212966   6.469   0.442   0.813
 4242WAT      O12967   3.063   2.728   1.056
 4242WAT     H112968   3.053   2.713   0.957
 4242WAT     H212969   3.036   2.821   1.079
 4243WAT      O12970   7.626   6.756   9.761
 4243WAT     H112971   7.694   6.774   9.833
 4243WAT     H212972   7.604   6.842   9.715
 4244WAT      O12973   0.623   0.907   0.135
 4244WAT     H112974   0.626   1.004   0.157
 4244WAT     H212975   0.672   0.890   0.050
 4245WAT      O12976   9.126   8.974   2.660
 4245WAT     H112977   9.205   9.014   2.705
 4245WAT     H212978   9.147   8.957   2.563
 4246WAT      O12979   1.703   8.396   4.904
 4246WAT     H112980   1.711   8.351   4.815
 4246WAT     H212981   1.741   8.489   4.898
 4247WAT      O12982   3.923   8.717   3.064
 4247WAT     H112983   3.878   8.628   3.057
 4247WAT     H212984   3.868   8.786   3.018
 4248WAT      O12985   4.892   8.114   8.218
 4248WAT     H112986   4.805   8.070   8.193
 4248WAT     H212987   4.967   8.069   8.169
 4249WAT      O12988   9.045   8.782   8.179
 4249WAT     H112989   9.046   8.880   8.194
 4249WAT     H212990   9.135   8.751   8.149
 4250WAT      O12991   3.199   6.794   6.606
 4250WAT     H112992   3.231   6.815   6.699
 4250WAT     H212993   3.254   6.845   6.540
 4251WAT      O12994   2.860   5.080   2.932
 4251WAT     H112995   2.855   5.155   2.999
 4251WAT     H212996   2.771   5.067   2.889
 4252WAT      O12997   6.157   3.077   9.192
 4252WAT     H112998   6.245   3.045   9.227
 4252WAT     H212999   6.145   3.048   9.097
 4253WAT      O13000   9.592   7.323   8.473
 4253WAT     H113001   9.597   7.233   8.430
 4253WAT     H213002   9.558   7.390   8.407
 4254WAT      O13003   8.776   4.475   0.721
 4254WAT     H113004   8.708   4.508   0.655
 4254WAT     H213005   8.852   4.433   0.671
 4255WAT      O13006   7.744   7.562   0.238
 4255WAT     H113007   7.829   7.509   0.236
 4255WAT     H213008   7.669   7.504   0.205
 4256WAT      O13009   1.755   6.950   5.898
 4256WAT     H113010   1.786   7.045   5.901
 4256WAT     H213011   1.835   6.890   5.905
 4257WAT      O13012   8.160   4.754   6.786
 4257WAT     H113013   8.128   4.737   6.879
 4257WAT     H213014   8.253   4.791   6.789
 4258WAT      O13015   6.876   2.528   9.749
 4258WAT     H113016   6.958   2.494   9.701
 4258WAT     H213017   6.881   2.627   9.757
 4259WAT      O13018   0.178   0.185   2.629
 4259WAT     H113019   0.149   0.276   2.602
 4259WAT     H213020   0.119   0.116   2.586
 4260WAT      O13021   1.069   8.552   5.367
 4260WAT     H113022   0.988   8.521   5.316
 4260WAT     H213023   1.117   8.472   5.404
 4261WAT      O13024   7.769   6.035   7.759
 4261WAT     H113025   7.766   6.099   7.682
 4261WAT     H213026   7.697   5.967   7.749
 4262WAT      O13027   3.319   0.891   4.090
 4262WAT     H113028   3.391   0.904   4.157
 4262WAT     H213029   3.265   0.975   4.081
 4263WAT      O13030   9.100   3.735   2.291
 4263WAT     H113031   9.150   3.688   2.218
 4263WAT     H213032   9.165   3.783   2.350
 4264WAT      O13033   7.714   0.069   8.200
 4264WAT     H113034   7.808   0.036   8.202
 4264WAT     H213035   7.653  -0.000   8.238
 4265WAT      O13036   9.666   5.464   1.321
 4265WAT     H113037   9.701   5.394   1.258
 4265WAT     H213038   9.584   5.430   1.366
 4266WAT      O13039   7.845   9.537   8.118
 4266WAT     H113040   7.890   9.456   8.153
 4266WAT     H213041   7.754   9.513   8.084
 4267WAT      O13042   5.760   7.761   4.442
 4267WAT     H113043   5.736   7.851   4.405
 4267WAT     H213044   5.687   7.696   4.422
 4268WAT      O13045   2.936   5.925   3.785
 4268WAT     H113046   2.853   5.978   3.768
 4268WAT     H213047   2.977   5.954   3.871
 4269WAT      O13048   8.753   7.458   7.772
 4269WAT     H113049   8.653   7.460   7.776
 4269WAT     H213050   8.787   7.378   7.820
 4270WAT      O13051   2.543   7.410   8.890
 4270WAT     H113052   2.601   7.343   8.937
 4270WAT     H213053   2.456   7.367   8.867
 4271WAT      O13054   2.216   7.575   5.115
 4271WAT     H113055   2.178   7.546   5.027
 4271WAT     H213056   2.280   7.506   5.147
 4272WAT      O13057   5.153   6.797   2.912
 4272WAT     H113058   5.231   6.755   2.959
 4272WAT     H213059   5.175   6.807   2.815
 4273WAT      O13060   0.245   1.350   9.426
 4273WAT     H113061   0.280   1.442   9.407
 4273WAT     H213062   0.152   1.343   9.391
 4274WAT      O13063   8.877   8.216   5.777
 4274WAT     H113064   8.837   8.234   5.867
 4274WAT     H213065   8.807   8.180   5.715
 4275WAT      O13066   1.225   3.560   1.239
 4275WAT     H113067   1.126   3.548   1.244
 4275WAT     H213068   1.269   3.501   1.306
 4276WAT      O13069   2.431   6.995   1.562
 4276WAT     H113070   2.512   6.936   1.566
 4276WAT     H213071   2.394   6.995   1.469
 4277WAT      O13072   2.835   2.552   0.396
 4277WAT     H113073   2.904   2.575   0.465
 4277WAT     H213074   2.755   2.514   0.441
 4278WAT      O13075   7.932   6.996   8.069
 4278WAT     H113076   7.850   7.050   8.048
 4278WAT     H213077   7.990   7.047   8.132
 4279WAT      O13078   2.868   4.316   0.751
 4279WAT     H113079   2.836   4.227   0.782
 4279WAT     H213080   2.959   4.334   0.789
 4280WAT      O13081   5.403   2.427   2.014
 4280WAT     H113082   5.485   2.375   2.037
 4280WAT     H213083   5.327   2.397   2.071
 4281WAT      O13084   6.674   3.322   6.446
 4281WAT     H113085   6.586   3.308   6.401
 4281WAT     H213086   6.694   3.420   6.451
 4282WAT      O13087   0.218   6.247   1.384
 4282WAT     H113088   0.179   6.269   1.295
 4282WAT     H213089   0.216   6.148   1.397
 4283WAT      O13090   7.770   1.730   6.854
 4283WAT     H113091   7.801   1.742   6.948
 4283WAT     H213092   7.802   1.641   6.820
 4284WAT      O13093   1.541   5.612   2.390
 4284WAT     H113094   1.630   5.640   2.354
 4284WAT     H213095   1.484   5.579   2.316
 4285WAT      O13096   6.010   9.327   6.750
 4285WAT     H113097   5.946   9.381   6.695
 4285WAT     H213098   5.975   9.234   6.760
 4286WAT      O13099   3.720   6.552   5.396
 4286WAT     H113100   3.792   6.590   5.338
 4286WAT     H213101   3.642   6.614   5.396
 4287WAT      O13102   3.495   8.670   7.546
 4287WAT     H113103   3.528   8.722   7.625
 4287WAT     H213104   3.561   8.600   7.523
 4288WAT      O13105   5.180   5.782   5.642
 4288WAT     H113106   5.209   5.820   5.553
 4288WAT     H213107   5.136   5.694   5.628
 4289WAT      O13108   2.760   8.549   9.058
 4289WAT     H113109   2.731   8.508   8.971
 4289WAT     H213110   2.743   8.647   9.055
 4290WAT      O13111   9.044   8.975   5.743
 4290WAT     H113112   8.998   8.896   5.701
 4290WAT     H213113   9.006   8.991   5.834
 4291WAT      O13114   9.819   2.076   4.868
 4291WAT     H113115   9.759   2.150   4.900
 4291WAT     H213116   9.764   1.997   4.843
 4292WAT      O13117   7.683   6.060   6.141
 4292WAT     H113118   7.611   6.114   6.097
 4292WAT     H213119   7.643   6.005   6.214
 4293WAT      O13120   3.519   5.093   3.755
 4293WAT     H113121   3.488   5.183   3.723
 4293WAT     H213122   3.541   5.099   3.852
 4294WAT      O13123   8.666   1.033   2.994
 4294WAT     H113124   8.567   1.037   2.977
 4294WAT     H213125   8.682   1.016   3.091
 4295WAT      O13126   4.062   9.068   1.450
 4295WAT     H113127   3.978   9.082   1.504
 4295WAT     H213128   4.141   9.094   1.505
 4296WAT      O13129   6.330   3.307   0.164
 4296WAT     H113130   6.343   3.324   0.066
 4296WAT     H213131   6.233   3.317   0.187
 4297WAT      O13132   0.627   6.583   8.662
 4297WAT     H113133   0.573   6.637   8.726
 4297WAT     H213134   0.681   6.515   8.712
 4298WAT      O13135   2.384   5.552   1.960
 4298WAT     H113136   2.436   5.514   2.036
 4298WAT     H213137   2.286   5.540   1.977
 4299WAT      O13138   7.575   0.529   4.332
 4299WAT     H113139   7.611   0.440   4.360
 4299WAT     H213140   7.650   0.590   4.310
 4300WAT      O13141   4.492   5.910   3.502
 4300WAT     H113142   4.445   5.960   3.574
 4300WAT     H213143   4.424   5.872   3.438
 4301WAT      O13144   1.620   4.949   8.056
 4301WAT     H113145   1.674   4.866   8.071
 4301WAT     H213146   1.562   4.967   8.135
 4302WAT      O13147   3.196   3.538   3.445
 4302WAT     H113148   3.279   3.484   3.458
 4302WAT     H213149   3.137   3.495   3.377
 4303WAT      O13150   9.420   4.238   1.829
 4303WAT     H113151   9.393   4.296   1.906
 4303WAT     H213152   9.446   4.295   1.751
 4304WAT      O13153   6.664   6.889   3.298
 4304WAT     H113154   6.725   6.829   3.350
 4304WAT     H213155   6.595   6.834   3.252
 4305WAT      O13156   6.644   7.817   5.563
 4305WAT     H113157   6.731   7.803   5.516
 4305WAT     H213158   6.650   7.898   5.621
 4306WAT      O13159   7.366   2.670   4.357
 4306WAT     H113160   7.413   2.585   4.379
 4306WAT     H213161   7.269   2.661   4.379
 4307WAT      O13162   7.678   1.292   3.090
 4307WAT     H113163   7.702   1.291   2.993
 4307WAT     H213164   7.579   1.302   3.100
 4308WAT      O13165   5.968   8.745   3.601
 4308WAT     H113166   5.896   8.675   3.600
 4308WAT     H213167   5.945   8.815   3.669
 4309WAT      O13168   6.822   2.025   2.800
 4309WAT     H113169   6.887   1.960   2.759
 4309WAT     H213170   6.817   2.107   2.743
 4310WAT      O13171   8.020   2.869   8.006
 4310WAT     H113172   7.970   2.856   7.921
 4310WAT     H213173   7.958   2.863   8.084
 4311WAT      O13174   9.761   2.344   4.994
 4311WAT     H113175   9.857   2.367   4.977
 4311WAT     H213176   9.756   2.273   5.064
 4312WAT      O13177   4.708   5.295   2.427
 4312WAT     H113178   4.668   5.209   2.456
 4312WAT     H213179   4.692   5.365   2.497
 4313WAT      O13180   7.249   6.350   2.734
 4313WAT     H113181   7.253   6.414   2.658
 4313WAT     H213182   7.154   6.339   2.764
 4314WAT      O13183   7.092   6.755   4.288
 4314WAT     H113184   7.086   6.684   4.359
 4314WAT     H213185   7.169   6.815   4.309
 4315WAT      O13186   5.505   1.847   4.653
 4315WAT     H113187   5.561   1.883   4.577
 4315WAT     H213188   5.415   1.890   4.650
 4316WAT      O13189   3.237   0.910   8.930
 4316WAT     H113190   3.184   0.854   8.867
 4316WAT     H213191   3.259   0.856   9.012
 4317WAT      O13192   6.663   8.710   1.183
 4317WAT     H113193   6.761   8.726   1.199
 4317WAT     H213194   6.609   8.772   1.240
 4318WAT      O13195   1.777   0.955   5.292
 4318WAT     H113196   1.782   0.923   5.197
 4318WAT     H213197   1.745   1.050   5.293
 4319WAT      O13198   8.099   1.043   7.299
 4319WAT     H113199   8.106   1.042   7.199
 4319WAT     H213200   8.190   1.060   7.338
 4320WAT      O13201   1.800   0.278   5.971
 4320WAT     H113202   1.830   0.373   5.972
 4320WAT     H213203   1.751   0.259   5.886
 4321WAT      O13204   5.076   4.289   0.615
 4321WAT     H113205   5.006   4.360   0.627
 4321WAT     H213206   5.166   4.332   0.613
 4322WAT      O13207   6.492   6.071   9.847
 4322WAT     H113208   6.556   6.045   9.776
 4322WAT     H213209   6.542   6.107   9.926
 4323WAT      O13210   7.639   5.205   9.427
 4323WAT     H113211   7.569   5.262   9.468
 4323WAT     H213212   7.686   5.256   9.354
 4324WAT      O13213   0.739   7.450   4.382
 4324WAT     H113214   0.702   7.477   4.293
 4324WAT     H213215   0.747   7.530   4.441
 4325WAT      O13216   2.893   0.380   6.364
 4325WAT     H113217   2.944   0.298   6.390
 4325WAT     H213218   2.809   0.386   6.418
 4326WAT      O13219   4.617   0.300   5.394
 4326WAT     H113220   4.639   0.340   5.305
 4326WAT     H213221   4.695   0.310   5.455
 4327WAT      O13222   1.079   1.240   2.670
 4327WAT     H113223   1.076   1.141   2.684
 4327WAT     H213224   1.053   1.262   2.576
 4328WAT      O13225   2.364   4.710   2.298
 4328WAT     H113226   2.419   4.766   2.360
 4328WAT     H213227   2.415   4.628   2.273
 4329WAT      O13228   0.338   7.665   1.078
 4329WAT     H113229   0.429   7.704   1.094
 4329WAT     H213230   0.343   7.602   1.000
 4330WAT      O13231   3.325   3.577   9.172
 4330WAT     H113232   3.346   3.662   9.221
 4330WAT     H213233   3.358   3.583   9.078
 4331WAT      O13234   5.280   1.913   3.534
 4331WAT     H113235   5.353   1.917   3.603
 4331WAT     H213236   5.304   1.846   3.464
 4332WAT      O13237   5.916   0.857   6.183
 4332WAT     H113238   5.868   0.933   6.140
 4332WAT     H213239   5.953   0.886   6.271
 4333WAT      O13240   3.176   4.523   1.528
 4333WAT     H113241   3.129   4.590   1.472
 4333WAT     H213242   3.142   4.528   1.622
 4334WAT      O13243   1.070   0.344   8.949
 4334WAT     H113244   1.018   0.401   9.012
 4334WAT     H213245   1.047   0.248   8.965
 4335WAT      O13246   8.669   6.674   8.364
 4335WAT     H113247   8.571   6.670   8.344
 4335WAT     H213248   8.681   6.682   8.463
 4336WAT      O13249   9.558   3.276   9.505
 4336WAT     H113250   9.565   3.373   9.529
 4336WAT     H213251   9.510   3.226   9.577
 4337WAT      O13252   7.208   0.932   7.571
 4337WAT     H113253   7.254   0.912   7.485
 4337WAT     H213254   7.249   1.013   7.613
 4338WAT      O13255   4.052   7.850   7.259
 4338WAT     H113256   4.109   7.898   7.326
 4338WAT     H213257   3.956   7.871   7.276
 4339WAT      O13258   2.082   6.007   7.894
 4339WAT     H113259   2.023   5.930   7.919
 4339WAT     H213260   2.033   6.068   7.831
 4340WAT      O13261   5.680   3.993   2.202
 4340WAT     H113262   5.719   3.904   2.223
 4340WAT     H213263   5.738   4.040   2.136
 4341WAT      O13264   3.385   0.707   7.768
 4341WAT     H113265   3.388   0.721   7.669
 4341WAT     H213266   3.471   0.738   7.809
 4342WAT      O13267   9.744   0.145   6.445
 4342WAT     H113268   9.673   0.076   6.456
 4342WAT     H213269   9.774   0.147   6.350
 4343WAT      O13270   6.226   2.183   1.277
 4343WAT     H113271   6.216   2.241   1.196
 4343WAT     H213272   6.305   2.123   1.265
 4344WAT      O13273   4.023   7.633   1.599
 4344WAT     H113274   3.983   7.589   1.680
 4344WAT     H213275   4.110   7.676   1.625
 4345WAT      O13276   9.233   7.317   6.704
 4345WAT     H113277   9.330   7.327   6.727
 4345WAT     H213278   9.178   7.331   6.787
 4346WAT      O13279   9.459   8.328   7.499
 4346WAT     H113280   9.523   8.403   7.478
 4346WAT     H213281   9.464   8.307   7.597
 4347WAT      O13282   8.340   0.505   2.240
 4347WAT     H113283   8.276   0.429   2.227
 4347WAT     H213284   8.410   0.503   2.168
 4348WAT      O13285   2.654   6.363   8.177
 4348WAT     H113286   2.561   6.397   8.167
 4348WAT     H213287   2.675   6.300   8.102
 4349WAT      O13288   8.617   3.528   0.541
 4349WAT     H113289   8.613   3.569   0.632
 4349WAT     H213290   8.699   3.471   0.533
 4350WAT      O13291   5.354   5.973   2.700
 4350WAT     H113292   5.306   5.949   2.616
 4350WAT     H213293   5.287   5.987   2.773
 4351WAT      O13294   6.011   0.268   8.317
 4351WAT     H113295   6.036   0.341   8.254
 4351WAT     H213296   6.021   0.300   8.411
 4352WAT      O13297   5.368   5.382   1.417
 4352WAT     H113298   5.419   5.429   1.345
 4352WAT     H213299   5.428   5.318   1.465
 4353WAT      O13300   6.279   4.498   7.536
 4353WAT     H113301   6.181   4.497   7.515
 4353WAT     H213302   6.294   4.465   7.629
 4354WAT      O13303   9.308   1.689   6.773
 4354WAT     H113304   9.338   1.687   6.868
 4354WAT     H213305   9.317   1.782   6.737
 4355WAT      O13306   9.057   1.737   5.751
 4355WAT     H113307   9.123   1.694   5.689
 4355WAT     H213308   8.984   1.672   5.772
 4356WAT      O13309   4.590   5.051   7.845
 4356WAT     H113310   4.493   5.028   7.853
 4356WAT     H213311   4.606   5.144   7.877
 4357WAT      O13312   1.827   3.814   1.114
 4357WAT     H113313   1.798   3.875   1.040
 4357WAT     H213314   1.767   3.734   1.116
 4358WAT      O13315   1.966   2.011   8.167
 4358WAT     H113316   1.962   2.101   8.123
 4358WAT     H213317   1.886   1.958   8.140
 4359WAT      O13318   0.486   0.299   1.573
 4359WAT     H113319   0.505   0.387   1.528
 4359WAT     H213320   0.559   0.278   1.637
 4360WAT      O13321   6.828   5.159   6.917
 4360WAT     H113322   6.872   5.091   6.859
 4360WAT     H213323   6.734   5.173   6.886
 4361WAT      O13324   0.853   4.293   4.547
 4361WAT     H113325   0.771   4.327   4.502
 4361WAT     H213326   0.927   4.360   4.536
 4362WAT      O13327   8.679   6.011   0.042
 4362WAT     H113328   8.768   6.016   0.089
 4362WAT     H213329   8.692   5.972  -0.049
 4363WAT      O13330   1.911   7.978   0.729
 4363WAT     H113331   1.958   7.951   0.814
 4363WAT     H213332   1.829   7.922   0.718
 4364WAT      O13333   4.662   2.842   8.452
 4364WAT     H113334   4.655   2.742   8.446
 4364WAT     H213335   4.736   2.873   8.392
 4365WAT      O13336   3.330   8.873   1.073
 4365WAT     H113337   3.281   8.810   1.014
 4365WAT     H213338   3.426   8.847   1.079
 4366WAT      O13339   1.369   7.020   4.315
 4366WAT     H113340   1.342   7.062   4.228
 4366WAT     H213341   1.353   6.922   4.311
 4367WAT      O13342   9.539   7.755   3.960
 4367WAT     H113343   9.463   7.709   3.915
 4367WAT     H213344   9.608   7.781   3.893
 4368WAT      O13345   2.843   9.302   2.809
 4368WAT     H113346   2.786   9.319   2.729
 4368WAT     H213347   2.835   9.378   2.873
 4369WAT      O13348   1.554   9.251   1.413
 4369WAT     H113349   1.563   9.326   1.348
 4369WAT     H213350   1.457   9.225   1.420
 4370WAT      O13351   7.359   9.287   5.603
 4370WAT     H113352   7.335   9.260   5.697
 4370WAT     H213353   7.342   9.210   5.541
 4371WAT      O13354   7.710   9.202   2.962
 4371WAT     H113355   7.721   9.164   2.870
 4371WAT     H213356   7.635   9.268   2.963
 4372WAT      O13357   8.866   7.670   7.922
 4372WAT     H113358   8.843   7.592   7.863
 4372WAT     H213359   8.883   7.637   8.015
 4373WAT      O13360   0.241   4.410   2.474
 4373WAT     H113361   0.300   4.339   2.512
 4373WAT     H213362   0.287   4.452   2.396
 4374WAT      O13363   1.065   1.650   3.455
 4374WAT     H113364   1.087   1.571   3.513
 4374WAT     H213365   1.106   1.732   3.493
 4375WAT      O13366   3.185   1.240   2.240
 4375WAT     H113367   3.263   1.241   2.303
 4375WAT     H213368   3.212   1.197   2.154
 4376WAT      O13369   1.254   3.680   4.902
 4376WAT     H113370   1.188   3.678   4.978
 4376WAT     H213371   1.294   3.589   4.891
 4377WAT      O13372   3.417   0.604   8.941
 4377WAT     H113373   3.377   0.654   9.018
 4377WAT     H213374   3.344   0.578   8.877
 4378WAT      O13375   5.260   7.787   9.443
 4378WAT     H113376   5.272   7.886   9.452
 4378WAT     H213377   5.248   7.746   9.533
 4379WAT      O13378   2.359   4.871   6.660
 4379WAT     H113379   2.307   4.859   6.575
 4379WAT     H213380   2.405   4.786   6.684
 4380WAT      O13381   3.801   6.783   9.537
 4380WAT     H113382   3.801   6.693   9.581
 4380WAT     H213383   3.779   6.853   9.605
 4381WAT      O13384   5.525   0.591   1.397
 4381WAT     H113385   5.550   0.494   1.403
 4381WAT     H213386   5.600   0.643   1.357
 4382WAT      O13387   8.420   3.494   2.831
 4382WAT     H113388   8.443   3.456   2.921
 4382WAT     H213389   8.322   3.484   2.815
 4383WAT      O13390   7.690   8.264   0.172
 4383WAT     H113391   7.723   8.181   0.127
 4383WAT     H213392   7.695   8.341   0.108
 4384WAT      O13393   7.587   7.429   6.595
 4384WAT     H113394   7.538   7.396   6.514
 4384WAT     H213395   7.561   7.375   6.675
 4385WAT      O13396   5.583   2.819   4.725
 4385WAT     H113397   5.534   2.898   4.688
 4385WAT     H213398   5.680   2.842   4.734
 4386WAT      O13399   3.850   8.214   3.932
 4386WAT     H113400   3.794   8.290   3.900
 4386WAT     H213401   3.915   8.247   4.000
 4387WAT      O13402   0.097   1.849   2.415
 4387WAT     H113403   0.033   1.926   2.413
 4387WAT     H213404   0.045   1.763   2.420
 4388WAT      O13405   9.448   9.290   2.641
 4388WAT     H113406   9.522   9.342   2.683
 4388WAT     H213407   9.368   9.349   2.631
 4389WAT      O13408   3.185   5.666   1.530
 4389WAT     H113409   3.254   5.623   1.472
 4389WAT     H213410   3.220   5.676   1.623
 4390WAT      O13411   8.255   8.116   8.954
 4390WAT     H113412   8.274   8.018   8.941
 4390WAT     H213413   8.333   8.158   9.002
 4391WAT      O13414   2.955   1.575   3.710
 4391WAT     H113415   2.894   1.628   3.769
 4391WAT     H213416   3.040   1.627   3.694
 4392WAT      O13417   4.418   7.839   0.931
 4392WAT     H113418   4.372   7.921   0.964
 4392WAT     H213419   4.439   7.849   0.833
 4393WAT      O13420   0.848   2.634   0.350
 4393WAT     H113421   0.882   2.654   0.258
 4393WAT     H213422   0.925   2.625   0.413
 4394WAT      O13423   0.072   4.805   3.185
 4394WAT     H113424  -0.028   4.803   3.187
 4394WAT     H213425   0.104   4.888   3.140
 4395WAT      O13426   2.589   9.116   0.735
 4395WAT     H113427   2.612   9.209   0.766
 4395WAT     H213428   2.640   9.050   0.790
 4396WAT      O13429   1.813   0.906   7.708
 4396WAT     H113430   1.848   0.853   7.786
 4396WAT     H213431   1.883   0.913   7.638
 4397WAT      O13432   5.204   5.130   0.726
 4397WAT     H113433   5.252   5.048   0.758
 4397WAT     H213434   5.206   5.200   0.797
 4398WAT      O13435   4.170   2.021   5.431
 4398WAT     H113436   4.202   1.929   5.411
 4398WAT     H213437   4.210   2.053   5.516
 4399WAT      O13438   9.000   8.611   2.988
 4399WAT     H113439   9.012   8.513   2.970
 4399WAT     H213440   8.908   8.638   2.962
 4400WAT      O13441   6.424   2.685   2.288
 4400WAT     H113442   6.408   2.647   2.379
 4400WAT     H213443   6.499   2.637   2.244
 4401WAT      O13444   1.502   6.397   5.199
 4401WAT     H113445   1.558   6.362   5.274
 4401WAT     H213446   1.525   6.350   5.114
 4402WAT      O13447   7.540   4.302   5.465
 4402WAT     H113448   7.632   4.334   5.488
 4402WAT     H213449   7.472   4.361   5.509
 4403WAT      O13450   7.391   9.217   6.580
 4403WAT     H113451   7.347   9.290   6.528
 4403WAT     H213452   7.477   9.251   6.618
 4404WAT      O13453   6.646   4.766   6.790
 4404WAT     H113454   6.701   4.715   6.724
 4404WAT     H213455   6.680   4.748   6.882
 4405WAT      O13456   5.516   8.752   2.430
 4405WAT     H113457   5.513   8.779   2.333
 4405WAT     H213458   5.512   8.652   2.436
 4406WAT      O13459   3.175   1.998   4.625
 4406WAT     H113460   3.076   2.002   4.629
 4406WAT     H213461   3.209   1.936   4.696
 4407WAT      O13462   0.027   8.409   7.293
 4407WAT     H113463  -0.009   8.320   7.264
 4407WAT     H213464   0.102   8.394   7.358
 4408WAT      O13465   5.985   1.774   8.823
 4408WAT     H113466   6.054   1.717   8.777
 4408WAT     H213467   5.983   1.752   8.920
 4409WAT      O13468   2.854   0.548   9.084
 4409WAT     H113469   2.884   0.493   9.162
 4409WAT     H213470   2.869   0.645   9.103
 4410WAT      O13471   4.751   5.787   9.797
 4410WAT     H113472   4.740   5.689   9.812
 4410WAT     H213473   4.840   5.804   9.754
 4411WAT      O13474   0.514   3.919   0.908
 4411WAT     H113475   0.442   3.902   0.840
 4411WAT     H213476   0.556   3.832   0.934
 4412WAT      O13477   8.486   0.863   8.143
 4412WAT     H113478   8.464   0.957   8.171
 4412WAT     H213479   8.485   0.804   8.224
 4413WAT      O13480   2.318   3.766   9.887
 4413WAT     H113481   2.371   3.747   9.969
 4413WAT     H213482   2.221   3.760   9.908
 4414WAT      O13483   9.209   7.485   5.716
 4414WAT     H113484   9.134   7.446   5.769
 4414WAT     H213485   9.177   7.564   5.665
 4415WAT      O13486   0.462   3.212   0.194
 4415WAT     H113487   0.405   3.291   0.174
 4415WAT     H213488   0.410   3.128   0.181
 4416WAT      O13489   4.231   1.656   6.700
 4416WAT     H113490   4.301   1.635   6.632
 4416WAT     H213491   4.187   1.743   6.677
 4417WAT      O13492   0.738   3.102   3.749
 4417WAT     H113493   0.675   3.174   3.718
 4417WAT     H213494   0.815   3.095   3.685
 4418WAT      O13495   8.938   9.340   6.065
 4418WAT     H113496   9.001   9.404   6.021
 4418WAT     H213497   8.941   9.355   6.164
 4419WAT      O13498   5.029   4.107   6.594
 4419WAT     H113499   5.034   4.029   6.532
 4419WAT     H213500   5.085   4.090   6.674
 4420WAT      O13501   3.337   5.299   0.991
 4420WAT     H113502   3.366   5.285   1.086
 4420WAT     H213503   3.249   5.347   0.990
 4421WAT      O13504   7.017   2.716   8.719
 4421WAT     H113505   7.002   2.798   8.664
 4421WAT     H213506   7.085   2.657   8.675
 4422WAT      O13507   7.357   0.125   9.877
 4422WAT     H113508   7.419   0.051   9.853
 4422WAT     H213509   7.367   0.147   9.973
 4423WAT      O13510   7.761   4.217   7.972
 4423WAT     H113511   7.810   4.284   8.027
 4423WAT     H213512   7.684   4.260   7.927
 4424WAT      O13513   8.380   0.659   1.537
 4424WAT     H113514   8.408   0.697   1.449
 4424WAT     H213515   8.315   0.584   1.521
 4425WAT      O13516   8.084   4.880   1.980
 4425WAT     H113517   8.115   4.975   1.979
 4425WAT     H213518   8.144   4.826   2.039
 4426WAT      O13519   5.059   9.408   9.828
 4426WAT     H113520   5.100   9.322   9.797
 4426WAT     H213521   5.060   9.411   9.928
 4427WAT      O13522   8.879   7.963   8.883
 4427WAT     H113523   8.865   7.882   8.940
 4427WAT     H213524   8.805   8.029   8.900
 4428WAT      O13525   2.975   0.891   2.655
 4428WAT     H113526   2.913   0.871   2.579
 4428WAT     H213527   2.979   0.812   2.716
 4429WAT      O13528   1.807   1.625   0.123
 4429WAT     H113529   1.852   1.594   0.039
 4429WAT     H213530   1.714   1.588   0.126
 4430WAT      O13531   2.242   7.500   9.663
 4430WAT     H113532   2.280   7.469   9.749
 4430WAT     H213533   2.269   7.595   9.647
 4431WAT      O13534   5.466   6.911   2.774
 4431WAT     H113535   5.523   6.834   2.744
 4431WAT     H213536   5.452   6.905   2.873
 4432WAT      O13537   5.982   6.595   8.477
 4432WAT     H113538   5.933   6.674   8.442
 4432WAT     H213539   5.936   6.511   8.448
 4433WAT      O13540   5.875   6.799   9.450
 4433WAT     H113541   5.888   6.809   9.352
 4433WAT     H213542   5.876   6.889   9.493
 4434WAT      O13543   6.838   7.769   3.655
 4434WAT     H113544   6.833   7.841   3.723
 4434WAT     H213545   6.758   7.775   3.595
 4435WAT      O13546   5.931   2.874   5.962
 4435WAT     H113547   6.027   2.849   5.973
 4435WAT     H213548   5.904   2.864   5.866
 4436WAT      O13549   0.079   6.191   2.256
 4436WAT     H113550   0.017   6.255   2.300
 4436WAT     H213551   0.093   6.219   2.161
 4437WAT      O13552   2.550   0.432   8.137
 4437WAT     H113553   2.550   0.401   8.232
 4437WAT     H213554   2.461   0.471   8.115
 4438WAT      O13555   7.592   3.546   4.673
 4438WAT     H113556   7.618   3.571   4.579
 4438WAT     H213557   7.509   3.490   4.671
 4439WAT      O13558   8.350   1.389   9.272
 4439WAT     H113559   8.298   1.331   9.209
 4439WAT     H213560   8.443   1.354   9.280
 4440WAT      O13561   8.598   6.032   6.432
 4440WAT     H113562   8.603   5.934   6.412
 4440WAT     H213563   8.690   6.069   6.440
 4441WAT      O13564   3.061   7.542   7.918
 4441WAT     H113565   3.001   7.473   7.959
 4441WAT     H213566   3.095   7.604   7.988
 4442WAT      O13567   7.032   9.739   9.199
 4442WAT     H113568   7.082   9.658   9.170
 4442WAT     H213569   6.936   9.716   9.215
 4443WAT      O13570   4.811   1.726   2.948
 4443WAT     H113571   4.761   1.747   2.864
 4443WAT     H213572   4.766   1.649   2.994
 4444WAT      O13573   4.486   6.071   3.006
 4444WAT     H113574   4.398   6.050   3.049
 4444WAT     H213575   4.557   6.077   3.076
 4445WAT      O13576   1.730   2.682   7.651
 4445WAT     H113577   1.727   2.663   7.749
 4445WAT     H213578   1.722   2.596   7.600
 4446WAT      O13579   6.900   6.963   0.766
 4446WAT     H113580   6.948   7.048   0.744
 4446WAT     H213581   6.868   6.920   0.681
 4447WAT      O13582   4.006   2.381   4.606
 4447WAT     H113583   3.966   2.290   4.610
 4447WAT     H213584   3.937   2.450   4.628
 4448WAT      O13585   0.104   1.599   0.595
 4448WAT     H113586   0.138   1.678   0.545
 4448WAT     H213587   0.038   1.629   0.665
 4449WAT      O13588   5.889   7.519   6.471
 4449WAT     H113589   5.833   7.486   6.395
 4449WAT     H213590   5.948   7.445   6.504
 4450WAT      O13591   3.102   2.096   1.539
 4450WAT     H113592   3.118   2.191   1.568
 4450WAT     H213593   3.141   2.083   1.447
 4451WAT      O13594   1.972   0.300   8.430
 4451WAT     H113595   1.920   0.308   8.345
 4451WAT     H213596   2.070   0.309   8.410
 4452WAT      O13597   4.773   5.617   5.708
 4452WAT     H113598   4.865   5.610   5.669
 4452WAT     H213599   4.713   5.550   5.665
 4453WAT      O13600   1.532   6.316   9.132
 4453WAT     H113601   1.544   6.217   9.144
 4453WAT     H213602   1.622   6.358   9.118
 4454WAT      O13603   3.103   9.784   5.164
 4454WAT     H113604   3.167   9.794   5.241
 4454WAT     H213605   3.030   9.851   5.173
 4455WAT      O13606   6.058   4.969   6.732
 4455WAT     H113607   5.962   4.951   6.754
 4455WAT     H213608   6.091   4.901   6.668
 4456WAT      O13609   1.941   8.721   4.547
 4456WAT     H113610   2.029   8.762   4.523
 4456WAT     H213611   1.956   8.629   4.584
 4457WAT      O13612   9.470   4.035   4.818
 4457WAT     H113613   9.456   3.983   4.902
 4457WAT     H213614   9.566   4.063   4.812
 4458WAT      O13615   5.026   9.279   9.394
 4458WAT     H113616   5.032   9.375   9.421
 4458WAT     H213617   4.932   9.257   9.369
 4459WAT      O13618   0.082   5.062   3.035
 4459WAT     H113619  -0.017   5.076   3.037
 4459WAT     H213620   0.125   5.116   3.107
 4460WAT      O13621   5.333   0.035   5.611
 4460WAT     H113622   5.270  -0.039   5.636
 4460WAT     H213623   5.287   0.123   5.623
 4461WAT      O13624   9.774   7.360   4.440
 4461WAT     H113625   9.786   7.261   4.451
 4461WAT     H213626   9.832   7.393   4.366
 4462WAT      O13627   0.693   0.160   5.661
 4462WAT     H113628   0.716   0.164   5.564
 4462WAT     H213629   0.689   0.253   5.697
 4463WAT      O13630   7.343   4.667   7.133
 4463WAT     H113631   7.434   4.695   7.165
 4463WAT     H213632   7.280   4.745   7.139
 4464WAT      O13633   3.010   6.934   2.831
 4464WAT     H113634   2.911   6.938   2.844
 4464WAT     H213635   3.033   6.855   2.774
 4465WAT      O13636   9.659   0.881   7.179
 4465WAT     H113637   9.622   0.897   7.271
 4465WAT     H213638   9.585   0.883   7.112
 4466WAT      O13639   0.614   4.164   3.965
 4466WAT     H113640   0.527   4.116   3.981
 4466WAT     H213641   0.622   4.186   3.868
 4467WAT      O13642   0.753   1.393   9.284
 4467WAT     H113643   0.739   1.315   9.224
 4467WAT     H213644   0.745   1.363   9.380
 4468WAT      O13645   7.584   5.521   6.273
 4468WAT     H113646   7.614   5.426   6.286
 4468WAT     H213647   7.621   5.556   6.187
 4469WAT      O13648   8.852   2.718   4.118
 4469WAT     H113649   8.757   2.709   4.146
 4469WAT     H213650   8.864   2.678   4.027
 4470WAT      O13651   8.062   6.922   2.672
 4470WAT     H113652   8.083   7.020   2.679
 4470WAT     H213653   8.127   6.870   2.728
 4471WAT      O13654   8.207   7.251   2.231
 4471WAT     H113655   8.202   7.269   2.133
 4471WAT     H213656   8.177   7.331   2.282
 4472WAT      O13657   3.845   3.313   8.408
 4472WAT     H113658   3.839   3.226   8.359
 4472WAT     H213659   3.781   3.379   8.367
 4473WAT      O13660   6.888   0.463   1.330
 4473WAT     H113661   6.828   0.417   1.397
 4473WAT     H213662   6.974   0.412   1.323
 4474WAT      O13663   6.495   1.010   1.917
 4474WAT     H113664   6.583   0.968   1.941
 4474WAT     H213665   6.511   1.102   1.882
 4475WAT      O13666   9.076   0.322   8.741
 4475WAT     H113667   9.151   0.347   8.802
 4475WAT     H213668   8.992   0.367   8.771
 4476WAT      O13669   8.458   9.632   7.096
 4476WAT     H113670   8.521   9.705   7.070
 4476WAT     H213671   8.367   9.671   7.112
 4477WAT      O13672   8.309   7.753   2.202
 4477WAT     H113673   8.386   7.697   2.172
 4477WAT     H213674   8.233   7.742   2.138
 4478WAT      O13675   3.175   7.488   8.938
 4478WAT     H113676   3.224   7.564   8.980
 4478WAT     H213677   3.160   7.507   8.841
 4479WAT      O13678   4.858   8.946   2.890
 4479WAT     H113679   4.788   8.875   2.888
 4479WAT     H213680   4.825   9.026   2.840
 4480WAT      O13681   3.930   1.968   0.810
 4480WAT     H113682   3.853   1.960   0.747
 4480WAT     H213683   3.900   2.014   0.893
 4481WAT      O13684   2.798   4.666   8.323
 4481WAT     H113685   2.808   4.705   8.231
 4481WAT     H213686   2.735   4.724   8.376
 4482WAT      O13687   2.294   8.931   9.554
 4482WAT     H113688   2.341   8.889   9.477
 4482WAT     H213689   2.225   8.868   9.589
 4483WAT      O13690   1.315   6.692   5.792
 4483WAT     H113691   1.383   6.761   5.767
 4483WAT     H213692   1.342   6.603   5.754
 4484WAT      O13693   4.523   1.846   0.452
 4484WAT     H113694   4.460   1.807   0.385
 4484WAT     H213695   4.603   1.786   0.462
 4485WAT      O13696   6.447   3.784   8.743
 4485WAT     H113697   6.392   3.737   8.674
 4485WAT     H213698   6.476   3.720   8.813
 4486WAT      O13699   7.389   0.438   1.790
 4486WAT     H113700   7.300   0.471   1.819
 4486WAT     H213701   7.377   0.371   1.716
 4487WAT      O13702   4.268   5.157   7.414
 4487WAT     H113703   4.311   5.070   7.388
 4487WAT     H213704   4.325   5.233   7.383
 4488WAT      O13705   4.686   5.989   9.422
 4488WAT     H113706   4.627   6.046   9.479
 4488WAT     H213707   4.753   6.048   9.376
 4489WAT      O13708   6.725   4.152   1.755
 4489WAT     H113709   6.631   4.174   1.729
 4489WAT     H213710   6.743   4.189   1.846
 4490WAT      O13711   7.429   9.722   7.676
 4490WAT     H113712   7.460   9.783   7.603
 4490WAT     H213713   7.506   9.699   7.735
 4491WAT      O13714   8.681   2.220   1.454
 4491WAT     H113715   8.638   2.137   1.418
 4491WAT     H213716   8.739   2.260   1.383
 4492WAT      O13717   5.978   2.350   8.879
 4492WAT     H113718   5.934   2.405   8.951
 4492WAT     H213719   5.914   2.280   8.847
 4493WAT      O13720   6.920   7.274   9.691
 4493WAT     H113721   6.879   7.339   9.628
 4493WAT     H213722   6.947   7.191   9.641
 4494WAT      O13723   2.527   4.817   1.760
 4494WAT     H113724   2.615   4.861   1.776
 4494WAT     H213725   2.518   4.738   1.821
 4495WAT      O13726   3.325   8.130   7.659
 4495WAT     H113727   3.251   8.172   7.712
 4495WAT     H213728   3.376   8.201   7.612
 4496WAT      O13729   0.542   3.679   6.605
 4496WAT     H113730   0.641   3.691   6.604
 4496WAT     H213731   0.501   3.730   6.529
 4497WAT      O13732   4.622   8.023   3.699
 4497WAT     H113733   4.541   7.965   3.696
 4497WAT     H213734   4.646   8.043   3.794
 4498WAT      O13735   5.429   6.092   5.468
 4498WAT     H113736   5.468   6.171   5.420
 4498WAT     H213737   5.373   6.039   5.405
 4499WAT      O13738   0.875   1.247   5.621
 4499WAT     H113739   0.930   1.329   5.636
 4499WAT     H213740   0.916   1.170   5.670
 4500WAT      O13741   2.394   8.654   7.185
 4500WAT     H113742   2.462   8.617   7.248
 4500WAT     H213743   2.399   8.754   7.186
 4501WAT      O13744   5.659   7.433   7.083
 4501WAT     H113745   5.624   7.486   7.160
 4501WAT     H213746   5.720   7.361   7.117
 4502WAT      O13747   7.122   3.458   7.316
 4502WAT     H113748   7.027   3.491   7.325
 4502WAT     H213749   7.183   3.537   7.309
 4503WAT      O13750   0.325   3.273   5.638
 4503WAT     H113751   0.233   3.303   5.612
 4503WAT     H213752   0.379   3.256   5.556
 4504WAT      O13753   7.914   2.919   1.843
 4504WAT     H113754   7.943   2.829   1.875
 4504WAT     H213755   7.915   2.921   1.743
 4505WAT      O13756   5.597   4.434   3.807
 4505WAT     H113757   5.523   4.369   3.791
 4505WAT     H213758   5.685   4.386   3.807
 4506WAT      O13759   6.701   9.378   9.711
 4506WAT     H113760   6.737   9.471   9.704
 4506WAT     H213761   6.605   9.378   9.683
 4507WAT      O13762   1.951   5.609   7.805
 4507WAT     H113763   1.909   5.519   7.795
 4507WAT     H213764   1.992   5.637   7.718
 4508WAT      O13765   2.736   2.923   6.195
 4508WAT     H113766   2.779   2.887   6.112
 4508WAT     H213767   2.654   2.975   6.170
 4509WAT      O13768   4.287   9.103   6.328
 4509WAT     H113769   4.374   9.081   6.370
 4509WAT     H213770   4.229   9.022   6.326
 4510WAT      O13771   6.062   8.170   2.827
 4510WAT     H113772   6.003   8.251   2.822
 4510WAT     H213773   6.128   8.181   2.901
 4511WAT      O13774   1.529   5.448   1.271
 4511WAT     H113775   1.473   5.431   1.352
 4511WAT     H213776   1.565   5.541   1.275
 4512WAT      O13777   1.445   4.037   3.830
 4512WAT     H113778   1.376   4.108   3.847
 4512WAT     H213779   1.441   4.010   3.734
 4513WAT      O13780   6.552   9.232   1.740
 4513WAT     H113781   6.514   9.262   1.827
 4513WAT     H213782   6.530   9.300   1.669
 4514WAT      O13783   8.858   1.524   9.251
 4514WAT     H113784   8.957   1.538   9.243
 4514WAT     H213785   8.812   1.612   9.263
 4515WAT      O13786   8.946   5.100   4.255
 4515WAT     H113787   8.966   5.175   4.192
 4515WAT     H213788   9.002   5.021   4.232
 4516WAT      O13789   7.627   8.209   7.069
 4516WAT     H113790   7.598   8.285   7.127
 4516WAT     H213791   7.547   8.166   7.029
 4517WAT      O13792   8.660   3.222   1.561
 4517WAT     H113793   8.593   3.256   1.627
 4517WAT     H213794   8.684   3.128   1.584
 4518WAT      O13795   7.614   6.872   3.137
 4518WAT     H113796   7.698   6.925   3.147
 4518WAT     H213797   7.555   6.889   3.216
 4519WAT      O13798   5.156   8.855   1.336
 4519WAT     H113799   5.158   8.810   1.246
 4519WAT     H213800   5.213   8.803   1.400
 4520WAT      O13801   9.439   0.681   1.206
 4520WAT     H113802   9.381   0.628   1.143
 4520WAT     H213803   9.385   0.706   1.286
 4521WAT      O13804   6.142   9.504   3.539
 4521WAT     H113805   6.062   9.447   3.519
 4521WAT     H213806   6.133   9.544   3.630
 4522WAT      O13807   5.906   1.195   2.182
 4522WAT     H113808   5.948   1.105   2.169
 4522WAT     H213809   5.885   1.209   2.278
 4523WAT      O13810   1.267   6.223   5.499
 4523WAT     H113811   1.305   6.176   5.579
 4523WAT     H213812   1.252   6.157   5.426
 4524WAT      O13813   4.265   8.435   2.423
 4524WAT     H113814   4.320   8.501   2.474
 4524WAT     H213815   4.219   8.373   2.486
 4525WAT      O13816   2.231   0.340   8.357
 4525WAT     H113817   2.249   0.418   8.417
 4525WAT     H213818   2.305   0.274   8.366
 4526WAT      O13819   4.970   2.916   1.458
 4526WAT     H113820   5.030   2.847   1.417
 4526WAT     H213821   4.943   2.885   1.550
 4527WAT      O13822   9.004   2.969   3.189
 4527WAT     H113823   8.952   2.991   3.271
 4527WAT     H213824   8.941   2.937   3.117
 4528WAT      O13825   2.658   1.261   2.810
 4528WAT     H113826   2.725   1.243   2.738
 4528WAT     H213827   2.577   1.203   2.796
 4529WAT      O13828   8.902   2.257   8.513
 4529WAT     H113829   8.875   2.161   8.521
 4529WAT     H213830   8.978   2.264   8.449
 4530WAT      O13831   2.117   2.477   2.850
 4530WAT     H113832   2.080   2.567   2.826
 4530WAT     H213833   2.059   2.405   2.810
 4531WAT      O13834   0.771   3.298   1.220
 4531WAT     H113835   0.712   3.282   1.299
 4531WAT     H213836   0.717   3.294   1.137
 4532WAT      O13837   5.220   8.726   8.564
 4532WAT     H113838   5.134   8.776   8.562
 4532WAT     H213839   5.296   8.788   8.544
 4533WAT      O13840   5.956   8.952   5.330
 4533WAT     H113841   5.870   8.900   5.326
 4533WAT     H213842   5.936   9.050   5.335
 4534WAT      O13843   4.594   6.038   8.966
 4534WAT     H113844   4.594   6.097   8.886
 4534WAT     H213845   4.527   5.965   8.954
 4535WAT      O13846   2.217   7.386   6.025
 4535WAT     H113847   2.184   7.416   5.936
 4535WAT     H213848   2.293   7.322   6.014
 4536WAT      O13849   8.103   3.832   7.523
 4536WAT     H113850   8.060   3.831   7.613
 4536WAT     H213851   8.202   3.824   7.534
 4537WAT      O13852   7.533   5.005   7.086
 4537WAT     H113853   7.573   4.937   7.024
 4537WAT     H213854   7.444   5.034   7.050
 4538WAT      O13855   3.408   4.376   3.924
 4538WAT     H113856   3.331   4.357   3.985
 4538WAT     H213857   3.415   4.474   3.909
 4539WAT      O13858   2.652   7.928   1.548
 4539WAT     H113859   2.745   7.898   1.529
 4539WAT     H213860   2.621   7.989   1.475
 4540WAT      O13861   7.657   6.572   3.355
 4540WAT     H113862   7.596   6.492   3.347
 4540WAT     H213863   7.603   6.652   3.382
 4541WAT      O13864   9.394   6.570   1.642
 4541WAT     H113865   9.378   6.608   1.733
 4541WAT     H213866   9.490   6.583   1.617
 4542WAT      O13867   3.707   3.141   6.963
 4542WAT     H113868   3.735   3.071   7.029
 4542WAT     H213869   3.625   3.110   6.915
 4543WAT      O13870   4.983   7.598   6.076
 4543WAT     H113871   4.885   7.587   6.091
 4543WAT     H213872   5.018   7.671   6.136
 4544WAT      O13873   4.195   0.246   3.798
 4544WAT     H113874   4.170   0.263   3.703
 4544WAT     H213875   4.293   0.265   3.811
 4545WAT      O13876   1.424   3.796   4.529
 4545WAT     H113877   1.508   3.800   4.583
 4545WAT     H213878   1.397   3.701   4.516
 4546WAT      O13879   1.904   5.531   4.886
 4546WAT     H113880   1.829   5.595   4.897
 4546WAT     H213881   1.924   5.487   4.974
 4547WAT      O13882   2.162   3.538   8.172
 4547WAT     H113883   2.163   3.497   8.264
 4547WAT     H213884   2.095   3.490   8.116
 4548WAT      O13885   7.072   9.259   5.837
 4548WAT     H113886   7.043   9.353   5.817
 4548WAT     H213887   7.171   9.257   5.849
 4549WAT      O13888   7.014   8.986   3.505
 4549WAT     H113889   7.002   8.994   3.406
 4549WAT     H213890   7.079   9.055   3.537
 4550WAT      O13891   0.130   6.566   1.748
 4550WAT     H113892   0.225   6.597   1.755
 4550WAT     H213893   0.080   6.594   1.830
 4551WAT      O13894   2.436   9.692   6.891
 4551WAT     H113895   2.428   9.791   6.905
 4551WAT     H213896   2.346   9.650   6.891
 4552WAT      O13897   8.628   5.539   8.109
 4552WAT     H113898   8.563   5.615   8.119
 4552WAT     H213899   8.652   5.528   8.013
 4553WAT      O13900   6.545   8.554   8.209
 4553WAT     H113901   6.452   8.518   8.222
 4553WAT     H213902   6.611   8.491   8.249
 4554WAT      O13903   7.275   8.411   5.280
 4554WAT     H113904   7.222   8.447   5.203
 4554WAT     H213905   7.215   8.355   5.337
 4555WAT      O13906   2.421   6.924   3.199
 4555WAT     H113907   2.477   6.860   3.251
 4555WAT     H213908   2.399   7.003   3.257
 4556WAT      O13909   8.499   5.456   8.347
 4556WAT     H113910   8.468   5.541   8.389
 4556WAT     H213911   8.563   5.476   8.273
 4557WAT      O13912   7.995   1.359   0.762
 4557WAT     H113913   8.064   1.348   0.690
 4557WAT     H213914   7.911   1.396   0.723
 4558WAT      O13915   0.266   7.733   7.050
 4558WAT     H113916   0.348   7.702   7.097
 4558WAT     H213917   0.280   7.825   7.015
 4559WAT      O13918   6.784   8.703   3.248
 4559WAT     H113919   6.743   8.786   3.286
 4559WAT     H213920   6.803   8.717   3.151
 4560WAT      O13921   4.477   6.309   4.888
 4560WAT     H113922   4.441   6.375   4.822
 4560WAT     H213923   4.439   6.329   4.978
 4561WAT      O13924   9.498   9.052   8.082
 4561WAT     H113925   9.399   9.068   8.083
 4561WAT     H213926   9.533   9.058   8.175
 4562WAT      O13927   2.922   2.042   3.877
 4562WAT     H113928   2.917   1.944   3.858
 4562WAT     H213929   3.002   2.080   3.831
 4563WAT      O13930   0.098   4.217   8.956
 4563WAT     H113931   0.114   4.134   9.009
 4563WAT     H213932   0.078   4.293   9.018
 4564WAT      O13933   3.276   8.992   4.283
 4564WAT     H113934   3.225   8.988   4.197
 4564WAT     H213935   3.239   9.066   4.340
 4565WAT      O13936   7.260   7.798   1.910
 4565WAT     H113937   7.180   7.856   1.889
 4565WAT     H213938   7.319   7.845   1.975
 4566WAT      O13939   7.851   3.437   8.787
 4566WAT     H113940   7.907   3.454   8.705
 4566WAT     H213941   7.755   3.455   8.766
 4567WAT      O13942   4.821   0.961   5.681
 4567WAT     H113943   4.897   0.937   5.740
 4567WAT     H213944   4.736   0.925   5.719
 4568WAT      O13945   4.860   9.205   8.696
 4568WAT     H113946   4.906   9.136   8.751
 4568WAT     H213947   4.921   9.235   8.623
 4569WAT      O13948   2.089   4.724   3.692
 4569WAT     H113949   2.146   4.758   3.766
 4569WAT     H213950   2.003   4.689   3.729
 4570WAT      O13951   1.320   0.854   1.359
 4570WAT     H113952   1.278   0.763   1.356
 4570WAT     H213953   1.255   0.922   1.325
 4571WAT      O13954   2.305   8.724   1.359
 4571WAT     H113955   2.390   8.757   1.317
 4571WAT     H213956   2.227   8.769   1.316
 4572WAT      O13957   7.147   4.751   4.812
 4572WAT     H113958   7.169   4.655   4.833
 4572WAT     H213959   7.169   4.770   4.716
 4573WAT      O13960   9.549   9.575   6.656
 4573WAT     H113961   9.465   9.629   6.662
 4573WAT     H213962   9.531   9.490   6.607
 4574WAT      O13963   6.893   3.677   1.067
 4574WAT     H113964   6.803   3.708   1.036
 4574WAT     H213965   6.946   3.646   0.988
 4575WAT      O13966   0.582   1.692   1.105
 4575WAT     H113967   0.515   1.758   1.072
 4575WAT     H213968   0.535   1.612   1.142
 4576WAT      O13969   4.596   3.790   5.581
 4576WAT     H113970   4.581   3.879   5.538
 4576WAT     H213971   4.526   3.726   5.549
 4577WAT      O13972   4.234   4.468   1.481
 4577WAT     H113973   4.174   4.390   1.500
 4577WAT     H213974   4.180   4.543   1.443
 4578WAT      O13975   0.560   3.632   2.977
 4578WAT     H113976   0.517   3.683   2.902
 4578WAT     H213977   0.646   3.675   3.002
 4579WAT      O13978   6.824   7.178   4.741
 4579WAT     H113979   6.859   7.162   4.649
 4579WAT     H213980   6.741   7.233   4.736
 4580WAT      O13981   6.348   5.571   8.725
 4580WAT     H113982   6.431   5.627   8.721
 4580WAT     H213983   6.290   5.591   8.646
 4581WAT      O13984   7.903   1.975   0.007
 4581WAT     H113985   7.879   1.982  -0.089
 4581WAT     H213986   7.995   1.937   0.015
 4582WAT      O13987   9.574   8.449   2.782
 4582WAT     H113988   9.494   8.403   2.820
 4582WAT     H213989   9.637   8.472   2.857
 4583WAT      O13990   2.357   3.532   6.794
 4583WAT     H113991   2.361   3.445   6.843
 4583WAT     H213992   2.314   3.601   6.852
 4584WAT      O13993   7.756   7.053   3.980
 4584WAT     H113994   7.722   7.052   3.886
 4584WAT     H213995   7.830   7.120   3.987
 4585WAT      O13996   6.513   3.497   8.603
 4585WAT     H113997   6.475   3.409   8.631
 4585WAT     H213998   6.449   3.544   8.542
 4586WAT      O13999   0.774   1.605   3.478
 4586WAT     H114000   0.755   1.506   3.473
 4586WAT     H214001   0.870   1.621   3.455
 4587WAT      O14002   9.452   4.877   4.949
 4587WAT     H114003   9.459   4.788   4.904
 4587WAT     H214004   9.448   4.864   5.048
 4588WAT      O14005   9.446   8.458   8.420
 4588WAT     H114006   9.434   8.555   8.439
 4588WAT     H214007   9.416   8.405   8.499
 4589WAT      O14008   3.719   4.183   9.595
 4589WAT     H114009   3.734   4.141   9.684
 4589WAT     H214010   3.800   4.170   9.537
 4590WAT      O14011   0.261   9.047   7.746
 4590WAT     H114012   0.260   9.142   7.778
 4590WAT     H214013   0.299   8.988   7.817
 4591WAT      O14014   5.126   9.321   0.963
 4591WAT     H114015   5.134   9.409   1.010
 4591WAT     H214016   5.191   9.256   1.002
 4592WAT      O14017   0.949   9.624   5.097
 4592WAT     H114018   0.943   9.598   5.001
 4592WAT     H214019   0.985   9.717   5.104
 4593WAT      O14020   3.553   6.566   3.711
 4593WAT     H114021   3.565   6.554   3.612
 4593WAT     H214022   3.456   6.575   3.732
 4594WAT      O14023   9.670   3.698   5.362
 4594WAT     H114024   9.694   3.603   5.342
 4594WAT     H214025   9.730   3.733   5.434
 4595WAT      O14026   3.771   7.544   7.332
 4595WAT     H114027   3.702   7.537   7.404
 4595WAT     H214028   3.744   7.615   7.267
 4596WAT      O14029   6.818   0.744   7.771
 4596WAT     H114030   6.879   0.804   7.719
 4596WAT     H214031   6.868   0.662   7.800
 4597WAT      O14032   4.205   6.702   2.080
 4597WAT     H114033   4.258   6.787   2.087
 4597WAT     H214034   4.108   6.723   2.076
 4598WAT      O14035   9.116   5.290   8.193
 4598WAT     H114036   9.155   5.333   8.111
 4598WAT     H214037   9.154   5.198   8.203
 4599WAT      O14038   6.380   1.334   1.060
 4599WAT     H114039   6.310   1.367   1.123
 4599WAT     H214040   6.465   1.321   1.110
 4600WAT      O14041   4.696   0.060   5.122
 4600WAT     H114042   4.748   0.031   5.202
 4600WAT     H214043   4.636  -0.014   5.092
 4601WAT      O14044   9.524   1.227   8.399
 4601WAT     H114045   9.574   1.291   8.458
 4601WAT     H214046   9.520   1.264   8.306
 4602WAT      O14047   9.744   1.582   2.221
 4602WAT     H114048   9.690   1.531   2.154
 4602WAT     H214049   9.806   1.519   2.269
 4603WAT      O14050   1.160   2.833   2.868
 4603WAT     H114051   1.203   2.744   2.859
 4603WAT     H214052   1.217   2.903   2.826
 4604WAT      O14053   9.375   7.986   8.659
 4604WAT     H114054   9.353   8.027   8.748
 4604WAT     H214055   9.347   7.890   8.659
 4605WAT      O14056   3.731   0.173   5.811
 4605WAT     H114057   3.818   0.151   5.768
 4605WAT     H214058   3.663   0.195   5.741
 4606WAT      O14059   7.090   4.272   9.047
 4606WAT     H114060   7.032   4.301   8.971
 4606WAT     H214061   7.170   4.332   9.054
 4607WAT      O14062   3.238   7.897   6.082
 4607WAT     H114063   3.253   7.809   6.037
 4607WAT     H214064   3.176   7.952   6.027
 4608WAT      O14065   1.562   2.847   7.170
 4608WAT     H114066   1.478   2.815   7.127
 4608WAT     H214067   1.545   2.933   7.217
 4609WAT      O14068   7.070   1.533   8.153
 4609WAT     H114069   6.987   1.536   8.097
 4609WAT     H214070   7.095   1.627   8.179
 4610WAT      O14071   8.875   1.493   6.361
 4610WAT     H114072   8.957   1.483   6.418
 4610WAT     H214073   8.880   1.581   6.312
 4611WAT      O14074   5.669   6.163   4.571
 4611WAT     H114075   5.659   6.242   4.510
 4611WAT     H214076   5.617   6.086   4.535
 4612WAT      O14077   0.862   9.671   5.749
 4612WAT     H114078   0.764   9.670   5.766
 4612WAT     H214079   0.911   9.670   5.837
 4613WAT      O14080   1.159   4.751   4.329
 4613WAT     H114081   1.226   4.703   4.273
 4613WAT     H214082   1.099   4.685   4.374
 4614WAT      O14083   7.057   6.955   2.309
 4614WAT     H114084   7.020   6.891   2.376
 4614WAT     H214085   7.033   6.925   2.217
 4615WAT      O14086   5.882   8.203   5.406
 4615WAT     H114087   5.880   8.287   5.351
 4615WAT     H214088   5.813   8.210   5.479
 4616WAT      O14089   0.040   5.529   7.789
 4616WAT     H114090   0.087   5.618   7.797
 4616WAT     H214091   0.107   5.458   7.767
 4617WAT      O14092   4.046   7.681   4.699
 4617WAT     H114093   4.136   7.718   4.724
 4617WAT     H214094   3.989   7.755   4.663
 4618WAT      O14095   9.379   2.139   1.673
 4618WAT     H114096   9.452   2.141   1.605
 4618WAT     H214097   9.322   2.221   1.662
 4619WAT      O14098   3.444   1.780   0.308
 4619WAT     H114099   3.537   1.764   0.340
 4619WAT     H214100   3.439   1.763   0.210
 4620WAT      O14101   9.289   8.391   8.661
 4620WAT     H114102   9.322   8.444   8.739
 4620WAT     H214103   9.195   8.362   8.677
 4621WAT      O14104   8.032   5.082   4.154
 4621WAT     H114105   7.993   5.035   4.233
 4621WAT     H214106   7.959   5.109   4.091
 4622WAT      O14107   3.033   1.449   2.396
 4622WAT     H114108   2.939   1.437   2.364
 4622WAT     H214109   3.095   1.404   2.331
 4623WAT      O14110   9.258   0.209   2.816
 4623WAT     H114111   9.246   0.306   2.797
 4623WAT     H214112   9.323   0.197   2.891
 4624WAT      O14113   0.256   4.906   6.698
 4624WAT     H114114   0.304   4.968   6.636
 4624WAT     H214115   0.267   4.812   6.667
 4625WAT      O14116   1.038   6.650   7.783
 4625WAT     H114117   0.939   6.642   7.773
 4625WAT     H214118   1.076   6.561   7.811
 4626WAT      O14119   2.084   9.710   3.213
 4626WAT     H114120   2.122   9.802   3.200
 4626WAT     H214121   2.082   9.689   3.311
 4627WAT      O14122   1.134   6.276   3.979
 4627WAT     H114123   1.160   6.318   4.066
 4627WAT     H214124   1.099   6.347   3.917
 4628WAT      O14125   2.241   5.978   1.288
 4628WAT     H114126   2.167   5.914   1.308
 4628WAT     H214127   2.295   5.994   1.371
 4629WAT      O14128   6.930   6.602   7.084
 4629WAT     H114129   6.859   6.587   7.015
 4629WAT     H214130   6.952   6.700   7.088
 4630WAT      O14131   0.343   0.522   8.099
 4630WAT     H114132   0.333   0.541   8.001
 4630WAT     H214133   0.387   0.600   8.144
 4631WAT      O14134   7.082   3.910   6.751
 4631WAT     H114135   7.084   4.006   6.778
 4631WAT     H214136   7.160   3.862   6.791
 4632WAT      O14137   9.351   5.636   7.240
 4632WAT     H114138   9.327   5.677   7.152
 4632WAT     H214139   9.389   5.545   7.226
 4633WAT      O14140   1.355   0.033   6.821
 4633WAT     H114141   1.390   0.126   6.811
 4633WAT     H214142   1.402  -0.028   6.758
 4634WAT      O14143   4.832   4.200   3.387
 4634WAT     H114144   4.931   4.187   3.378
 4634WAT     H214145   4.798   4.143   3.462
 4635WAT      O14146   8.030   8.013   5.856
 4635WAT     H114147   7.933   8.023   5.880
 4635WAT     H214148   8.076   7.959   5.926
 4636WAT      O14149   0.987   8.070   5.145
 4636WAT     H114150   0.893   8.105   5.140
 4636WAT     H214151   0.998   8.014   5.227
 4637WAT      O14152   9.823   6.953   5.052
 4637WAT     H114153   9.854   6.947   4.957
 4637WAT     H214154   9.769   7.036   5.064
 4638WAT      O14155   9.198   7.789   9.119
 4638WAT     H114156   9.279   7.735   9.142
 4638WAT     H214157   9.117   7.746   9.160
 4639WAT      O14158   3.399   4.586   9.695
 4639WAT     H114159   3.446   4.673   9.710
 4639WAT     H214160   3.466   4.511   9.701
 4640WAT      O14161   1.180   0.671   4.058
 4640WAT     H114162   1.195   0.584   4.105
 4640WAT     H214163   1.187   0.658   3.959
 4641WAT      O14164   7.859   9.604   2.983
 4641WAT     H114165   7.949   9.610   3.026
 4641WAT     H214166   7.808   9.688   3.001
 4642WAT      O14167   9.791   2.063   9.501
 4642WAT     H114168   9.820   1.977   9.543
 4642WAT     H214169   9.844   2.079   9.418
 4643WAT      O14170   5.640   7.847   3.889
 4643WAT     H114171   5.586   7.786   3.832
 4643WAT     H214172   5.737   7.821   3.884
 4644WAT      O14173   7.566   4.059   0.532
 4644WAT     H114174   7.645   4.107   0.494
 4644WAT     H214175   7.536   4.104   0.616
 4645WAT      O14176   1.313   9.244   2.059
 4645WAT     H114177   1.360   9.205   2.138
 4645WAT     H214178   1.369   9.316   2.018
 4646WAT      O14179   6.190   5.057   1.781
 4646WAT     H114180   6.151   5.101   1.700
 4646WAT     H214181   6.235   5.126   1.838
 4647WAT      O14182   1.310   4.659   1.929
 4647WAT     H114183   1.256   4.640   2.011
 4647WAT     H214184   1.277   4.602   1.854
 4648WAT      O14185   4.467   4.480   0.728
 4648WAT     H114186   4.408   4.496   0.649
 4648WAT     H214187   4.421   4.416   0.791
 4649WAT      O14188   9.491   5.531   7.936
 4649WAT     H114189   9.446   5.605   7.986
 4649WAT     H214190   9.560   5.489   7.994
 4650WAT      O14191   4.672   4.179   7.868
 4650WAT     H114192   4.648   4.271   7.897
 4650WAT     H214193   4.770   4.172   7.855
 4651WAT      O14194   7.559   9.569   4.885
 4651WAT     H114195   7.537   9.663   4.860
 4651WAT     H214196   7.534   9.553   4.981
 4652WAT      O14197   6.077   2.027   8.734
 4652WAT     H114198   6.172   2.036   8.764
 4652WAT     H214199   6.045   1.934   8.752
 4653WAT      O14200   8.046   7.839   3.316
 4653WAT     H114201   8.050   7.782   3.234
 4653WAT     H214202   8.119   7.907   3.312
 4654WAT      O14203   5.053   1.076   0.710
 4654WAT     H114204   5.073   1.125   0.795
 4654WAT     H214205   5.132   1.079   0.650
 4655WAT      O14206   5.256   5.715   9.347
 4655WAT     H114207   5.206   5.743   9.429
 4655WAT     H214208   5.195   5.721   9.268
 4656WAT      O14209   9.536   3.612   4.358
 4656WAT     H114210   9.593   3.642   4.434
 4656WAT     H214211   9.440   3.628   4.380
 4657WAT      O14212   1.969   3.780   8.852
 4657WAT     H114213   2.034   3.810   8.782
 4657WAT     H214214   2.017   3.736   8.927
 4658WAT      O14215   5.687   3.539   0.348
 4658WAT     H114216   5.666   3.462   0.288
 4658WAT     H214217   5.625   3.537   0.427
 4659WAT      O14218   8.283   4.870   0.225
 4659WAT     H114219   8.360   4.899   0.282
 4659WAT     H214220   8.203   4.854   0.283
 4660WAT      O14221   5.992   6.221   1.726
 4660WAT     H114222   5.912   6.270   1.760
 4660WAT     H214223   6.016   6.147   1.789
 4661WAT      O14224   9.069   0.533   1.222
 4661WAT     H114225   9.096   0.610   1.164
 4661WAT     H214226   9.031   0.568   1.308
 4662WAT      O14227   9.875   8.517   7.054
 4662WAT     H114228   9.910   8.476   7.138
 4662WAT     H214229   9.813   8.454   7.008
 4663WAT      O14230   2.194   1.598   9.738
 4663WAT     H114231   2.237   1.622   9.825
 4663WAT     H214232   2.136   1.673   9.708
 4664WAT      O14233   1.294   7.771   0.993
 4664WAT     H114234   1.319   7.675   0.982
 4664WAT     H214235   1.267   7.809   0.904
 4665WAT      O14236   2.559   9.570   1.350
 4665WAT     H114237   2.636   9.633   1.365
 4665WAT     H214238   2.488   9.618   1.299
 4666WAT      O14239   0.280   3.710   2.090
 4666WAT     H114240   0.326   3.629   2.052
 4666WAT     H214241   0.228   3.683   2.172
 4667WAT      O14242   5.073   8.014   5.222
 4667WAT     H114243   5.130   7.962   5.285
 4667WAT     H214244   5.029   8.089   5.271
 4668WAT      O14245   5.343   0.982   8.506
 4668WAT     H114246   5.330   0.908   8.572
 4668WAT     H214247   5.259   0.995   8.454
 4669WAT      O14248   4.789   5.744   2.411
 4669WAT     H114249   4.804   5.703   2.321
 4669WAT     H214250   4.811   5.841   2.407
 4670WAT      O14251   7.253   8.019   9.716
 4670WAT     H114252   7.277   8.095   9.655
 4670WAT     H214253   7.334   7.961   9.730
 4671WAT      O14254   1.269   5.112   8.779
 4671WAT     H114255   1.173   5.084   8.785
 4671WAT     H214256   1.304   5.130   8.871
 4672WAT      O14257   6.331   5.128   4.078
 4672WAT     H114258   6.415   5.155   4.126
 4672WAT     H214259   6.295   5.044   4.119
 4673WAT      O14260   0.785   1.071   4.092
 4673WAT     H114261   0.770   1.061   4.191
 4673WAT     H214262   0.708   1.031   4.043
 4674WAT      O14263   0.248   8.164   4.093
 4674WAT     H114264   0.243   8.251   4.044
 4674WAT     H214265   0.344   8.135   4.099
 4675WAT      O14266   9.425   0.287   1.998
 4675WAT     H114267   9.476   0.374   1.996
 4675WAT     H214268   9.411   0.259   2.093
 4676WAT      O14269   0.806   9.284   8.991
 4676WAT     H114270   0.897   9.242   8.988
 4676WAT     H214271   0.743   9.225   9.041
 4677WAT      O14272   6.139   7.777   0.416
 4677WAT     H114273   6.099   7.789   0.507
 4677WAT     H214274   6.237   7.759   0.424
 4678WAT      O14275   5.870   2.391   2.271
 4678WAT     H114276   5.958   2.438   2.255
 4678WAT     H214277   5.809   2.452   2.320
 4679WAT      O14278   0.828   8.477   7.427
 4679WAT     H114279   0.760   8.546   7.403
 4679WAT     H214280   0.877   8.449   7.344
 4680WAT      O14281   6.085   0.957   5.964
 4680WAT     H114282   6.181   0.972   5.987
 4680WAT     H214283   6.036   0.927   6.046
 4681WAT      O14284   6.646   2.279   1.052
 4681WAT     H114285   6.723   2.299   0.992
 4681WAT     H214286   6.598   2.198   1.020
 4682WAT      O14287   5.381   6.972   0.810
 4682WAT     H114288   5.342   6.881   0.820
 4682WAT     H214289   5.433   6.996   0.892
 4683WAT      O14290   4.139   8.226   7.823
 4683WAT     H114291   4.052   8.263   7.857
 4683WAT     H214292   4.207   8.228   7.896
 4684WAT      O14293   7.500   4.329   5.879
 4684WAT     H114294   7.431   4.277   5.929
 4684WAT     H214295   7.468   4.346   5.785
 4685WAT      O14296   1.409   2.431   3.194
 4685WAT     H114297   1.493   2.391   3.230
 4685WAT     H214298   1.343   2.359   3.174
 4686WAT      O14299   7.446   8.718   9.207
 4686WAT     H114300   7.405   8.733   9.117
 4686WAT     H214301   7.440   8.621   9.231
 4687WAT      O14302   7.443   0.789   5.561
 4687WAT     H114303   7.402   0.698   5.554
 4687WAT     H214304   7.380   0.851   5.608
 4688WAT      O14305   8.727   9.809   4.103
 4688WAT     H114306   8.826   9.821   4.097
 4688WAT     H214307   8.682   9.898   4.088
 4689WAT      O14308   5.278   3.503   3.675
 4689WAT     H114309   5.375   3.530   3.681
 4689WAT     H214310   5.256   3.444   3.753
 4690WAT      O14311   0.323   1.537   9.821
 4690WAT     H114312   0.289   1.474   9.891
 4690WAT     H214313   0.409   1.502   9.784
 4691WAT      O14314   7.717   6.869   6.418
 4691WAT     H114315   7.687   6.865   6.323
 4691WAT     H214316   7.814   6.843   6.423
 4692WAT      O14317   6.704   6.068   1.867
 4692WAT     H114318   6.668   6.063   1.774
 4692WAT     H214319   6.776   6.138   1.871
 4693WAT      O14320   5.500   3.513   1.418
 4693WAT     H114321   5.400   3.508   1.427
 4693WAT     H214322   5.526   3.503   1.322
 4694WAT      O14323   6.993   3.654   5.389
 4694WAT     H114324   6.909   3.705   5.407
 4694WAT     H214325   7.043   3.640   5.474
 4695WAT      O14326   0.428   6.611   1.232
 4695WAT     H114327   0.352   6.583   1.174
 4695WAT     H214328   0.490   6.669   1.180
 4696WAT      O14329   8.400   5.016   0.467
 4696WAT     H114330   8.376   5.032   0.562
 4696WAT     H214331   8.404   5.103   0.418
 4697WAT      O14332   8.868   9.043   7.316
 4697WAT     H114333   8.792   9.068   7.256
 4697WAT     H214334   8.916   9.126   7.346
 4698WAT      O14335   1.747   2.914   2.699
 4698WAT     H114336   1.681   2.885   2.630
 4698WAT     H214337   1.839   2.915   2.660
 4699WAT      O14338   8.213   9.712   3.210
 4699WAT     H114339   8.237   9.801   3.173
 4699WAT     H214340   8.185   9.721   3.306
 4700WAT      O14341   0.347   4.210   0.476
 4700WAT     H114342   0.358   4.276   0.402
 4700WAT     H214343   0.284   4.247   0.545
 4701WAT      O14344   4.583   3.079   2.277
 4701WAT     H114345   4.548   3.077   2.184
 4701WAT     H214346   4.640   3.161   2.290
 4702WAT      O14347   9.687   5.066   2.358
 4702WAT     H114348   9.657   5.051   2.453
 4702WAT     H214349   9.761   5.003   2.336
 4703WAT      O14350   8.001   5.069   2.491
 4703WAT     H114351   7.917   5.101   2.535
 4703WAT     H214352   8.080   5.096   2.547
 4704WAT      O14353   8.722   1.583   3.027
 4704WAT     H114354   8.624   1.565   3.039
 4704WAT     H214355   8.747   1.666   3.077
 4705WAT      O14356   0.372   7.605   8.481
 4705WAT     H114357   0.339   7.584   8.389
 4705WAT     H214358   0.465   7.643   8.475
 4706WAT      O14359   1.761   5.069   9.448
 4706WAT     H114360   1.821   4.990   9.437
 4706WAT     H214361   1.706   5.057   9.531
 4707WAT      O14362   6.963   6.947   1.775
 4707WAT     H114363   7.050   6.896   1.774
 4707WAT     H214364   6.887   6.883   1.768
 4708WAT      O14365   7.141   0.420   2.129
 4708WAT     H114366   7.133   0.514   2.096
 4708WAT     H214367   7.127   0.356   2.053
 4709WAT      O14368   7.080   4.705   0.018
 4709WAT     H114369   7.106   4.797  -0.009
 4709WAT     H214370   7.096   4.693   0.116
 4710WAT      O14371   5.687   5.851   5.322
 4710WAT     H114372   5.637   5.876   5.404
 4710WAT     H214373   5.687   5.928   5.257
 4711WAT      O14374   8.764   9.427   4.614
 4711WAT     H114375   8.864   9.432   4.603
 4711WAT     H214376   8.732   9.514   4.652
 4712WAT      O14377   3.283   5.053   4.346
 4712WAT     H114378   3.275   4.989   4.423
 4712WAT     H214379   3.278   5.147   4.381
 4713WAT      O14380   6.232   0.319   1.916
 4713WAT     H114381   6.281   0.362   1.992
 4713WAT     H214382   6.194   0.232   1.947
 4714WAT      O14383   8.652   9.060   7.074
 4714WAT     H114384   8.609   9.118   7.005
 4714WAT     H214385   8.596   9.059   7.157
 4715WAT      O14386   4.291   9.776   2.542
 4715WAT     H114387   4.253   9.859   2.501
 4715WAT     H214388   4.236   9.748   2.621
 4716WAT      O14389   0.309   3.713   9.587
 4716WAT     H114390   0.304   3.744   9.492
 4716WAT     H214391   0.371   3.772   9.639
 4717WAT      O14392   9.377   1.328   5.427
 4717WAT     H114393   9.436   1.257   5.466
 4717WAT     H214394   9.281   1.302   5.437
 4718WAT      O14395   2.915   8.015   1.492
 4718WAT     H114396   2.969   7.940   1.531
 4718WAT     H214397   2.974   8.094   1.474
 4719WAT      O14398   4.267   4.053   4.029
 4719WAT     H114399   4.288   4.076   4.124
 4719WAT     H214400   4.176   4.086   4.006
 4720WAT      O14401   3.319   5.282   6.195
 4720WAT     H114402   3.360   5.244   6.278
 4720WAT     H214403   3.359   5.237   6.115
 4721WAT      O14404   6.465   5.458   6.134
 4721WAT     H114405   6.502   5.545   6.165
 4721WAT     H214406   6.497   5.385   6.194
 4722WAT      O14407   1.946   6.338   0.316
 4722WAT     H114408   1.936   6.434   0.341
 4722WAT     H214409   2.032   6.302   0.350
 4723WAT      O14410   1.262   3.453   6.285
 4723WAT     H114411   1.240   3.452   6.187
 4723WAT     H214412   1.316   3.535   6.306
 4724WAT      O14413   8.253   6.871   0.776
 4724WAT     H114414   8.234   6.793   0.716
 4724WAT     H214415   8.167   6.905   0.814
 4725WAT      O14416   7.963   6.481   3.785
 4725WAT     H114417   7.903   6.547   3.739
 4725WAT     H214418   8.030   6.445   3.720
 4726WAT      O14419   8.698   9.504   0.061
 4726WAT     H114420   8.684   9.465   0.152
 4726WAT     H214421   8.786   9.551   0.058
 4727WAT      O14422   2.718   9.696   9.791
 4727WAT     H114423   2.737   9.732   9.700
 4727WAT     H214424   2.764   9.608   9.802
 4728WAT      O14425   2.392   1.441   8.433
 4728WAT     H114426   2.304   1.415   8.473
 4728WAT     H214427   2.379   1.519   8.372
 4729WAT      O14428   4.648   9.508   7.049
 4729WAT     H114429   4.606   9.420   7.027
 4729WAT     H214430   4.724   9.526   6.986
 4730WAT      O14431   7.417   2.036   0.124
 4730WAT     H114432   7.330   2.049   0.077
 4730WAT     H214433   7.492   2.062   0.062
 4731WAT      O14434   7.712   3.918   5.453
 4731WAT     H114435   7.705   3.819   5.463
 4731WAT     H214436   7.804   3.948   5.476
 4732WAT      O14437   1.392   7.552   6.895
 4732WAT     H114438   1.442   7.634   6.868
 4732WAT     H214439   1.443   7.470   6.866
 4733WAT      O14440   5.719   6.506   6.277
 4733WAT     H114441   5.757   6.481   6.187
 4733WAT     H214442   5.647   6.442   6.301
 4734WAT      O14443   5.890   2.380   6.041
 4734WAT     H114444   5.884   2.457   5.977
 4734WAT     H214445   5.959   2.315   6.009
 4735WAT      O14446   3.930   3.340   3.600
 4735WAT     H114447   3.865   3.271   3.633
 4735WAT     H214448   3.883   3.427   3.588
 4736WAT      O14449   6.205   9.723   6.765
 4736WAT     H114450   6.293   9.715   6.717
 4736WAT     H214451   6.190   9.642   6.821
 4737WAT      O14452   2.138   8.248   2.557
 4737WAT     H114453   2.150   8.161   2.510
 4737WAT     H214454   2.166   8.322   2.496
 4738WAT      O14455   3.217   2.274   9.330
 4738WAT     H114456   3.225   2.243   9.236
 4738WAT     H214457   3.268   2.360   9.341
 4739WAT      O14458   2.569   3.521   9.107
 4739WAT     H114459   2.473   3.503   9.126
 4739WAT     H214460   2.577   3.574   9.023
 4740WAT      O14461   5.769   3.094   3.115
 4740WAT     H114462   5.844   3.066   3.055
 4740WAT     H214463   5.774   3.192   3.132
 4741WAT      O14464   0.966   6.066   1.981
 4741WAT     H114465   0.938   6.161   1.976
 4741WAT     H214466   1.000   6.036   1.891
 4742WAT      O14467   6.396   2.713   6.183
 4742WAT     H114468   6.451   2.677   6.107
 4742WAT     H214469   6.436   2.683   6.270
 4743WAT      O14470   0.802   1.356   3.044
 4743WAT     H114471   0.836   1.393   3.131
 4743WAT     H214472   0.762   1.266   3.060
 4744WAT      O14473   0.862   4.619   0.158
 4744WAT     H114474   0.833   4.525   0.171
 4744WAT     H214475   0.797   4.667   0.100
 4745WAT      O14476   6.019   7.982   1.764
 4745WAT     H114477   5.956   7.959   1.838
 4745WAT     H214478   6.067   8.067   1.787
 4746WAT      O14479   9.399   0.850   8.418
 4746WAT     H114480   9.475   0.907   8.450
 4746WAT     H214481   9.379   0.779   8.486
 4747WAT      O14482   6.338   5.949   8.450
 4747WAT     H114483   6.425   5.907   8.475
 4747WAT     H214484   6.270   5.930   8.520
 4748WAT      O14485   3.633   1.209   8.772
 4748WAT     H114486   3.580   1.290   8.796
 4748WAT     H214487   3.730   1.232   8.771
 4749WAT      O14488   0.910   5.162   3.180
 4749WAT     H114489   0.848   5.166   3.102
 4749WAT     H214490   0.875   5.220   3.254
 4750WAT      O14491   1.192   2.510   0.195
 4750WAT     H114492   1.263   2.501   0.124
 4750WAT     H214493   1.232   2.491   0.284
 4751WAT      O14494   5.740   8.361   6.594
 4751WAT     H114495   5.650   8.387   6.629
 4751WAT     H214496   5.732   8.279   6.538
 4752WAT      O14497   4.892   5.913   6.672
 4752WAT     H114498   4.954   5.961   6.610
 4752WAT     H214499   4.797   5.936   6.650
 4753WAT      O14500   0.268   7.388   0.190
 4753WAT     H114501   0.365   7.368   0.204
 4753WAT     H214502   0.257   7.459   0.122
 4754WAT      O14503   1.622   2.325   3.286
 4754WAT     H114504   1.654   2.379   3.364
 4754WAT     H214505   1.698   2.305   3.225
 4755WAT      O14506   1.897   4.597   7.113
 4755WAT     H114507   1.970   4.604   7.181
 4755WAT     H214508   1.887   4.502   7.084
 4756WAT      O14509   8.559   2.115   5.773
 4756WAT     H114510   8.625   2.116   5.699
 4756WAT     H214511   8.557   2.024   5.815
 4757WAT      O14512   9.573   9.242   9.068
 4757WAT     H114513   9.593   9.292   8.983
 4757WAT     H214514   9.479   9.208   9.065
 4758WAT      O14515   0.810   5.964   7.370
 4758WAT     H114516   0.830   5.883   7.314
 4758WAT     H214517   0.775   6.036   7.311
 4759WAT      O14518   0.078   3.488   5.453
 4759WAT     H114519   0.103   3.482   5.549
 4759WAT     H214520  -0.019   3.467   5.442
 4760WAT      O14521   1.908   5.211   1.167
 4760WAT     H114522   1.909   5.291   1.226
 4760WAT     H214523   1.855   5.138   1.210
 4761WAT      O14524   6.855   8.488   8.711
 4761WAT     H114525   6.935   8.460   8.659
 4761WAT     H214526   6.803   8.555   8.658
 4762WAT      O14527   6.905   1.502   3.801
 4762WAT     H114528   6.997   1.538   3.786
 4762WAT     H214529   6.911   1.422   3.860
 4763WAT      O14530   8.790   8.653   7.122
 4763WAT     H114531   8.766   8.573   7.178
 4763WAT     H214532   8.802   8.733   7.182
 4764WAT      O14533   9.473   7.907   2.025
 4764WAT     H114534   9.419   7.966   2.085
 4764WAT     H214535   9.452   7.811   2.045
 4765WAT      O14536   5.340   0.859   4.228
 4765WAT     H114537   5.426   0.809   4.239
 4765WAT     H214538   5.309   0.849   4.133
 4766WAT      O14539   7.475   5.470   9.455
 4766WAT     H114540   7.392   5.481   9.400
 4766WAT     H214541   7.456   5.496   9.550
 4767WAT      O14542   4.432   2.589   1.439
 4767WAT     H114543   4.344   2.565   1.399
 4767WAT     H214544   4.492   2.627   1.369
 4768WAT      O14545   8.269   5.385   0.822
 4768WAT     H114546   8.211   5.373   0.740
 4768WAT     H214547   8.211   5.406   0.900
 4769WAT      O14548   5.885   5.963   7.630
 4769WAT     H114549   5.840   6.033   7.575
 4769WAT     H214550   5.820   5.923   7.694
 4770WAT      O14551   4.006   8.627   7.064
 4770WAT     H114552   3.962   8.570   6.995
 4770WAT     H214553   4.092   8.585   7.093
 4771WAT      O14554   5.493   7.576   1.981
 4771WAT     H114555   5.437   7.659   1.976
 4771WAT     H214556   5.560   7.586   2.055
 4772WAT      O14557   6.602   8.256   8.091
 4772WAT     H114558   6.655   8.340   8.076
 4772WAT     H214559   6.578   8.249   8.188
 4773WAT      O14560   9.467   0.346   1.061
 4773WAT     H114561   9.440   0.345   0.965
 4773WAT     H214562   9.554   0.395   1.071
 4774WAT      O14563   4.498   5.666   8.603
 4774WAT     H114564   4.459   5.718   8.526
 4774WAT     H214565   4.597   5.664   8.594
 4775WAT      O14566   2.925   8.427   3.348
 4775WAT     H114567   2.834   8.439   3.387
 4775WAT     H214568   2.924   8.351   3.283
 4776WAT      O14569   0.061   3.940   3.154
 4776WAT     H114570   0.013   4.027   3.163
 4776WAT     H214571   0.155   3.957   3.122
 4777WAT      O14572   6.023   1.878   3.119
 4777WAT     H114573   5.953   1.811   3.095
 4777WAT     H214574   6.101   1.831   3.160
 4778WAT      O14575   7.872   5.481   5.140
 4778WAT     H114576   7.952   5.527   5.102
 4778WAT     H214577   7.789   5.529   5.112
 4779WAT      O14578   0.282   5.706   0.098
 4779WAT     H114579   0.277   5.773   0.172
 4779WAT     H214580   0.377   5.693   0.071
 4780WAT      O14581   2.052   9.237   4.086
 4780WAT     H114582   2.124   9.231   4.155
 4780WAT     H214583   2.080   9.300   4.014
 4781WAT      O14584   0.893   2.945   1.360
 4781WAT     H114585   0.867   2.983   1.272
 4781WAT     H214586   0.873   3.012   1.432
 4782WAT      O14587   5.214   0.468   8.609
 4782WAT     H114588   5.164   0.382   8.621
 4782WAT     H214589   5.261   0.467   8.521
 4783WAT      O14590   8.455   8.757   5.004
 4783WAT     H114591   8.389   8.829   5.025
 4783WAT     H214592   8.529   8.795   4.948
 4784WAT      O14593   7.675   7.469   3.815
 4784WAT     H114594   7.581   7.498   3.829
 4784WAT     H214595   7.735   7.520   3.876
 4785WAT      O14596   1.564   1.000   1.384
 4785WAT     H114597   1.479   0.950   1.369
 4785WAT     H214598   1.639   0.954   1.337
 4786WAT      O14599   4.621   7.634   9.292
 4786WAT     H114600   4.571   7.560   9.248
 4786WAT     H214601   4.642   7.608   9.387
 4787WAT      O14602   1.069   7.179   1.112
 4787WAT     H114603   1.066   7.167   1.212
 4787WAT     H214604   1.098   7.272   1.091
 4788WAT      O14605   5.975   6.629   6.433
 4788WAT     H114606   5.887   6.591   6.404
 4788WAT     H214607   5.960   6.718   6.477
 4789WAT      O14608   4.829   2.909   5.838
 4789WAT     H114609   4.805   2.989   5.783
 4789WAT     H214610   4.915   2.871   5.805
 4790WAT      O14611   8.856   0.383   1.826
 4790WAT     H114612   8.887   0.300   1.780
 4790WAT     H214613   8.756   0.386   1.827
 4791WAT      O14614   6.455   1.743   8.965
 4791WAT     H114615   6.391   1.704   9.030
 4791WAT     H214616   6.438   1.704   8.874
 4792WAT      O14617   0.024   6.049   4.840
 4792WAT     H114618  -0.022   6.116   4.898
 4792WAT     H214619   0.097   6.004   4.892
 4793WAT      O14620   5.628   5.474   7.277
 4793WAT     H114621   5.585   5.385   7.266
 4793WAT     H214622   5.698   5.469   7.348
 4794WAT      O14623   0.256   2.889   4.318
 4794WAT     H114624   0.332   2.848   4.368
 4794WAT     H214625   0.266   2.989   4.318
 4795WAT      O14626   8.125   6.641   5.434
 4795WAT     H114627   8.039   6.590   5.428
 4795WAT     H214628   8.197   6.581   5.465
 4796WAT      O14629   1.076   9.519   2.665
 4796WAT     H114630   0.995   9.477   2.625
 4796WAT     H214631   1.137   9.549   2.592
 4797WAT      O14632   7.694   2.775   6.406
 4797WAT     H114633   7.723   2.682   6.432
 4797WAT     H214634   7.743   2.803   6.323
 4798WAT      O14635   7.179   4.843   2.212
 4798WAT     H114636   7.265   4.867   2.167
 4798WAT     H214637   7.188   4.753   2.255
 4799WAT      O14638   4.192   9.757   2.786
 4799WAT     H114639   4.268   9.764   2.851
 4799WAT     H214640   4.161   9.662   2.781
 4800WAT      O14641   9.860   2.245   3.012
 4800WAT     H114642   9.880   2.308   3.087
 4800WAT     H214643   9.766   2.212   3.021
 4801WAT      O14644   2.198   6.256   9.075
 4801WAT     H114645   2.253   6.338   9.089
 4801WAT     H214646   2.146   6.236   9.158
 4802WAT      O14647   9.372   4.325   1.435
 4802WAT     H114648   9.276   4.351   1.438
 4802WAT     H214649   9.387   4.260   1.360
 4803WAT      O14650   7.825   5.178   1.923
 4803WAT     H114651   7.759   5.156   1.995
 4803WAT     H214652   7.915   5.143   1.948
 4804WAT      O14653   4.542   1.819   4.424
 4804WAT     H114654   4.555   1.905   4.375
 4804WAT     H214655   4.444   1.806   4.443
 4805WAT      O14656   1.020   1.091   2.218
 4805WAT     H114657   1.115   1.122   2.219
 4805WAT     H214658   1.017   0.992   2.229
 4806WAT      O14659   0.322   5.087   0.824
 4806WAT     H114660   0.310   5.141   0.741
 4806WAT     H214661   0.284   5.137   0.902
 4807WAT      O14662   2.356   2.800   5.850
 4807WAT     H114663   2.452   2.787   5.874
 4807WAT     H214664   2.331   2.738   5.775
 4808WAT      O14665   2.382   4.963   8.506
 4808WAT     H114666   2.357   5.047   8.554
 4808WAT     H214667   2.305   4.899   8.507
 4809WAT      O14668   7.309   5.283   6.176
 4809WAT     H114669   7.225   5.311   6.131
 4809WAT     H214670   7.310   5.319   6.270
 4810WAT      O14671   2.401   5.836   9.006
 4810WAT     H114672   2.448   5.921   8.984
 4810WAT     H214673   2.314   5.857   9.052
 4811WAT      O14674   2.204   5.991   4.746
 4811WAT     H114675   2.302   5.995   4.728
 4811WAT     H214676   2.178   6.068   4.805
 4812WAT      O14677   8.287   8.097   4.832
 4812WAT     H114678   8.371   8.151   4.843
 4812WAT     H214679   8.297   8.035   4.754
 4813WAT      O14680   2.996   5.243   3.498
 4813WAT     H114681   2.995   5.155   3.452
 4813WAT     H214682   2.903   5.273   3.516
 4814WAT      O14683   1.509   0.362   7.169
 4814WAT     H114684   1.510   0.440   7.107
 4814WAT     H214685   1.591   0.364   7.226
 4815WAT      O14686   1.910   2.910   5.871
 4815WAT     H114687   1.956   2.828   5.835
 4815WAT     H214688   1.924   2.986   5.809
 4816WAT      O14689   1.185   4.587   9.446
 4816WAT     H114690   1.112   4.653   9.433
 4816WAT     H214691   1.273   4.631   9.429
 4817WAT      O14692   3.414   0.228   7.164
 4817WAT     H114693   3.467   0.179   7.234
 4817WAT     H214694   3.376   0.162   7.099
 4818WAT      O14695   0.724   6.904   4.926
 4818WAT     H114696   0.802   6.966   4.914
 4818WAT     H214697   0.640   6.952   4.903
 4819WAT      O14698   9.477   7.782   5.146
 4819WAT     H114699   9.477   7.871   5.191
 4819WAT     H214700   9.445   7.712   5.210
 4820WAT      O14701   2.000   8.475   7.394
 4820WAT     H114702   1.925   8.535   7.368
 4820WAT     H214703   2.065   8.468   7.318
 4821WAT      O14704   1.829   5.853   9.336
 4821WAT     H114705   1.823   5.944   9.377
 4821WAT     H214706   1.737   5.813   9.331
 4822WAT      O14707   5.985   3.665   7.193
 4822WAT     H114708   5.914   3.693   7.258
 4822WAT     H214709   6.072   3.653   7.243
 4823WAT      O14710   5.737   2.042   5.736
 4823WAT     H114711   5.685   2.126   5.745
 4823WAT     H214712   5.719   1.983   5.815
 4824WAT      O14713   4.523   5.070   2.436
 4824WAT     H114714   4.474   5.026   2.511
 4824WAT     H214715   4.458   5.102   2.368
 4825WAT      O14716   9.454   5.464   8.766
 4825WAT     H114717   9.451   5.472   8.866
 4825WAT     H214718   9.478   5.552   8.726
 4826WAT      O14719   4.642   5.117   6.197
 4826WAT     H114720   4.628   5.169   6.113
 4826WAT     H214721   4.630   5.178   6.276
 4827WAT      O14722   5.137   1.156   5.697
 4827WAT     H114723   5.107   1.225   5.764
 4827WAT     H214724   5.235   1.168   5.679
 4828WAT      O14725   4.696   2.573   8.346
 4828WAT     H114726   4.619   2.589   8.283
 4828WAT     H214727   4.668   2.509   8.417
 4829WAT      O14728   3.049   0.685   0.161
 4829WAT     H114729   3.134   0.685   0.109
 4829WAT     H214730   2.985   0.750   0.121
 4830WAT      O14731   7.081   0.862   5.330
 4830WAT     H114732   7.045   0.856   5.423
 4830WAT     H214733   7.100   0.770   5.295
 4831WAT      O14734   9.532   6.458   2.229
 4831WAT     H114735   9.501   6.413   2.146
 4831WAT     H214736   9.627   6.432   2.249
 4832WAT      O14737   3.142   5.290   3.730
 4832WAT     H114738   3.138   5.208   3.787
 4832WAT     H214739   3.094   5.273   3.644
 4833WAT      O14740   0.343   0.330   0.665
 4833WAT     H114741   0.441   0.348   0.657
 4833WAT     H214742   0.298   0.409   0.706
 4834WAT      O14743   4.853   9.794   2.184
 4834WAT     H114744   4.836   9.800   2.086
 4834WAT     H214745   4.861   9.698   2.211
 4835WAT      O14746   4.167   4.879   6.081
 4835WAT     H114747   4.177   4.937   6.000
 4835WAT     H214748   4.230   4.802   6.075
 4836WAT      O14749   2.522   4.432   6.507
 4836WAT     H114750   2.462   4.414   6.429
 4836WAT     H214751   2.524   4.352   6.567
 4837WAT      O14752   2.080   1.847   0.835
 4837WAT     H114753   2.122   1.935   0.857
 4837WAT     H214754   2.033   1.810   0.915
 4838WAT      O14755   2.394   0.538   2.999
 4838WAT     H114756   2.364   0.447   2.970
 4838WAT     H214757   2.465   0.530   3.069
 4839WAT      O14758   7.566   1.098   5.185
 4839WAT     H114759   7.489   1.054   5.233
 4839WAT     H214760   7.652   1.060   5.218
 4840WAT      O14761   7.099   0.301   3.088
 4840WAT     H114762   7.172   0.256   3.139
 4840WAT     H214763   7.122   0.303   2.991
 4841WAT      O14764   3.925   6.838   1.266
 4841WAT     H114765   3.977   6.859   1.184
 4841WAT     H214766   3.827   6.842   1.245
 4842WAT      O14767   8.297   7.364   3.831
 4842WAT     H114768   8.274   7.351   3.928
 4842WAT     H214769   8.387   7.324   3.813
 4843WAT      O14770   2.824   2.366   1.598
 4843WAT     H114771   2.751   2.402   1.657
 4843WAT     H214772   2.784   2.333   1.513
 4844WAT      O14773   7.482   6.867   6.228
 4844WAT     H114774   7.456   6.775   6.258
 4844WAT     H214775   7.485   6.869   6.128
 4845WAT      O14776   0.202   4.362   7.818
 4845WAT     H114777   0.126   4.313   7.777
 4845WAT     H214778   0.220   4.446   7.767
 4846WAT      O14779   5.908   6.104   8.261
 4846WAT     H114780   5.907   6.006   8.283
 4846WAT     H214781   5.902   6.115   8.162
 4847WAT      O14782   9.135   6.683   6.595
 4847WAT     H114783   9.144   6.746   6.518
 4847WAT     H214784   9.091   6.730   6.671
 4848WAT      O14785   4.144   7.584   1.238
 4848WAT     H114786   4.138   7.625   1.147
 4848WAT     H214787   4.192   7.647   1.299
 4849WAT      O14788   9.480   8.428   3.305
 4849WAT     H114789   9.480   8.333   3.273
 4849WAT     H214790   9.560   8.445   3.361
 4850WAT      O14791   5.144   3.818   1.301
 4850WAT     H114792   5.178   3.725   1.314
 4850WAT     H214793   5.108   3.828   1.208
 4851WAT      O14794   5.752   1.842   6.375
 4851WAT     H114795   5.833   1.841   6.433
 4851WAT     H214796   5.746   1.929   6.326
 4852WAT      O14797   3.699   0.746   2.698
 4852WAT     H114798   3.733   0.656   2.725
 4852WAT     H214799   3.773   0.797   2.653
 4853WAT      O14800   7.667   8.052   4.083
 4853WAT     H114801   7.741   8.096   4.032
 4853WAT     H214802   7.705   7.994   4.155
 4854WAT      O14803   8.285   4.690   3.379
 4854WAT     H114804   8.370   4.692   3.432
 4854WAT     H214805   8.303   4.720   3.285
 4855WAT      O14806   3.387   8.182   1.967
 4855WAT     H114807   3.374   8.267   2.019
 4855WAT     H214808   3.446   8.200   1.889
 4856WAT      O14809   6.129   1.769   3.538
 4856WAT     H114810   6.075   1.729   3.612
 4856WAT     H214811   6.181   1.847   3.573
 4857WAT      O14812   3.961   1.684   5.965
 4857WAT     H114813   3.925   1.733   5.886
 4857WAT     H214814   3.941   1.735   6.049
 4858WAT      O14815   4.039   9.375   4.527
 4858WAT     H114816   4.019   9.451   4.464
 4858WAT     H214817   4.137   9.371   4.544
 4859WAT      O14818   4.575   2.835   8.719
 4859WAT     H114819   4.624   2.895   8.782
 4859WAT     H214820   4.612   2.846   8.627
 4860WAT      O14821   0.064   7.262   5.601
 4860WAT     H114822   0.151   7.216   5.586
 4860WAT     H214823   0.064   7.349   5.552
 4861WAT      O14824   3.038   2.418   7.071
 4861WAT     H114825   2.969   2.490   7.075
 4861WAT     H214826   3.034   2.373   6.981
 4862WAT      O14827   6.017   4.433   7.476
 4862WAT     H114828   5.979   4.355   7.526
 4862WAT     H214829   5.996   4.423   7.379
 4863WAT      O14830   4.317   8.075   4.675
 4863WAT     H114831   4.269   8.040   4.755
 4863WAT     H214832   4.389   8.138   4.704
 4864WAT      O14833   0.984   4.760   9.454
 4864WAT     H114834   0.960   4.779   9.549
 4864WAT     H214835   0.903   4.730   9.404
 4865WAT      O14836   5.987   6.053   4.416
 4865WAT     H114837   5.933   6.091   4.341
 4865WAT     H214838   5.936   6.063   4.502
 4866WAT      O14839   2.691   3.890   1.966
 4866WAT     H114840   2.672   3.831   1.887
 4866WAT     H214841   2.605   3.926   2.002
 4867WAT      O14842   3.388   8.594   0.193
 4867WAT     H114843   3.442   8.677   0.178
 4867WAT     H214844   3.308   8.595   0.134
 4868WAT      O14845   9.039   6.036   4.304
 4868WAT     H114846   9.072   6.037   4.210
 4868WAT     H214847   9.089   5.966   4.356
 4869WAT      O14848   0.779   1.596   2.334
 4869WAT     H114849   0.804   1.560   2.424
 4869WAT     H214850   0.863   1.613   2.281
 4870WAT      O14851   1.912   1.561   3.965
 4870WAT     H114852   1.840   1.527   3.905
 4870WAT     H214853   1.932   1.493   4.035
 4871WAT      O14854   9.045   8.406   8.429
 4871WAT     H114855   9.112   8.399   8.355
 4871WAT     H214856   9.092   8.403   8.517
 4872WAT      O14857   6.255   7.444   9.375
 4872WAT     H114858   6.266   7.539   9.345
 4872WAT     H214859   6.162   7.431   9.410
 4873WAT      O14860   8.665   5.367   7.144
 4873WAT     H114861   8.657   5.330   7.236
 4873WAT     H214862   8.609   5.450   7.136
 4874WAT      O14863   0.378   7.259   5.631
 4874WAT     H114864   0.473   7.229   5.626
 4874WAT     H214865   0.373   7.358   5.619
 4875WAT      O14866   4.081   4.634   4.121
 4875WAT     H114867   3.986   4.658   4.140
 4875WAT     H214868   4.122   4.705   4.063
 4876WAT      O14869   5.401   0.501   2.206
 4876WAT     H114870   5.489   0.491   2.160
 4876WAT     H214871   5.415   0.539   2.297
 4877WAT      O14872   7.938   8.332   2.293
 4877WAT     H114873   7.846   8.369   2.305
 4877WAT     H214874   7.932   8.241   2.252
 4878WAT      O14875   6.642   8.737   9.206
 4878WAT     H114876   6.699   8.671   9.156
 4878WAT     H214877   6.701   8.802   9.254
 4879WAT      O14878   4.424   3.031   7.393
 4879WAT     H114879   4.522   3.049   7.403
 4879WAT     H214880   4.408   2.932   7.396
 4880WAT      O14881   7.508   0.155   2.156
 4880WAT     H114882   7.456   0.077   2.120
 4880WAT     H214883   7.444   0.221   2.196
 4881WAT      O14884   4.470   8.200   0.090
 4881WAT     H114885   4.531   8.268   0.049
 4881WAT     H214886   4.496   8.109   0.059
 4882WAT      O14887   2.451   7.776   1.659
 4882WAT     H114888   2.459   7.704   1.590
 4882WAT     H214889   2.515   7.850   1.638
 4883WAT      O14890   3.804   2.857   5.705
 4883WAT     H114891   3.829   2.929   5.640
 4883WAT     H214892   3.717   2.816   5.678
 4884WAT      O14893   4.422   0.563   0.141
 4884WAT     H114894   4.514   0.523   0.137
 4884WAT     H214895   4.358   0.504   0.091
 4885WAT      O14896   9.598   1.529   4.871
 4885WAT     H114897   9.657   1.450   4.890
 4885WAT     H214898   9.579   1.576   4.957
 4886WAT      O14899   2.466   2.298   1.303
 4886WAT     H114900   2.518   2.358   1.242
 4886WAT     H214901   2.373   2.288   1.269
 4887WAT      O14902   2.369   6.176   2.274
 4887WAT     H114903   2.339   6.251   2.215
 4887WAT     H214904   2.296   6.108   2.280
 4888WAT      O14905   6.185   0.423   8.702
 4888WAT     H114906   6.245   0.345   8.719
 4888WAT     H214907   6.110   0.422   8.769
 4889WAT      O14908   1.524   5.120   4.135
 4889WAT     H114909   1.463   5.188   4.177
 4889WAT     H214910   1.576   5.074   4.207
 4890WAT      O14911   9.338   6.752   0.614
 4890WAT     H114912   9.334   6.848   0.644
 4890WAT     H214913   9.429   6.716   0.632
 4891WAT      O14914   4.616   8.989   2.530
 4891WAT     H114915   4.548   9.030   2.469
 4891WAT     H214916   4.667   8.919   2.480
 4892WAT      O14917   5.326   7.322   9.780
 4892WAT     H114918   5.301   7.345   9.874
 4892WAT     H214919   5.279   7.238   9.753
 4893WAT      O14920   4.735   7.597   4.096
 4893WAT     H114921   4.700   7.559   4.010
 4893WAT     H214922   4.831   7.570   4.108
 4894WAT      O14923   0.864   1.640   3.053
 4894WAT     H114924   0.905   1.666   2.966
 4894WAT     H214925   0.812   1.555   3.041
 4895WAT      O14926   5.218   4.067   5.884
 4895WAT     H114927   5.181   4.051   5.975
 4895WAT     H214928   5.152   4.119   5.829
 4896WAT      O14929   8.621   9.109   0.197
 4896WAT     H114930   8.580   9.198   0.175
 4896WAT     H214931   8.584   9.076   0.283
 4897WAT      O14932   0.049   7.127   8.518
 4897WAT     H114933  -0.021   7.167   8.577
 4897WAT     H214934   0.048   7.027   8.528
 4898WAT      O14935   1.881   8.282   3.940
 4898WAT     H114936   1.879   8.191   3.982
 4898WAT     H214937   1.816   8.285   3.864
 4899WAT      O14938   9.279   6.823   2.064
 4899WAT     H114939   9.333   6.875   1.998
 4899WAT     H214940   9.340   6.780   2.130
 4900WAT      O14941   1.941   7.587   8.963
 4900WAT     H114942   1.999   7.656   8.919
 4900WAT     H214943   1.991   7.500   8.969
 4901WAT      O14944   0.605   7.020   4.238
 4901WAT     H114945   0.529   6.966   4.275
 4901WAT     H214946   0.618   7.102   4.294
 4902WAT      O14947   2.414   0.078   5.084
 4902WAT     H114948   2.488   0.134   5.048
 4902WAT     H214949   2.338   0.136   5.113
 4903WAT      O14950   3.060   3.509   2.543
 4903WAT     H114951   3.070   3.449   2.622
 4903WAT     H214952   3.150   3.531   2.506
 4904WAT      O14953   1.404   5.492   7.630
 4904WAT     H114954   1.437   5.556   7.699
 4904WAT     H214955   1.441   5.401   7.649
 4905WAT      O14956   5.614   3.622   3.472
 4905WAT     H114957   5.575   3.621   3.564
 4905WAT     H214958   5.685   3.693   3.467
 4906WAT      O14959   4.931   4.179   3.978
 4906WAT     H114960   4.985   4.184   3.894
 4906WAT     H214961   4.843   4.223   3.964
 4907WAT      O14962   5.651   9.153   9.399
 4907WAT     H114963   5.627   9.195   9.487
 4907WAT     H214964   5.582   9.175   9.331
 4908WAT      O14965   7.368   0.392   6.977
 4908WAT     H114966   7.343   0.467   6.916
 4908WAT     H214967   7.466   0.372   6.966
 4909WAT      O14968   3.272   8.399   9.704
 4909WAT     H114969   3.272   8.392   9.605
 4909WAT     H214970   3.220   8.323   9.743
 4910WAT      O14971   6.802   0.465   6.144
 4910WAT     H114972   6.761   0.501   6.060
 4910WAT     H214973   6.737   0.474   6.220
 4911WAT      O14974   7.304   8.980   1.268
 4911WAT     H114975   7.244   9.055   1.296
 4911WAT     H214976   7.258   8.892   1.286
 4912WAT      O14977   3.523   2.332   5.421
 4912WAT     H114978   3.619   2.359   5.412
 4912WAT     H214979   3.515   2.259   5.490
 4913WAT      O14980   2.752   3.917   1.137
 4913WAT     H114981   2.849   3.892   1.144
 4913WAT     H214982   2.731   3.989   1.204
 4914WAT      O14983   3.290   3.451   9.407
 4914WAT     H114984   3.281   3.352   9.413
 4914WAT     H214985   3.287   3.479   9.311
 4915WAT      O14986   8.428   9.391   5.907
 4915WAT     H114987   8.518   9.360   5.937
 4915WAT     H214988   8.433   9.488   5.883
 4916WAT      O14989   9.499   3.390   8.961
 4916WAT     H114990   9.446   3.309   8.986
 4916WAT     H214991   9.588   3.363   8.925
 4917WAT      O14992   1.722   2.736   1.944
 4917WAT     H114993   1.635   2.753   1.991
 4917WAT     H214994   1.713   2.655   1.886
 4918WAT      O14995   6.431   5.058   3.817
 4918WAT     H114996   6.413   5.110   3.900
 4918WAT     H214997   6.380   4.972   3.819
 4919WAT      O14998   4.256   5.525   7.058
 4919WAT     H114999   4.234   5.476   6.974
 4919WAT     H215000   4.321   5.472   7.112
 4920WAT      O15001   9.635   4.171   3.742
 4920WAT     H115002   9.679   4.083   3.759
 4920WAT     H215003   9.704   4.238   3.714
 4921WAT      O15004   0.004   3.586   6.850
 4921WAT     H115005   0.029   3.670   6.897
 4921WAT     H215006   0.041   3.587   6.757
 4922WAT      O15007   0.166   3.467   1.069
 4922WAT     H115008   0.070   3.441   1.066
 4922WAT     H215009   0.174   3.566   1.057
 4923WAT      O15010   1.512   3.817   6.956
 4923WAT     H115011   1.423   3.850   6.988
 4923WAT     H215012   1.526   3.723   6.987
 4924WAT      O15013   4.125   7.711   0.977
 4924WAT     H115014   4.056   7.753   0.919
 4924WAT     H215015   4.209   7.765   0.975
 4925WAT      O15016   2.283   1.407   2.416
 4925WAT     H115017   2.337   1.335   2.372
 4925WAT     H215018   2.299   1.404   2.515
 4926WAT      O15019   7.194   7.385   9.421
 4926WAT     H115020   7.144   7.460   9.378
 4926WAT     H215021   7.129   7.318   9.458
 4927WAT      O15022   8.025   6.066   4.517
 4927WAT     H115023   7.977   6.135   4.462
 4927WAT     H215024   8.087   6.110   4.580
 4928WAT      O15025   6.283   1.684   5.208
 4928WAT     H115026   6.353   1.756   5.202
 4928WAT     H215027   6.324   1.601   5.245
 4929WAT      O15028   0.810   6.992   4.659
 4929WAT     H115029   0.827   6.895   4.641
 4929WAT     H215030   0.879   7.047   4.611
 4930WAT      O15031   5.429   5.594   5.753
 4930WAT     H115032   5.383   5.624   5.669
 4930WAT     H215033   5.410   5.659   5.827
 4931WAT      O15034   6.279   4.594   6.025
 4931WAT     H115035   6.301   4.636   5.937
 4931WAT     H215036   6.349   4.619   6.092
 4932WAT      O15037   7.470   1.555   2.183
 4932WAT     H115038   7.548   1.562   2.121
 4932WAT     H215039   7.391   1.600   2.141
 4933WAT      O15040   1.505   0.519   8.549
 4933WAT     H115041   1.472   0.425   8.548
 4933WAT     H215042   1.595   0.522   8.593
 4934WAT      O15043   9.296   5.566   2.140
 4934WAT     H115044   9.226   5.494   2.144
 4934WAT     H215045   9.378   5.534   2.188
 4935WAT      O15046   2.625   1.170   4.944
 4935WAT     H115047   2.673   1.257   4.937
 4935WAT     H215048   2.555   1.177   5.015
 4936WAT      O15049   1.545   8.280   6.611
 4936WAT     H115050   1.493   8.322   6.686
 4936WAT     H215051   1.575   8.189   6.638
 4937WAT      O15052   4.714   0.441   2.990
 4937WAT     H115053   4.623   0.416   2.956
 4937WAT     H215054   4.754   0.364   3.039
 4938WAT      O15055   7.339   5.643   6.149
 4938WAT     H115056   7.416   5.594   6.191
 4938WAT     H215057   7.308   5.593   6.068
 4939WAT      O15058   2.352   2.361   9.850
 4939WAT     H115059   2.306   2.285   9.804
 4939WAT     H215060   2.414   2.406   9.786
 4940WAT      O15061   8.490   2.849   2.175
 4940WAT     H115062   8.549   2.860   2.255
 4940WAT     H215063   8.445   2.759   2.179
 4941WAT      O15064   3.494   9.452   9.348
 4941WAT     H115065   3.487   9.378   9.282
 4941WAT     H215066   3.587   9.491   9.345
 4942WAT      O15067   5.305   8.585   7.911
 4942WAT     H115068   5.375   8.624   7.971
 4942WAT     H215069   5.258   8.658   7.862
 4943WAT      O15070   8.847   9.576   3.758
 4943WAT     H115071   8.841   9.542   3.852
 4943WAT     H215072   8.815   9.506   3.695
 4944WAT      O15073   9.105   8.710   4.786
 4944WAT     H115074   9.171   8.658   4.732
 4944WAT     H215075   9.111   8.807   4.762
 4945WAT      O15076   2.185   9.366   9.428
 4945WAT     H115077   2.247   9.441   9.405
 4945WAT     H215078   2.181   9.355   9.527
 4946WAT      O15079   4.496   9.265   7.001
 4946WAT     H115080   4.557   9.211   7.060
 4946WAT     H215081   4.415   9.291   7.053
 4947WAT      O15082   5.911   6.833   2.791
 4947WAT     H115083   5.870   6.778   2.718
 4947WAT     H215084   5.839   6.882   2.839
 4948WAT      O15085   8.994   0.974   6.409
 4948WAT     H115086   8.904   1.004   6.440
 4948WAT     H215087   8.984   0.898   6.345
 4949WAT      O15088   9.135   6.389   1.272
 4949WAT     H115089   9.068   6.321   1.302
 4949WAT     H215090   9.226   6.346   1.268
 4950WAT      O15091   5.271   5.964   3.817
 4950WAT     H115092   5.238   5.997   3.905
 4950WAT     H215093   5.212   5.998   3.744
 4951WAT      O15094   8.459   7.544   8.699
 4951WAT     H115095   8.472   7.529   8.601
 4951WAT     H215096   8.417   7.634   8.713
 4952WAT      O15097   6.201   6.313   2.173
 4952WAT     H115098   6.101   6.317   2.183
 4952WAT     H215099   6.231   6.218   2.181
 4953WAT      O15100   3.388   3.113   7.178
 4953WAT     H115101   3.305   3.167   7.162
 4953WAT     H215102   3.431   3.093   7.090
 4954WAT      O15103   8.523   3.030   2.756
 4954WAT     H115104   8.561   2.955   2.702
 4954WAT     H215105   8.478   3.095   2.695
 4955WAT      O15106   3.119   0.034   3.058
 4955WAT     H115107   3.191  -0.028   3.029
 4955WAT     H215108   3.042   0.028   2.995
 4956WAT      O15109   6.780   4.770   3.819
 4956WAT     H115110   6.717   4.802   3.890
 4956WAT     H215111   6.856   4.721   3.863
 4957WAT      O15112   8.932   5.400   1.846
 4957WAT     H115113   8.924   5.456   1.764
 4957WAT     H215114   9.025   5.408   1.883
 4958WAT      O15115   3.961   1.691   0.115
 4958WAT     H115116   3.964   1.784   0.079
 4958WAT     H215117   3.866   1.660   0.120
 4959WAT      O15118   6.566   7.050   7.898
 4959WAT     H115119   6.527   7.011   7.815
 4959WAT     H215120   6.503   7.118   7.937
 4960WAT      O15121   0.325   7.137   7.273
 4960WAT     H115122   0.358   7.231   7.280
 4960WAT     H215123   0.349   7.088   7.357
 4961WAT      O15124   3.495   2.344   8.310
 4961WAT     H115125   3.457   2.371   8.398
 4961WAT     H215126   3.585   2.386   8.298
 4962WAT      O15127   0.576   6.446   2.202
 4962WAT     H115128   0.654   6.384   2.211
 4962WAT     H215129   0.527   6.451   2.290
 4963WAT      O15130   7.960   5.511   6.214
 4963WAT     H115131   7.980   5.416   6.194
 4963WAT     H215132   7.967   5.526   6.313
 4964WAT      O15133   3.231   9.274   8.128
 4964WAT     H115134   3.201   9.310   8.217
 4964WAT     H215135   3.185   9.324   8.055
 4965WAT      O15136   9.566   5.726   2.530
 4965WAT     H115137   9.563   5.806   2.590
 4965WAT     H215138   9.641   5.736   2.465
 4966WAT      O15139   9.380   8.135   2.710
 4966WAT     H115140   9.322   8.106   2.786
 4966WAT     H215141   9.348   8.094   2.625
 4967WAT      O15142   3.082   3.490   7.725
 4967WAT     H115143   3.003   3.513   7.668
 4967WAT     H215144   3.120   3.402   7.694
 4968WAT      O15145   8.474   6.282   0.801
 4968WAT     H115146   8.381   6.245   0.802
 4968WAT     H215147   8.539   6.209   0.822
 4969WAT      O15148   1.718   7.455   9.011
 4969WAT     H115149   1.788   7.523   8.988
 4969WAT     H215150   1.630   7.484   8.974
 4970WAT      O15151   0.851   3.098   0.690
 4970WAT     H115152   0.872   3.180   0.744
 4970WAT     H215153   0.851   3.018   0.750
 4971WAT      O15154   4.290   4.032   8.096
 4971WAT     H115155   4.203   3.996   8.130
 4971WAT     H215156   4.355   3.957   8.086
 4972WAT      O15157   3.269   2.776   2.343
 4972WAT     H115158   3.237   2.807   2.253
 4972WAT     H215159   3.248   2.846   2.411
 4973WAT      O15160   8.490   4.720   5.202
 4973WAT     H115161   8.440   4.661   5.265
 4973WAT     H215162   8.548   4.783   5.254
 4974WAT      O15163   9.186   4.500   8.808
 4974WAT     H115164   9.177   4.426   8.875
 4974WAT     H215165   9.100   4.552   8.805
 4975WAT      O15166   3.507   7.487   6.880
 4975WAT     H115167   3.473   7.501   6.973
 4975WAT     H215168   3.429   7.484   6.816
 4976WAT      O15169   3.587   0.403   2.616
 4976WAT     H115170   3.675   0.445   2.639
 4976WAT     H215171   3.589   0.306   2.639
 4977WAT      O15172   0.551   9.785   1.507
 4977WAT     H115173   0.565   9.806   1.603
 4977WAT     H215174   0.589   9.859   1.451
 4978WAT      O15175   1.163   3.227   3.259
 4978WAT     H115176   1.220   3.207   3.338
 4978WAT     H215177   1.196   3.175   3.180
 4979WAT      O15178   6.835   6.144   7.853
 4979WAT     H115179   6.918   6.183   7.814
 4979WAT     H215180   6.824   6.050   7.823
 4980WAT      O15181   1.384   4.347   6.737
 4980WAT     H115182   1.399   4.432   6.686
 4980WAT     H215183   1.468   4.293   6.738
 4981WAT      O15184   1.969   8.082   0.326
 4981WAT     H115185   1.875   8.101   0.355
 4981WAT     H215186   2.001   8.154   0.264
 4982WAT      O15187   5.405   3.981   6.404
 4982WAT     H115188   5.400   4.028   6.316
 4982WAT     H215189   5.415   4.050   6.477
 4983WAT      O15190   2.559   4.135   7.683
 4983WAT     H115191   2.486   4.073   7.655
 4983WAT     H215192   2.609   4.167   7.602
 4984WAT      O15193   1.188   1.608   8.105
 4984WAT     H115194   1.105   1.582   8.057
 4984WAT     H215195   1.267   1.569   8.057
 4985WAT      O15196   1.270   1.917   1.006
 4985WAT     H115197   1.188   1.944   0.954
 4985WAT     H215198   1.349   1.969   0.973
 4986WAT      O15199   1.361   2.962   9.430
 4986WAT     H115200   1.380   3.058   9.450
 4986WAT     H215201   1.421   2.931   9.356
 4987WAT      O15202   7.708   7.965   0.309
 4987WAT     H115203   7.700   7.997   0.215
 4987WAT     H215204   7.805   7.955   0.333
 4988WAT      O15205   3.274   7.219   2.710
 4988WAT     H115206   3.267   7.316   2.684
 4988WAT     H215207   3.302   7.165   2.630
 4989WAT      O15208   8.457   6.775   7.663
 4989WAT     H115209   8.402   6.815   7.589
 4989WAT     H215210   8.551   6.807   7.655
 4990WAT      O15211   1.352   8.187   1.689
 4990WAT     H115212   1.371   8.282   1.713
 4990WAT     H215213   1.266   8.181   1.639
 4991WAT      O15214   9.558   9.650   9.208
 4991WAT     H115215   9.555   9.621   9.303
 4991WAT     H215216   9.542   9.748   9.203
 4992WAT      O15217   8.435   0.036   4.804
 4992WAT     H115218   8.450   0.005   4.898
 4992WAT     H215219   8.450   0.134   4.798
 4993WAT      O15220   9.126   2.474   3.933
 4993WAT     H115221   9.110   2.547   4.000
 4993WAT     H215222   9.064   2.485   3.856
 4994WAT      O15223   1.635   3.321   4.858
 4994WAT     H115224   1.640   3.221   4.861
 4994WAT     H215225   1.604   3.350   4.767
 4995WAT      O15226   1.966   2.663   8.990
 4995WAT     H115227   1.870   2.664   8.965
 4995WAT     H215228   1.978   2.610   9.074
 4996WAT      O15229   4.195   0.452   5.151
 4996WAT     H115230   4.132   0.387   5.108
 4996WAT     H215231   4.148   0.539   5.166
 4997WAT      O15232   7.549   2.066   5.187
 4997WAT     H115233   7.486   2.098   5.258
 4997WAT     H215234   7.559   1.966   5.194
 4998WAT      O15235   0.123   5.279   6.993
 4998WAT     H115236   0.197   5.323   6.942
 4998WAT     H215237   0.038   5.286   6.941
 4999WAT      O15238   3.398   6.199   9.566
 4999WAT     H115239   3.481   6.201   9.621
 4999WAT     H215240   3.420   6.221   9.471
 5000WAT      O15241   8.400   4.996   8.237
 5000WAT     H115242   8.492   4.994   8.276
 5000WAT     H215243   8.366   5.090   8.236
 5001WAT      O15244   3.597   2.559   3.224
 5001WAT     H115245   3.517   2.571   3.284
 5001WAT     H215246   3.665   2.629   3.245
 5002WAT      O15247   5.169   6.721   1.867
 5002WAT     H115248   5.167   6.635   1.919
 5002WAT     H215249   5.152   6.703   1.771
 5003WAT      O15250   5.983   4.810   8.949
 5003WAT     H115251   6.062   4.749   8.943
 5003WAT     H215252   6.012   4.900   8.979
 5004WAT      O15253   9.085   1.528   4.960
 5004WAT     H115254   9.068   1.519   4.862
 5004WAT     H215255   9.164   1.474   4.985
 5005WAT      O15256   2.979   4.433   1.134
 5005WAT     H115257   2.979   4.526   1.096
 5005WAT     H215258   2.971   4.438   1.234
 5006WAT      O15259   9.858   8.039   5.758
 5006WAT     H115260   9.773   8.019   5.710
 5006WAT     H215261   9.885   8.133   5.740
 5007WAT      O15262   1.473   9.340   7.756
 5007WAT     H115263   1.459   9.277   7.832
 5007WAT     H215264   1.569   9.366   7.751
 5008WAT      O15265   2.663   7.830   8.676
 5008WAT     H115266   2.668   7.731   8.684
 5008WAT     H215267   2.755   7.867   8.657
 5009WAT      O15268   6.052   0.519   1.432
 5009WAT     H115269   6.037   0.589   1.362
 5009WAT     H215270   5.965   0.497   1.476
 5010WAT      O15271   0.472   8.614   1.475
 5010WAT     H115272   0.438   8.526   1.442
 5010WAT     H215273   0.399   8.661   1.524
 5011WAT      O15274   9.704   1.278   4.967
 5011WAT     H115275   9.663   1.244   5.051
 5011WAT     H215276   9.785   1.332   4.989
 5012WAT      O15277   4.150   6.615   7.261
 5012WAT     H115278   4.186   6.623   7.354
 5012WAT     H215279   4.137   6.519   7.238
 5013WAT      O15280   5.688   4.614   9.247
 5013WAT     H115281   5.693   4.515   9.259
 5013WAT     H215282   5.705   4.637   9.151
 5014WAT      O15283   9.723   5.603   8.473
 5014WAT     H115284   9.755   5.644   8.559
 5014WAT     H215285   9.738   5.668   8.398
 5015WAT      O15286   5.630   3.294   8.960
 5015WAT     H115287   5.584   3.380   8.939
 5015WAT     H215288   5.632   3.237   8.878
 5016WAT      O15289   1.203   9.094   0.179
 5016WAT     H115290   1.302   9.091   0.162
 5016WAT     H215291   1.185   9.071   0.274
 5017WAT      O15292   8.850   4.651   3.655
 5017WAT     H115293   8.848   4.566   3.603
 5017WAT     H215294   8.932   4.703   3.631
 5018WAT      O15295   2.461   4.071   2.752
 5018WAT     H115296   2.536   4.127   2.716
 5018WAT     H215297   2.493   4.019   2.831
 5019WAT      O15298   2.079   9.624   0.984
 5019WAT     H115299   2.126   9.536   0.974
 5019WAT     H215300   2.067   9.666   0.894
 5020WAT      O15301   8.986   9.585   9.673
 5020WAT     H115302   8.890   9.557   9.683
 5020WAT     H215303   9.004   9.662   9.735
 5021WAT      O15304   9.274   7.209   5.280
 5021WAT     H115305   9.263   7.293   5.226
 5021WAT     H215306   9.267   7.231   5.378
 5022WAT      O15307   8.895   3.453   5.855
 5022WAT     H115308   8.917   3.403   5.772
 5022WAT     H215309   8.796   3.460   5.864
 5023WAT      O15310   9.389   9.016   5.205
 5023WAT     H115311   9.404   9.111   5.234
 5023WAT     H215312   9.332   9.015   5.123
 5024WAT      O15313   0.599   6.585   6.237
 5024WAT     H115314   0.661   6.651   6.280
 5024WAT     H215315   0.647   6.498   6.224
 5025WAT      O15316   5.024   1.344   5.902
 5025WAT     H115317   5.049   1.359   5.998
 5025WAT     H215318   4.953   1.408   5.876
 5026WAT      O15319   9.499   6.915   6.719
 5026WAT     H115320   9.405   6.916   6.753
 5026WAT     H215321   9.562   6.941   6.792
 5027WAT      O15322   2.381   4.912   0.520
 5027WAT     H115323   2.402   4.971   0.598
 5027WAT     H215324   2.328   4.833   0.552
 5028WAT      O15325   8.995   8.448   7.477
 5028WAT     H115326   8.999   8.355   7.514
 5028WAT     H215327   9.024   8.512   7.548
 5029WAT      O15328   1.797   6.660   4.545
 5029WAT     H115329   1.746   6.728   4.597
 5029WAT     H215330   1.737   6.583   4.522
 5030WAT      O15331   5.804   4.502   0.566
 5030WAT     H115332   5.771   4.437   0.497
 5030WAT     H215333   5.893   4.471   0.600
 5031WAT      O15334   6.727   9.736   5.779
 5031WAT     H115335   6.784   9.813   5.807
 5031WAT     H215336   6.630   9.761   5.788
 5032WAT      O15337   1.326   3.712   2.661
 5032WAT     H115338   1.367   3.802   2.676
 5032WAT     H215339   1.231   3.723   2.631
 5033WAT      O15340   1.024   9.745   5.534
 5033WAT     H115341   1.109   9.726   5.582
 5033WAT     H215342   0.948   9.748   5.599
 5034WAT      O15343   3.535   4.037   7.158
 5034WAT     H115344   3.608   3.974   7.186
 5034WAT     H215345   3.448   4.007   7.199
 5035WAT      O15346   6.136   3.401   1.311
 5035WAT     H115347   6.124   3.437   1.404
 5035WAT     H215348   6.046   3.390   1.268
 5036WAT      O15349   1.115   8.405   2.464
 5036WAT     H115350   1.185   8.472   2.440
 5036WAT     H215351   1.072   8.432   2.550
 5037WAT      O15352   3.663   9.654   4.333
 5037WAT     H115353   3.618   9.608   4.411
 5037WAT     H215354   3.762   9.644   4.341
 5038WAT      O15355   5.236   8.609   0.371
 5038WAT     H115356   5.290   8.532   0.338
 5038WAT     H215357   5.225   8.677   0.299
 5039WAT      O15358   4.117   9.622   4.015
 5039WAT     H115359   4.030   9.572   4.009
 5039WAT     H215360   4.158   9.605   4.104
 5040WAT      O15361   2.117   0.603   9.803
 5040WAT     H115362   2.134   0.561   9.892
 5040WAT     H215363   2.078   0.694   9.817
 5041WAT      O15364   0.212   5.846   7.192
 5041WAT     H115365   0.206   5.898   7.107
 5041WAT     H215366   0.229   5.908   7.269
 5042WAT      O15367   2.553   5.497   7.960
 5042WAT     H115368   2.473   5.548   7.928
 5042WAT     H215369   2.629   5.511   7.896
 5043WAT      O15370   5.992   3.577   1.021
 5043WAT     H115371   5.936   3.505   1.061
 5043WAT     H215372   5.933   3.653   0.992
 5044WAT      O15373   5.164   4.846   7.142
 5044WAT     H115374   5.127   4.884   7.057
 5044WAT     H215375   5.093   4.793   7.188
 5045WAT      O15376   0.864   7.319   9.325
 5045WAT     H115377   0.919   7.377   9.385
 5045WAT     H215378   0.922   7.283   9.252
 5046WAT      O15379   3.844   9.615   7.680
 5046WAT     H115380   3.864   9.636   7.776
 5046WAT     H215381   3.774   9.678   7.646
 5047WAT      O15382   1.412   9.442   5.075
 5047WAT     H115383   1.410   9.506   5.153
 5047WAT     H215384   1.322   9.401   5.064
 5048WAT      O15385   3.942   6.783   2.114
 5048WAT     H115386   3.891   6.697   2.118
 5048WAT     H215387   3.934   6.830   2.203
 5049WAT      O15388   8.073   9.753   4.128
 5049WAT     H115389   7.992   9.780   4.075
 5049WAT     H215390   8.083   9.814   4.206
 5050WAT      O15391   3.645   2.987   4.021
 5050WAT     H115392   3.617   2.937   4.103
 5050WAT     H215393   3.676   2.921   3.951
 5051WAT      O15394   4.661   4.044   1.102
 5051WAT     H115395   4.670   3.990   1.186
 5051WAT     H215396   4.568   4.035   1.066
 5052WAT      O15397   6.990   6.882   7.185
 5052WAT     H115398   6.968   6.937   7.266
 5052WAT     H215399   7.058   6.930   7.130
 5053WAT      O15400   8.267   1.858   2.003
 5053WAT     H115401   8.257   1.942   2.056
 5053WAT     H215402   8.201   1.858   1.928
 5054WAT      O15403   6.664   2.346   9.130
 5054WAT     H115404   6.734   2.275   9.142
 5054WAT     H215405   6.702   2.422   9.078
 5055WAT      O15406   6.452   8.462   9.281
 5055WAT     H115407   6.542   8.503   9.266
 5055WAT     H215408   6.395   8.477   9.200
 5056WAT      O15409   7.292   8.712   7.429
 5056WAT     H115410   7.333   8.635   7.477
 5056WAT     H215411   7.197   8.724   7.458
 5057WAT      O15412   0.832   9.289   0.124
 5057WAT     H115413   0.795   9.198   0.142
 5057WAT     H215414   0.931   9.283   0.110
 5058WAT      O15415   4.342   9.052   8.137
 5058WAT     H115416   4.417   9.005   8.183
 5058WAT     H215417   4.255   9.010   8.162
 5059WAT      O15418   6.560   6.632   9.765
 5059WAT     H115419   6.510   6.563   9.817
 5059WAT     H215420   6.499   6.708   9.743
 5060WAT      O15421   4.380   0.098   5.466
 5060WAT     H115422   4.438   0.177   5.447
 5060WAT     H215423   4.316   0.121   5.540
 5061WAT      O15424   7.055   9.459   6.762
 5061WAT     H115425   7.047   9.396   6.685
 5061WAT     H215426   7.097   9.413   6.840
 5062WAT      O15427   5.203   2.035   8.013
 5062WAT     H115428   5.143   1.990   7.948
 5062WAT     H215429   5.297   2.035   7.978
 5063WAT      O15430   2.877   0.425   7.764
 5063WAT     H115431   2.797   0.458   7.815
 5063WAT     H215432   2.856   0.336   7.724
 5064WAT      O15433   8.800   6.625   0.987
 5064WAT     H115434   8.858   6.667   0.918
 5064WAT     H215435   8.743   6.696   1.029
 5065WAT      O15436   6.299   1.685   1.959
 5065WAT     H115437   6.392   1.679   1.924
 5065WAT     H215438   6.278   1.603   2.013
 5066WAT      O15439   2.696   0.422   5.205
 5066WAT     H115440   2.621   0.369   5.244
 5066WAT     H215441   2.778   0.410   5.262
 5067WAT      O15442   5.279   4.207   1.730
 5067WAT     H115443   5.278   4.131   1.794
 5067WAT     H215444   5.360   4.200   1.671
 5068WAT      O15445   0.996   1.806   3.959
 5068WAT     H115446   0.996   1.859   4.044
 5068WAT     H215447   1.089   1.792   3.928
 5069WAT      O15448   6.693   2.278   3.364
 5069WAT     H115449   6.651   2.360   3.403
 5069WAT     H215450   6.736   2.300   3.277
 5070WAT      O15451   2.858   2.107   1.349
 5070WAT     H115452   2.855   2.142   1.443
 5070WAT     H215453   2.950   2.072   1.330
 5071WAT      O15454   2.428   8.773   9.342
 5071WAT     H115455   2.414   8.817   9.253
 5071WAT     H215456   2.509   8.715   9.338
 5072WAT      O15457   9.302   5.966   5.405
 5072WAT     H115458   9.293   6.054   5.358
 5072WAT     H215459   9.398   5.950   5.427
 5073WAT      O15460   8.675   2.229   2.240
 5073WAT     H115461   8.753   2.289   2.259
 5073WAT     H215462   8.709   2.141   2.205
 5074WAT      O15463   3.580   1.741   8.824
 5074WAT     H115464   3.483   1.751   8.849
 5074WAT     H215465   3.618   1.831   8.802
 5075WAT      O15466   3.285   0.047   4.301
 5075WAT     H115467   3.254   0.139   4.275
 5075WAT     H215468   3.385   0.041   4.290
 5076WAT      O15469   6.242   3.020   9.883
 5076WAT     H115470   6.205   2.928   9.867
 5076WAT     H215471   6.168   3.087   9.881
 5077WAT      O15472   3.775   2.916   8.117
 5077WAT     H115473   3.804   2.821   8.127
 5077WAT     H215474   3.853   2.977   8.132
 5078WAT      O15475   1.812   9.393   3.052
 5078WAT     H115476   1.780   9.298   3.043
 5078WAT     H215477   1.815   9.418   3.148
 5079WAT      O15478   6.996   6.861   3.671
 5079WAT     H115479   7.077   6.804   3.684
 5079WAT     H215480   6.929   6.841   3.743
 5080WAT      O15481   1.465   2.731   0.130
 5080WAT     H115482   1.406   2.754   0.208
 5080WAT     H215483   1.492   2.816   0.084
 5081WAT      O15484   0.535   6.510   3.080
 5081WAT     H115485   0.534   6.555   2.990
 5081WAT     H215486   0.599   6.557   3.140
 5082WAT      O15487   0.064   6.250   9.868
 5082WAT     H115488   0.019   6.164   9.892
 5082WAT     H215489  -0.004   6.317   9.840
 5083WAT      O15490   8.511   7.382   0.924
 5083WAT     H115491   8.530   7.478   0.905
 5083WAT     H215492   8.586   7.326   0.888
 5084WAT      O15493   3.208   4.749   4.880
 5084WAT     H115494   3.168   4.737   4.790
 5084WAT     H215495   3.161   4.822   4.928
 5085WAT      O15496   7.746   4.198   0.368
 5085WAT     H115497   7.673   4.232   0.309
 5085WAT     H215498   7.779   4.110   0.333
 5086WAT      O15499   4.317   4.471   0.520
 5086WAT     H115500   4.237   4.514   0.562
 5086WAT     H215501   4.297   4.451   0.424
 5087WAT      O15502   8.814   8.040   2.033
 5087WAT     H115503   8.870   8.075   2.108
 5087WAT     H215504   8.767   8.115   1.988
 5088WAT      O15505   8.985   4.815   5.714
 5088WAT     H115506   8.996   4.767   5.801
 5088WAT     H215507   8.891   4.849   5.707
 5089WAT      O15508   8.137   2.110   2.047
 5089WAT     H115509   8.149   2.138   2.142
 5089WAT     H215510   8.042   2.082   2.032
 5090WAT      O15511   2.733   2.480   8.946
 5090WAT     H115512   2.797   2.548   8.911
 5090WAT     H215513   2.778   2.391   8.952
 5091WAT      O15514   7.367   6.336   7.458
 5091WAT     H115515   7.461   6.303   7.459
 5091WAT     H215516   7.305   6.261   7.481
 5092WAT      O15517   7.343   8.093   7.662
 5092WAT     H115518   7.282   8.155   7.711
 5092WAT     H215519   7.405   8.049   7.727
 5093WAT      O15520   6.239   2.204   2.418
 5093WAT     H115521   6.253   2.172   2.511
 5093WAT     H215522   6.172   2.279   2.419
 5094WAT      O15523   2.119   0.791   0.810
 5094WAT     H115524   2.027   0.756   0.830
 5094WAT     H215525   2.186   0.739   0.862
 5095WAT      O15526   6.459   3.674   6.717
 5095WAT     H115527   6.558   3.670   6.701
 5095WAT     H215528   6.417   3.733   6.649
 5096WAT      O15529   5.196   3.538   5.928
 5096WAT     H115530   5.268   3.590   5.974
 5096WAT     H215531   5.138   3.494   5.996
 5097WAT      O15532   0.603   9.157   9.585
 5097WAT     H115533   0.640   9.064   9.593
 5097WAT     H215534   0.644   9.215   9.655
 5098WAT      O15535   8.146   4.812   1.361
 5098WAT     H115536   8.146   4.877   1.285
 5098WAT     H215537   8.204   4.847   1.435
 5099WAT      O15538   8.588   3.203   7.653
 5099WAT     H115539   8.678   3.159   7.657
 5099WAT     H215540   8.597   3.292   7.609
 5100WAT      O15541   9.014   6.176   6.110
 5100WAT     H115542   8.944   6.246   6.094
 5100WAT     H215543   8.970   6.090   6.136
 5101WAT      O15544   3.138   0.081   8.355
 5101WAT     H115545   3.067   0.141   8.320
 5101WAT     H215546   3.105   0.034   8.437
 5102WAT      O15547   3.354   1.080   3.669
 5102WAT     H115548   3.286   1.151   3.687
 5102WAT     H215549   3.343   1.006   3.735
 5103WAT      O15550   2.219   4.400   8.287
 5103WAT     H115551   2.160   4.461   8.342
 5103WAT     H215552   2.309   4.395   8.329
 5104WAT      O15553   3.470   6.481   5.220
 5104WAT     H115554   3.470   6.398   5.276
 5104WAT     H215555   3.479   6.561   5.279
 5105WAT      O15556   5.149   4.031   6.131
 5105WAT     H115557   5.088   4.104   6.164
 5105WAT     H215558   5.244   4.061   6.141
 5106WAT      O15559   3.422   4.157   6.591
 5106WAT     H115560   3.335   4.143   6.545
 5106WAT     H215561   3.420   4.111   6.680
 5107WAT      O15562   9.859   4.310   0.891
 5107WAT     H115563   9.922   4.298   0.815
 5107WAT     H215564   9.880   4.395   0.940
 5108WAT      O15565   9.011   4.519   3.010
 5108WAT     H115566   9.109   4.500   3.000
 5108WAT     H215567   8.959   4.435   2.992
 5109WAT      O15568   8.420   1.626   9.135
 5109WAT     H115569   8.441   1.607   9.039
 5109WAT     H215570   8.413   1.539   9.185
 5110WAT      O15571   9.796   7.717   4.777
 5110WAT     H115572   9.702   7.745   4.756
 5110WAT     H215573   9.809   7.622   4.750
 5111WAT      O15574   5.454   2.525   3.542
 5111WAT     H115575   5.481   2.534   3.638
 5111WAT     H215576   5.379   2.459   3.535
 5112WAT      O15577   3.779   6.796   5.123
 5112WAT     H115578   3.840   6.755   5.190
 5112WAT     H215579   3.716   6.859   5.168
 5113WAT      O15580   8.426   2.583   2.190
 5113WAT     H115581   8.457   2.551   2.101
 5113WAT     H215582   8.326   2.573   2.196
 5114WAT      O15583   6.136   7.022   3.408
 5114WAT     H115584   6.074   7.008   3.485
 5114WAT     H215585   6.223   7.059   3.441
 5115WAT      O15586   7.823   9.095   3.830
 5115WAT     H115587   7.839   8.997   3.822
 5115WAT     H215588   7.899   9.138   3.878
 5116WAT      O15589   0.088   9.057   5.979
 5116WAT     H115590   0.152   9.110   5.923
 5116WAT     H215591   0.011   9.115   6.006
 5117WAT      O15592   6.834   0.498   4.283
 5117WAT     H115593   6.800   0.411   4.248
 5117WAT     H215594   6.901   0.481   4.355
 5118WAT      O15595   4.494   8.617   9.617
 5118WAT     H115596   4.416   8.645   9.561
 5118WAT     H215597   4.578   8.625   9.564
 5119WAT      O15598   9.587   9.383   2.858
 5119WAT     H115599   9.502   9.366   2.908
 5119WAT     H215600   9.629   9.468   2.890
 5120WAT      O15601   5.893   0.885   7.329
 5120WAT     H115602   5.833   0.926   7.260
 5120WAT     H215603   5.973   0.845   7.284
 5121WAT      O15604   4.859   6.456   3.690
 5121WAT     H115605   4.840   6.407   3.605
 5121WAT     H215606   4.956   6.479   3.695
 5122WAT      O15607   0.311   9.278   7.163
 5122WAT     H115608   0.298   9.377   7.170
 5122WAT     H215609   0.344   9.244   7.251
 5123WAT      O15610   6.741   4.370   9.196
 5123WAT     H115611   6.675   4.341   9.126
 5123WAT     H215612   6.695   4.374   9.285
 5124WAT      O15613   3.191   4.865   2.140
 5124WAT     H115614   3.111   4.806   2.154
 5124WAT     H215615   3.271   4.809   2.121
 5125WAT      O15616   0.766   8.244   8.526
 5125WAT     H115617   0.816   8.255   8.612
 5125WAT     H215618   0.738   8.149   8.516
 5126WAT      O15619   3.933   9.269   0.023
 5126WAT     H115620   3.844   9.311   0.041
 5126WAT     H215621   3.919   9.185  -0.030
 5127WAT      O15622   8.755   1.161   7.159
 5127WAT     H115623   8.684   1.106   7.115
 5127WAT     H215624   8.844   1.115   7.149
 5128WAT      O15625   5.257   7.331   5.340
 5128WAT     H115626   5.211   7.254   5.384
 5128WAT     H215627   5.355   7.311   5.331
 5129WAT      O15628   4.995   9.385   6.938
 5129WAT     H115629   4.955   9.477   6.943
 5129WAT     H215630   5.094   9.392   6.928
 5130WAT      O15631   5.816   8.708   7.371
 5130WAT     H115632   5.758   8.705   7.453
 5130WAT     H215633   5.892   8.770   7.387
 5131WAT      O15634   2.701   8.070   3.874
 5131WAT     H115635   2.690   8.021   3.960
 5131WAT     H215636   2.748   8.011   3.808
 5132WAT      O15637   6.675   6.789   2.262
 5132WAT     H115638   6.578   6.815   2.253
 5132WAT     H215639   6.681   6.690   2.274
 5133WAT      O15640   7.130   3.914   7.908
 5133WAT     H115641   7.110   3.821   7.876
 5133WAT     H215642   7.155   3.911   8.005
 5134WAT      O15643   3.953   5.718   1.764
 5134WAT     H115644   4.000   5.752   1.845
 5134WAT     H215645   3.874   5.776   1.744
 5135WAT      O15646   6.844   4.569   4.066
 5135WAT     H115647   6.934   4.586   4.026
 5135WAT     H215648   6.837   4.618   4.153
 5136WAT      O15649   2.306   8.740   8.012
 5136WAT     H115650   2.286   8.818   7.953
 5136WAT     H215651   2.314   8.771   8.107
 5137WAT      O15652   2.507   3.843   1.009
 5137WAT     H115653   2.597   3.872   1.040
 5137WAT     H215654   2.454   3.808   1.087
 5138WAT      O15655   9.817   3.225   2.456
 5138WAT     H115656   9.723   3.205   2.485
 5138WAT     H215657   9.881   3.176   2.515
 5139WAT      O15658   8.895   0.528   4.889
 5139WAT     H115659   8.945   0.598   4.840
 5139WAT     H215660   8.825   0.571   4.946
 5140WAT      O15661   8.026   3.411   6.257
 5140WAT     H115662   8.107   3.377   6.209
 5140WAT     H215663   7.948   3.351   6.238
 5141WAT      O15664   8.155   0.283   4.125
 5141WAT     H115665   8.140   0.244   4.034
 5141WAT     H215666   8.168   0.210   4.192
 5142WAT      O15667   7.019   2.923   7.642
 5142WAT     H115668   6.927   2.895   7.667
 5142WAT     H215669   7.056   2.859   7.574
 5143WAT      O15670   3.765   4.469   4.048
 5143WAT     H115671   3.725   4.413   4.121
 5143WAT     H215672   3.757   4.566   4.073
 5144WAT      O15673   1.597   9.459   6.813
 5144WAT     H115674   1.591   9.541   6.870
 5144WAT     H215675   1.693   9.433   6.803
 5145WAT      O15676   8.676   0.110   2.970
 5145WAT     H115677   8.692   0.204   2.939
 5145WAT     H215678   8.612   0.065   2.908
 5146WAT      O15679   6.269   4.977   8.104
 5146WAT     H115680   6.328   4.897   8.113
 5146WAT     H215681   6.245   4.990   8.008
 5147WAT      O15682   0.845   5.641   8.726
 5147WAT     H115683   0.906   5.612   8.653
 5147WAT     H215684   0.810   5.562   8.775
 5148WAT      O15685   6.902   5.796   4.777
 5148WAT     H115686   6.913   5.699   4.754
 5148WAT     H215687   6.983   5.827   4.828
 5149WAT      O15688   0.898   1.320   7.813
 5149WAT     H115689   0.896   1.220   7.810
 5149WAT     H215690   0.856   1.357   7.730
 5150WAT      O15691   4.371   5.075   6.463
 5150WAT     H115692   4.448   5.011   6.467
 5150WAT     H215693   4.295   5.032   6.415
 5151WAT      O15694   9.774   0.648   0.951
 5151WAT     H115695   9.828   0.732   0.943
 5151WAT     H215696   9.833   0.573   0.979
 5152WAT      O15697   3.086   9.360   5.371
 5152WAT     H115698   3.028   9.400   5.442
 5152WAT     H215699   3.075   9.412   5.286
 5153WAT      O15700   9.536   0.698   1.751
 5153WAT     H115701   9.559   0.768   1.683
 5153WAT     H215702   9.512   0.613   1.704
 5154WAT      O15703   5.854   2.001   4.015
 5154WAT     H115704   5.883   2.091   4.047
 5154WAT     H215705   5.841   2.004   3.915
 5155WAT      O15706   0.365   3.887   4.213
 5155WAT     H115707   0.306   3.947   4.266
 5155WAT     H215708   0.358   3.794   4.249
 5156WAT      O15709   7.720   5.548   6.009
 5156WAT     H115710   7.710   5.461   5.961
 5156WAT     H215711   7.811   5.553   6.050
 5157WAT      O15712   7.564   1.928   1.661
 5157WAT     H115713   7.610   1.845   1.629
 5157WAT     H215714   7.628   2.004   1.660
 5158WAT      O15715   5.194   7.063   7.158
 5158WAT     H115716   5.158   6.971   7.144
 5158WAT     H215717   5.284   7.071   7.115
 5159WAT      O15718   7.898   5.400   4.138
 5159WAT     H115719   7.959   5.450   4.078
 5159WAT     H215720   7.950   5.360   4.213
 5160WAT      O15721   9.844   8.400   4.552
 5160WAT     H115722   9.817   8.491   4.522
 5160WAT     H215723   9.763   8.342   4.557
 5161WAT      O15724   5.843   6.877   0.286
 5161WAT     H115725   5.901   6.808   0.243
 5161WAT     H215726   5.829   6.854   0.382
 5162WAT      O15727   1.554   2.628   8.711
 5162WAT     H115728   1.529   2.724   8.726
 5162WAT     H215729   1.471   2.574   8.700
 5163WAT      O15730   3.979   6.059   5.337
 5163WAT     H115731   3.918   6.130   5.372
 5163WAT     H215732   4.066   6.099   5.311
 5164WAT      O15733   7.637   7.555   5.709
 5164WAT     H115734   7.696   7.630   5.681
 5164WAT     H215735   7.693   7.479   5.742
 5165WAT      O15736   0.535   1.010   2.110
 5165WAT     H115737   0.607   1.033   2.177
 5165WAT     H215738   0.450   0.992   2.158
 5166WAT      O15739   4.454   0.662   8.185
 5166WAT     H115740   4.536   0.700   8.142
 5166WAT     H215741   4.373   0.701   8.141
 5167WAT      O15742   4.116   1.735   6.952
 5167WAT     H115743   4.149   1.700   6.865
 5167WAT     H215744   4.053   1.811   6.936
 5168WAT      O15745   9.689   8.133   2.007
 5168WAT     H115746   9.773   8.087   1.978
 5168WAT     H215747   9.707   8.230   2.023
 5169WAT      O15748   0.880   4.965   0.850
 5169WAT     H115749   0.888   4.998   0.944
 5169WAT     H215750   0.851   5.040   0.791
 5170WAT      O15751   4.694   6.810   9.324
 5170WAT     H115752   4.756   6.757   9.265
 5170WAT     H215753   4.689   6.904   9.290
 5171WAT      O15754   3.867   8.739   6.253
 5171WAT     H115755   3.946   8.705   6.202
 5171WAT     H215756   3.897   8.769   6.344
 5172WAT      O15757   5.413   1.269   0.987
 5172WAT     H115758   5.355   1.313   0.918
 5172WAT     H215759   5.503   1.251   0.948
 5173WAT      O15760   3.186   8.131   3.058
 5173WAT     H115761   3.138   8.213   3.026
 5173WAT     H215762   3.133   8.050   3.034
 5174WAT      O15763   0.851   3.896   5.712
 5174WAT     H115764   0.941   3.894   5.757
 5174WAT     H215765   0.842   3.982   5.660
 5175WAT      O15766   6.101   8.707   9.142
 5175WAT     H115767   6.121   8.776   9.211
 5175WAT     H215768   6.092   8.750   9.053
 5176WAT      O15769   2.741   7.771   9.328
 5176WAT     H115770   2.695   7.761   9.239
 5176WAT     H215771   2.675   7.752   9.401
 5177WAT      O15772   4.928   6.466   9.585
 5177WAT     H115773   4.935   6.380   9.635
 5177WAT     H215774   4.866   6.455   9.507
 5178WAT      O15775   5.432   4.721   9.838
 5178WAT     H115776   5.531   4.705   9.833
 5178WAT     H215777   5.393   4.716   9.746
 5179WAT      O15778   3.719   8.574   3.245
 5179WAT     H115779   3.781   8.628   3.302
 5179WAT     H215780   3.632   8.623   3.235
 5180WAT      O15781   7.130   8.727   0.718
 5180WAT     H115782   7.063   8.654   0.705
 5180WAT     H215783   7.092   8.813   0.683
 5181WAT      O15784   8.309   6.791   3.204
 5181WAT     H115785   8.343   6.782   3.297
 5181WAT     H215786   8.308   6.888   3.178
 5182WAT      O15787   0.783   2.731   9.667
 5182WAT     H115788   0.763   2.648   9.615
 5182WAT     H215789   0.745   2.810   9.620
 5183WAT      O15790   5.382   7.537   8.458
 5183WAT     H115791   5.316   7.597   8.413
 5183WAT     H215792   5.444   7.593   8.513
 5184WAT      O15793   4.099   5.037   9.873
 5184WAT     H115794   4.138   5.077   9.790
 5184WAT     H215795   4.013   5.083   9.895
 5185WAT      O15796   3.017   0.383   1.921
 5185WAT     H115797   2.936   0.433   1.892
 5185WAT     H215798   3.071   0.357   1.841
 5186WAT      O15799   0.735   5.255   4.658
 5186WAT     H115800   0.767   5.349   4.665
 5186WAT     H215801   0.694   5.227   4.745
 5187WAT      O15802   7.793   4.784   6.012
 5187WAT     H115803   7.824   4.851   5.945
 5187WAT     H215804   7.790   4.693   5.969
 5188WAT      O15805   5.824   3.392   1.154
 5188WAT     H115806   5.795   3.330   1.081
 5188WAT     H215807   5.852   3.339   1.234
 5189WAT      O15808   6.314   2.610   0.007
 5189WAT     H115809   6.280   2.517   0.024
 5189WAT     H215810   6.355   2.646   0.091
 5190WAT      O15811   2.481   6.130   1.006
 5190WAT     H115812   2.495   6.056   0.939
 5190WAT     H215813   2.525   6.213   0.972
 5191WAT      O15814   5.537   4.213   1.553
 5191WAT     H115815   5.557   4.295   1.499
 5191WAT     H215816   5.543   4.132   1.495
 5192WAT      O15817   1.867   3.130   6.973
 5192WAT     H115818   1.808   3.197   6.930
 5192WAT     H215819   1.893   3.060   6.907
 5193WAT      O15820   1.061   7.489   3.752
 5193WAT     H115821   1.004   7.409   3.769
 5193WAT     H215822   1.040   7.560   3.820
 5194WAT      O15823   9.023   2.208   1.046
 5194WAT     H115824   9.061   2.117   1.061
 5194WAT     H215825   8.985   2.214   0.954
 5195WAT      O15826   9.849   1.360   1.004
 5195WAT     H115827   9.860   1.428   0.931
 5195WAT     H215828   9.786   1.396   1.073
 5196WAT      O15829   6.633   4.224   2.974
 5196WAT     H115830   6.648   4.320   2.951
 5196WAT     H215831   6.701   4.167   2.929
 5197WAT      O15832   2.315   9.719   1.682
 5197WAT     H115833   2.276   9.768   1.760
 5197WAT     H215834   2.374   9.780   1.630
 5198WAT      O15835   4.966   5.075   0.576
 5198WAT     H115836   5.043   5.099   0.635
 5198WAT     H215837   4.971   5.128   0.491
 5199WAT      O15838   2.051   9.706   5.751
 5199WAT     H115839   2.050   9.610   5.781
 5199WAT     H215840   2.136   9.749   5.782
 5200WAT      O15841   0.471   3.055   0.543
 5200WAT     H115842   0.442   2.998   0.620
 5200WAT     H215843   0.428   3.021   0.459
 5201WAT      O15844   6.056   9.319   1.930
 5201WAT     H115845   6.078   9.301   2.026
 5201WAT     H215846   5.970   9.275   1.906
 5202WAT      O15847   0.011   7.423   4.207
 5202WAT     H115848   0.094   7.473   4.184
 5202WAT     H215849  -0.067   7.463   4.158
 5203WAT      O15850   0.672   1.573   8.885
 5203WAT     H115851   0.732   1.544   8.960
 5203WAT     H215852   0.705   1.659   8.847
 5204WAT      O15853   4.094   2.869   5.014
 5204WAT     H115854   4.110   2.825   5.103
 5204WAT     H215855   4.087   2.799   4.943
 5205WAT      O15856   8.185   9.777   3.485
 5205WAT     H115857   8.127   9.850   3.523
 5205WAT     H215858   8.270   9.772   3.537
 5206WAT      O15859   4.559   1.535   2.880
 5206WAT     H115860   4.534   1.453   2.931
 5206WAT     H215861   4.606   1.508   2.796
 5207WAT      O15862   2.356   7.559   0.799
 5207WAT     H115863   2.449   7.585   0.826
 5207WAT     H215864   2.298   7.641   0.796
 5208WAT      O15865   7.447   9.473   4.338
 5208WAT     H115866   7.515   9.400   4.337
 5208WAT     H215867   7.486   9.554   4.382
 5209WAT      O15868   3.243   4.684   3.075
 5209WAT     H115869   3.213   4.598   3.117
 5209WAT     H215870   3.215   4.685   2.979
 5210WAT      O15871   6.149   3.460   4.569
 5210WAT     H115872   6.206   3.541   4.587
 5210WAT     H215873   6.206   3.386   4.532
 5211WAT      O15874   8.408   8.672   5.439
 5211WAT     H115875   8.322   8.653   5.392
 5211WAT     H215876   8.483   8.672   5.373
 5212WAT      O15877   0.732   4.174   2.693
 5212WAT     H115878   0.805   4.216   2.747
 5212WAT     H215879   0.738   4.206   2.599
 5213WAT      O15880   7.039   8.627   9.339
 5213WAT     H115881   7.010   8.539   9.377
 5213WAT     H215882   7.097   8.611   9.259
 5214WAT      O15883   6.160   6.536   8.226
 5214WAT     H115884   6.143   6.448   8.271
 5214WAT     H215885   6.211   6.596   8.287
 5215WAT      O15886   6.519   1.966   4.279
 5215WAT     H115887   6.585   1.895   4.255
 5215WAT     H215888   6.493   1.957   4.375
 5216WAT      O15889   3.287   1.635   8.908
 5216WAT     H115890   3.277   1.536   8.907
 5216WAT     H215891   3.255   1.673   8.821
 5217WAT      O15892   2.989   6.609   1.574
 5217WAT     H115893   3.067   6.663   1.543
 5217WAT     H215894   2.964   6.637   1.667
 5218WAT      O15895   3.758   4.292   8.415
 5218WAT     H115896   3.829   4.298   8.345
 5218WAT     H215897   3.795   4.244   8.495
 5219WAT      O15898   7.100   5.105   1.525
 5219WAT     H115899   7.073   5.054   1.607
 5219WAT     H215900   7.183   5.158   1.545
 5220WAT      O15901   6.700   0.418   6.749
 5220WAT     H115902   6.745   0.494   6.795
 5220WAT     H215903   6.643   0.368   6.814
 5221WAT      O15904   3.756   3.514   6.662
 5221WAT     H115905   3.747   3.453   6.741
 5221WAT     H215906   3.827   3.479   6.601
 5222WAT      O15907   9.104   1.899   5.414
 5222WAT     H115908   9.172   1.837   5.377
 5222WAT     H215909   9.149   1.978   5.455
 5223WAT      O15910   0.582   8.132   2.062
 5223WAT     H115911   0.618   8.179   2.143
 5223WAT     H215912   0.658   8.100   2.006
 5224WAT      O15913   3.227   7.002   7.450
 5224WAT     H115914   3.305   7.000   7.513
 5224WAT     H215915   3.224   7.091   7.404
 5225WAT      O15916   9.639   2.173   8.796
 5225WAT     H115917   9.675   2.083   8.772
 5225WAT     H215918   9.702   2.244   8.765
 5226WAT      O15919   5.646   3.794   6.887
 5226WAT     H115920   5.567   3.838   6.929
 5226WAT     H215921   5.650   3.820   6.790
 5227WAT      O15922   6.811   0.452   7.103
 5227WAT     H115923   6.754   0.375   7.073
 5227WAT     H215924   6.813   0.521   7.030
 5228WAT      O15925   4.838   0.637   1.226
 5228WAT     H115926   4.938   0.630   1.234
 5228WAT     H215927   4.814   0.726   1.189
 5229WAT      O15928   6.675   6.351   2.794
 5229WAT     H115929   6.652   6.447   2.810
 5229WAT     H215930   6.597   6.305   2.751
 5230WAT      O15931   1.435   6.642   1.177
 5230WAT     H115932   1.509   6.652   1.110
 5230WAT     H215933   1.356   6.599   1.133
 5231WAT      O15934   6.242   6.814   1.807
 5231WAT     H115935   6.307   6.889   1.808
 5231WAT     H215936   6.210   6.796   1.900
 5232WAT      O15937   4.207   7.484   6.799
 5232WAT     H115938   4.253   7.425   6.865
 5232WAT     H215939   4.127   7.526   6.841
 5233WAT      O15940   5.736   2.687   3.510
 5233WAT     H115941   5.638   2.706   3.503
 5233WAT     H215942   5.785   2.771   3.533
 5234WAT      O15943   0.086   8.464   4.162
 5234WAT     H115944   0.172   8.431   4.122
 5234WAT     H215945   0.077   8.562   4.145
 5235WAT      O15946   1.309   2.598   2.767
 5235WAT     H115947   1.365   2.549   2.835
 5235WAT     H215948   1.276   2.534   2.698
 5236WAT      O15949   6.335   5.962   1.914
 5236WAT     H115950   6.342   5.870   1.876
 5236WAT     H215951   6.309   6.026   1.841
 5237WAT      O15952   1.601   7.627   0.662
 5237WAT     H115953   1.505   7.624   0.635
 5237WAT     H215954   1.657   7.652   0.583
 5238WAT      O15955   8.455   0.269   0.302
 5238WAT     H115956   8.506   0.233   0.380
 5238WAT     H215957   8.450   0.199   0.231
 5239WAT      O15958   1.827   4.925   2.197
 5239WAT     H115959   1.886   4.993   2.154
 5239WAT     H215960   1.883   4.849   2.231
 5240WAT      O15961   8.077   4.095   5.761
 5240WAT     H115962   8.117   4.009   5.730
 5240WAT     H215963   8.019   4.133   5.688
 5241WAT      O15964   8.722   3.646   4.323
 5241WAT     H115965   8.755   3.707   4.250
 5241WAT     H215966   8.698   3.558   4.284
 5242WAT      O15967   7.534   6.397   5.686
 5242WAT     H115968   7.619   6.391   5.635
 5242WAT     H215969   7.544   6.351   5.775
 5243WAT      O15970   8.340   6.456   2.444
 5243WAT     H115971   8.315   6.464   2.348
 5243WAT     H215972   8.260   6.474   2.501
 5244WAT      O15973   6.497   6.140   2.032
 5244WAT     H115974   6.422   6.078   2.008
 5244WAT     H215975   6.583   6.102   1.997
 5245WAT      O15976   4.648   6.760   7.310
 5245WAT     H115977   4.712   6.684   7.314
 5245WAT     H215978   4.687   6.834   7.255
 5246WAT      O15979   8.871   3.887   8.008
 5246WAT     H115980   8.915   3.962   7.958
 5246WAT     H215981   8.936   3.850   8.075
 5247WAT      O15982   8.922   7.242   8.140
 5247WAT     H115983   8.850   7.289   8.191
 5247WAT     H215984   9.007   7.294   8.145
 5248WAT      O15985   7.262   6.163   2.506
 5248WAT     H115986   7.249   6.237   2.572
 5248WAT     H215987   7.349   6.176   2.458
 5249WAT      O15988   8.517   0.622   4.804
 5249WAT     H115989   8.600   0.577   4.771
 5249WAT     H215990   8.465   0.657   4.726
 5250WAT      O15991   9.511   3.416   5.544
 5250WAT     H115992   9.554   3.351   5.606
 5250WAT     H215993   9.501   3.505   5.589
 5251WAT      O15994   9.241   6.121   5.880
 5251WAT     H115995   9.207   6.120   5.786
 5251WAT     H215996   9.163   6.125   5.943
 5252WAT      O15997   4.264   7.543   2.385
 5252WAT     H115998   4.220   7.632   2.399
 5252WAT     H215999   4.194   7.472   2.375
 5253WAT      O16000   6.630   7.025   9.890
 5253WAT     H116001   6.717   6.991   9.855
 5253WAT     H216002   6.635   7.125   9.901
 5254WAT      O16003   7.472   9.086   4.509
 5254WAT     H116004   7.438   8.998   4.543
 5254WAT     H216005   7.457   9.091   4.411
 5255WAT      O16006   8.456   6.505   0.084
 5255WAT     H116007   8.386   6.568   0.117
 5255WAT     H216008   8.547   6.543   0.103
 5256WAT      O16009   2.236   2.868   7.611
 5256WAT     H116010   2.329   2.899   7.630
 5256WAT     H216011   2.238   2.799   7.539
 5257WAT      O16012   9.231   5.860   4.392
 5257WAT     H116013   9.283   5.797   4.336
 5257WAT     H216014   9.174   5.809   4.456
 5258WAT      O16015   9.718   7.602   2.065
 5258WAT     H116016   9.686   7.528   2.125
 5258WAT     H216017   9.816   7.590   2.047
 5259WAT      O16018   5.154   0.572   0.823
 5259WAT     H116019   5.080   0.515   0.788
 5259WAT     H216020   5.242   0.535   0.794
 5260WAT      O16021   3.391   6.834   1.210
 5260WAT     H116022   3.398   6.921   1.260
 5260WAT     H216023   3.382   6.759   1.275
 5261WAT      O16024   5.411   9.401   1.779
 5261WAT     H116025   5.502   9.361   1.774
 5261WAT     H216026   5.371   9.406   1.687
 5262WAT      O16027   7.196   2.290   9.830
 5262WAT     H116028   7.189   2.190   9.825
 5262WAT     H216029   7.268   2.315   9.895
 5263WAT      O16030   5.110   8.837   2.823
 5263WAT     H116031   5.128   8.809   2.729
 5263WAT     H216032   5.016   8.870   2.832
 5264WAT      O16033   5.422   2.034   9.318
 5264WAT     H116034   5.512   2.075   9.299
 5264WAT     H216035   5.435   1.944   9.359
 5265WAT      O16036   4.789   6.128   5.839
 5265WAT     H116037   4.888   6.117   5.847
 5265WAT     H216038   4.746   6.090   5.921
 5266WAT      O16039   7.963   7.432   7.650
 5266WAT     H116040   7.990   7.399   7.559
 5266WAT     H216041   8.044   7.461   7.700
 5267WAT      O16042   8.276   6.215   6.581
 5267WAT     H116043   8.298   6.205   6.484
 5267WAT     H216044   8.198   6.277   6.591
 5268WAT      O16045   7.921   0.200   1.214
 5268WAT     H116046   7.943   0.272   1.148
 5268WAT     H216047   7.875   0.240   1.293
 5269WAT      O16048   4.645   1.465   2.627
 5269WAT     H116049   4.700   1.521   2.565
 5269WAT     H216050   4.703   1.396   2.670
 5270WAT      O16051   2.934   0.984   9.351
 5270WAT     H116052   2.923   1.076   9.313
 5270WAT     H216053   3.018   0.979   9.405
 5271WAT      O16054   8.202   8.053   3.072
 5271WAT     H116055   8.122   8.108   3.099
 5271WAT     H216056   8.228   7.995   3.149
 5272WAT      O16057   6.140   1.001   1.667
 5272WAT     H116058   6.126   0.903   1.653
 5272WAT     H216059   6.096   1.029   1.752
 5273WAT      O16060   9.865   6.920   6.574
 5273WAT     H116061   9.817   7.007   6.585
 5273WAT     H216062   9.911   6.918   6.486
 5274WAT      O16063   2.006   5.024   4.853
 5274WAT     H116064   2.081   5.047   4.792
 5274WAT     H216065   1.923   5.009   4.800
 5275WAT      O16066   6.806   8.084   2.448
 5275WAT     H116067   6.777   8.118   2.358
 5275WAT     H216068   6.833   7.988   2.440
 5276WAT      O16069   8.976   2.596   2.258
 5276WAT     H116070   8.958   2.601   2.356
 5276WAT     H216071   8.940   2.678   2.213
 5277WAT      O16072   3.809   7.117   0.445
 5277WAT     H116073   3.904   7.146   0.457
 5277WAT     H216074   3.800   7.022   0.475
 5278WAT      O16075   6.940   1.964   9.744
 5278WAT     H116076   6.946   1.941   9.647
 5278WAT     H216077   6.853   2.010   9.762
 5279WAT      O16078   6.445   5.773   3.424
 5279WAT     H116079   6.489   5.721   3.351
 5279WAT     H216080   6.473   5.869   3.418
 5280WAT      O16081   5.067   4.808   0.869
 5280WAT     H116082   5.155   4.854   0.878
 5280WAT     H216083   5.043   4.799   0.772
 5281WAT      O16084   3.169   9.344   8.393
 5281WAT     H116085   3.255   9.324   8.440
 5281WAT     H216086   3.167   9.440   8.365
 5282WAT      O16087   8.091   6.896   4.833
 5282WAT     H116088   8.044   6.979   4.803
 5282WAT     H216089   8.040   6.855   4.909
 5283WAT      O16090   0.300   0.603   9.792
 5283WAT     H116091   0.392   0.574   9.817
 5283WAT     H216092   0.305   0.693   9.747
 5284WAT      O16093   7.397   6.051   7.216
 5284WAT     H116094   7.329   6.123   7.214
 5284WAT     H216095   7.353   5.963   7.234
 5285WAT      O16096   0.982   6.965   9.780
 5285WAT     H116097   0.985   6.982   9.879
 5285WAT     H216098   0.889   6.941   9.753
 5286WAT      O16099   8.434   9.232   3.902
 5286WAT     H116100   8.345   9.237   3.856
 5286WAT     H216101   8.429   9.284   3.987
 5287WAT      O16102   1.857   4.299   1.396
 5287WAT     H116103   1.759   4.314   1.409
 5287WAT     H216104   1.885   4.216   1.445
 5288WAT      O16105   3.686   3.770   2.888
 5288WAT     H116106   3.697   3.820   2.802
 5288WAT     H216107   3.589   3.755   2.906
 5289WAT      O16108   7.911   6.992   6.163
 5289WAT     H116109   8.005   6.993   6.130
 5289WAT     H216110   7.870   6.903   6.142
 5290WAT      O16111   5.316   8.622   2.885
 5290WAT     H116112   5.273   8.581   2.965
 5290WAT     H216113   5.255   8.692   2.847
 5291WAT      O16114   5.110   9.069   0.529
 5291WAT     H116115   5.204   9.101   0.527
 5291WAT     H216116   5.105   8.983   0.579
 5292WAT      O16117   3.335   8.804   8.517
 5292WAT     H116118   3.345   8.740   8.441
 5292WAT     H216119   3.239   8.809   8.545
 5293WAT      O16120   8.883   0.780   3.396
 5293WAT     H116121   8.975   0.796   3.431
 5293WAT     H216122   8.827   0.738   3.468
 5294WAT      O16123   1.028   4.893   3.840
 5294WAT     H116124   0.939   4.855   3.866
 5294WAT     H216125   1.022   4.933   3.749
 5295WAT      O16126   3.620   4.362   7.506
 5295WAT     H116127   3.564   4.403   7.578
 5295WAT     H216128   3.560   4.329   7.433
 5296WAT      O16129   5.418   4.102   6.164
 5296WAT     H116130   5.450   4.034   6.098
 5296WAT     H216131   5.437   4.194   6.129
 5297WAT      O16132   9.238   3.727   5.695
 5297WAT     H116133   9.250   3.822   5.667
 5297WAT     H216134   9.154   3.690   5.656
 5298WAT      O16135   6.735   2.649   1.071
 5298WAT     H116136   6.797   2.721   1.101
 5298WAT     H216137   6.738   2.641   0.972
 5299WAT      O16138   3.610   6.059   4.071
 5299WAT     H116139   3.569   5.987   4.126
 5299WAT     H216140   3.538   6.116   4.031
 5300WAT      O16141   3.664   3.249   7.494
 5300WAT     H116142   3.741   3.209   7.544
 5300WAT     H216143   3.698   3.300   7.415
 5301WAT      O16144   8.249   4.483   0.140
 5301WAT     H116145   8.162   4.437   0.118
 5301WAT     H216146   8.272   4.548   0.068
 5302WAT      O16147   2.800   8.269   4.721
 5302WAT     H116148   2.778   8.264   4.818
 5302WAT     H216149   2.864   8.345   4.706
 5303WAT      O16150   1.810   6.371   9.083
 5303WAT     H116151   1.819   6.273   9.066
 5303WAT     H216152   1.855   6.421   9.009
 5304WAT      O16153   5.951   3.050   1.599
 5304WAT     H116154   6.024   2.986   1.575
 5304WAT     H216155   5.978   3.103   1.679
 5305WAT      O16156   5.175   9.541   8.639
 5305WAT     H116157   5.081   9.545   8.604
 5305WAT     H216158   5.182   9.598   8.720
 5306WAT      O16159   4.966   9.211   2.408
 5306WAT     H116160   5.038   9.269   2.370
 5306WAT     H216161   4.982   9.197   2.505
 5307WAT      O16162   4.701   9.363   1.764
 5307WAT     H116163   4.791   9.330   1.790
 5307WAT     H216164   4.710   9.441   1.703
 5308WAT      O16165   4.796   0.587   4.020
 5308WAT     H116166   4.819   0.661   3.956
 5308WAT     H216167   4.820   0.615   4.113
 5309WAT      O16168   1.050   8.588   3.114
 5309WAT     H116169   1.040   8.613   3.211
 5309WAT     H216170   0.980   8.635   3.060
 5310WAT      O16171   6.140   2.463   9.133
 5310WAT     H116172   6.131   2.409   9.049
 5310WAT     H216173   6.155   2.559   9.109
 5311WAT      O16174   7.126   6.306   4.477
 5311WAT     H116175   7.217   6.266   4.488
 5311WAT     H216176   7.098   6.300   4.381
 5312WAT      O16177   8.545   3.468   3.598
 5312WAT     H116178   8.598   3.547   3.571
 5312WAT     H216179   8.603   3.386   3.598
 5313WAT      O16180   0.612   1.675   5.846
 5313WAT     H116181   0.631   1.771   5.870
 5313WAT     H216182   0.571   1.671   5.755
 5314WAT      O16183   3.020   8.091   8.478
 5314WAT     H116184   2.958   8.047   8.412
 5314WAT     H216185   3.114   8.064   8.457
 5315WAT      O16186   2.052   5.409   8.484
 5315WAT     H116187   2.145   5.441   8.500
 5315WAT     H216188   2.021   5.354   8.562
 5316WAT      O16189   5.953   1.564   0.173
 5316WAT     H116190   5.963   1.466   0.189
 5316WAT     H216191   5.925   1.580   0.078
 5317WAT      O16192   1.367   1.463   2.088
 5317WAT     H116193   1.301   1.439   2.017
 5317WAT     H216194   1.359   1.561   2.109
 5318WAT      O16195   9.668   0.593   4.945
 5318WAT     H116196   9.580   0.582   4.899
 5318WAT     H216197   9.712   0.677   4.914
 5319WAT      O16198   6.260   1.923   0.401
 5319WAT     H116199   6.241   1.934   0.303
 5319WAT     H216200   6.195   1.979   0.453
 5320WAT      O16201   9.146   9.703   2.035
 5320WAT     H116202   9.168   9.751   2.120
 5320WAT     H216203   9.222   9.712   1.971
 5321WAT      O16204   8.971   6.731   7.101
 5321WAT     H116205   9.058   6.698   7.065
 5321WAT     H216206   8.986   6.817   7.150
 5322WAT      O16207   6.882   8.703   6.193
 5322WAT     H116208   6.833   8.735   6.274
 5322WAT     H216209   6.971   8.749   6.188
 5323WAT      O16210   3.190   4.186   8.490
 5323WAT     H116211   3.105   4.152   8.452
 5323WAT     H216212   3.267   4.147   8.440
 5324WAT      O16213   5.663   1.787   2.087
 5324WAT     H116214   5.756   1.775   2.122
 5324WAT     H216215   5.667   1.840   2.002
 5325WAT      O16216   4.457   0.575   4.785
 5325WAT     H116217   4.437   0.526   4.870
 5325WAT     H216218   4.504   0.661   4.805
 5326WAT      O16219   8.002   7.531   0.078
 5326WAT     H116220   8.078   7.588   0.047
 5326WAT     H216221   7.944   7.507  -0.000
 5327WAT      O16222   0.054   1.850   4.232
 5327WAT     H116223   0.026   1.820   4.323
 5327WAT     H216224   0.102   1.938   4.239
 5328WAT      O16225   8.343   5.806   9.116
 5328WAT     H116226   8.394   5.831   9.033
 5328WAT     H216227   8.344   5.882   9.180
 5329WAT      O16228   0.750   4.679   9.317
 5329WAT     H116229   0.704   4.766   9.333
 5329WAT     H216230   0.728   4.646   9.225
 5330WAT      O16231   9.166   5.074   9.576
 5330WAT     H116232   9.135   4.981   9.598
 5330WAT     H216233   9.258   5.070   9.537
 5331WAT      O16234   3.615   2.384   7.961
 5331WAT     H116235   3.556   2.444   8.014
 5331WAT     H216236   3.583   2.379   7.867
 5332WAT      O16237   8.184   8.636   3.238
 5332WAT     H116238   8.138   8.631   3.149
 5332WAT     H216239   8.275   8.674   3.227
 5333WAT      O16240   6.708   6.624   6.000
 5333WAT     H116241   6.623   6.665   6.034
 5333WAT     H216242   6.704   6.617   5.900
 5334WAT      O16243   1.843   9.231   0.347
 5334WAT     H116244   1.878   9.298   0.282
 5334WAT     H216245   1.746   9.250   0.365
 5335WAT      O16246   7.435   6.598   6.321
 5335WAT     H116247   7.455   6.627   6.414
 5335WAT     H216248   7.464   6.504   6.308
 5336WAT      O16249   9.194   9.743   9.852
 5336WAT     H116250   9.241   9.743   9.940
 5336WAT     H216251   9.226   9.821   9.798
 5337WAT      O16252   8.929   5.987   3.064
 5337WAT     H116253   9.026   5.986   3.043
 5337WAT     H216254   8.892   6.079   3.051
 5338WAT      O16255   6.871   2.232   2.628
 5338WAT     H116256   6.964   2.256   2.601
 5338WAT     H216257   6.807   2.266   2.560
 5339WAT      O16258   9.791   6.964   8.024
 5339WAT     H116259   9.867   6.948   8.087
 5339WAT     H216260   9.810   7.044   7.968
 5340WAT      O16261   9.687   5.786   0.093
 5340WAT     H116262   9.694   5.695   0.052
 5340WAT     H216263   9.744   5.791   0.175
 5341WAT      O16264   5.057   6.283   4.609
 5341WAT     H116265   5.053   6.372   4.654
 5341WAT     H216266   5.071   6.211   4.677
 5342WAT      O16267   4.112   9.051   3.457
 5342WAT     H116268   4.117   8.970   3.398
 5342WAT     H216269   4.092   9.023   3.551
 5343WAT      O16270   2.322   6.056   6.015
 5343WAT     H116271   2.355   5.966   6.043
 5343WAT     H216272   2.326   6.063   5.916
 5344WAT      O16273   0.928   2.606   7.642
 5344WAT     H116274   1.009   2.565   7.599
 5344WAT     H216275   0.886   2.671   7.579
 5345WAT      O16276   5.280   0.061   9.456
 5345WAT     H116277   5.274  -0.034   9.423
 5345WAT     H216278   5.289   0.123   9.378
 5346WAT      O16279   0.345   4.421   0.282
 5346WAT     H116280   0.263   4.414   0.226
 5346WAT     H216281   0.413   4.478   0.235
 5347WAT      O16282   0.405   9.538   6.365
 5347WAT     H116283   0.424   9.553   6.462
 5347WAT     H216284   0.367   9.446   6.352
 5348WAT      O16285   2.531   5.666   7.638
 5348WAT     H116286   2.590   5.746   7.636
 5348WAT     H216287   2.459   5.679   7.706
 5349WAT      O16288   7.574   1.532   6.523
 5349WAT     H116289   7.491   1.478   6.514
 5349WAT     H216290   7.654   1.474   6.506
 5350WAT      O16291   9.359   3.141   9.671
 5350WAT     H116292   9.308   3.134   9.757
 5350WAT     H216293   9.302   3.110   9.595
 5351WAT      O16294   7.687   8.714   1.185
 5351WAT     H116295   7.621   8.708   1.261
 5351WAT     H216296   7.699   8.623   1.144
 5352WAT      O16297   2.441   8.071   7.552
 5352WAT     H116298   2.528   8.091   7.598
 5352WAT     H216299   2.406   7.983   7.584
 5353WAT      O16300   5.657   2.286   4.891
 5353WAT     H116301   5.572   2.329   4.863
 5353WAT     H216302   5.659   2.276   4.990
 5354WAT      O16303   6.357   3.916   9.188
 5354WAT     H116304   6.294   3.994   9.195
 5354WAT     H216305   6.427   3.936   9.120
 5355WAT      O16306   7.583   7.065   4.196
 5355WAT     H116307   7.524   6.984   4.188
 5355WAT     H216308   7.656   7.060   4.127
 5356WAT      O16309   7.173   7.051   7.004
 5356WAT     H116310   7.166   7.119   7.076
 5356WAT     H216311   7.265   7.011   7.003
 5357WAT      O16312   0.633   9.161   9.177
 5357WAT     H116313   0.596   9.102   9.104
 5357WAT     H216314   0.558   9.190   9.237
 5358WAT      O16315   2.606   7.973   4.597
 5358WAT     H116316   2.607   7.985   4.498
 5358WAT     H216317   2.685   7.918   4.625
 5359WAT      O16318   7.310   9.135   1.021
 5359WAT     H116319   7.244   9.082   0.968
 5359WAT     H216320   7.330   9.088   1.106
 5360WAT      O16321   2.823   9.674   1.357
 5360WAT     H116322   2.888   9.602   1.332
 5360WAT     H216323   2.865   9.735   1.424
 5361WAT      O16324   2.150   0.300   2.958
 5361WAT     H116325   2.236   0.270   2.916
 5361WAT     H216326   2.096   0.350   2.891
 5362WAT      O16327   2.865   6.505   2.381
 5362WAT     H116328   2.919   6.585   2.353
 5362WAT     H216329   2.816   6.469   2.302
 5363WAT      O16330   9.133   2.316   0.501
 5363WAT     H116331   9.115   2.414   0.495
 5363WAT     H216332   9.209   2.293   0.441
 5364WAT      O16333   1.249   4.427   3.225
 5364WAT     H116334   1.224   4.456   3.132
 5364WAT     H216335   1.170   4.382   3.268
 5365WAT      O16336   9.708   9.625   1.134
 5365WAT     H116337   9.807   9.641   1.135
 5365WAT     H216338   9.672   9.640   1.227
 5366WAT      O16339   8.512   2.768   7.693
 5366WAT     H116340   8.421   2.805   7.712
 5366WAT     H216341   8.539   2.791   7.600
 5367WAT      O16342   4.984   1.106   1.788
 5367WAT     H116343   4.926   1.099   1.707
 5367WAT     H216344   4.987   1.202   1.818
 5368WAT      O16345   4.503   6.975   0.129
 5368WAT     H116346   4.521   6.884   0.166
 5368WAT     H216347   4.574   6.998   0.062
 5369WAT      O16348   8.801   0.139   4.692
 5369WAT     H116349   8.753   0.094   4.617
 5369WAT     H216350   8.778   0.236   4.693
 5370WAT      O16351   7.267   1.358   8.138
 5370WAT     H116352   7.358   1.383   8.172
 5370WAT     H216353   7.204   1.434   8.154
 5371WAT      O16354   9.102   7.005   5.208
 5371WAT     H116355   9.157   6.986   5.127
 5371WAT     H216356   9.135   7.089   5.252
 5372WAT      O16357   5.467   0.828   3.551
 5372WAT     H116358   5.492   0.738   3.516
 5372WAT     H216359   5.400   0.870   3.491
 5373WAT      O16360   9.021   8.767   6.277
 5373WAT     H116361   9.083   8.771   6.356
 5373WAT     H216362   9.008   8.671   6.250
 5374WAT      O16363   9.474   6.078   3.630
 5374WAT     H116364   9.571   6.088   3.649
 5374WAT     H216365   9.428   6.166   3.641
 5375WAT      O16366   2.568   6.111   0.607
 5375WAT     H116367   2.604   6.056   0.682
 5375WAT     H216368   2.566   6.055   0.524
 5376WAT      O16369   8.004   2.612   6.933
 5376WAT     H116370   8.009   2.667   6.849
 5376WAT     H216371   7.951   2.662   7.001
 5377WAT      O16372   1.963   5.282   3.184
 5377WAT     H116373   2.047   5.261   3.235
 5377WAT     H216374   1.922   5.196   3.153
 5378WAT      O16375   7.190   4.169   2.292
 5378WAT     H116376   7.150   4.186   2.382
 5378WAT     H216377   7.139   4.221   2.222
 5379WAT      O16378   9.230   9.660   8.839
 5379WAT     H116379   9.327   9.683   8.845
 5379WAT     H216380   9.218   9.591   8.768
 5380WAT      O16381   6.202   7.984   6.959
 5380WAT     H116382   6.208   7.929   6.876
 5380WAT     H216383   6.255   7.940   7.032
 5381WAT      O16384   2.143   6.033   2.315
 5381WAT     H116385   2.150   5.977   2.398
 5381WAT     H216386   2.134   5.973   2.235
 5382WAT      O16387   8.302   0.390   6.043
 5382WAT     H116388   8.320   0.407   6.140
 5382WAT     H216389   8.384   0.351   6.001
 5383WAT      O16390   0.155   1.449   7.216
 5383WAT     H116391   0.152   1.548   7.208
 5383WAT     H216392   0.140   1.408   7.125
 5384WAT      O16393   8.297   9.771   3.962
 5384WAT     H116394   8.302   9.696   3.896
 5384WAT     H216395   8.220   9.756   4.024
 5385WAT      O16396   0.865   6.680   5.818
 5385WAT     H116397   0.890   6.607   5.881
 5385WAT     H216398   0.796   6.739   5.861
 5386WAT      O16399   8.913   9.529   2.828
 5386WAT     H116400   8.953   9.616   2.797
 5386WAT     H216401   8.985   9.459   2.831
 5387WAT      O16402   6.596   5.700   6.205
 5387WAT     H116403   6.658   5.773   6.234
 5387WAT     H216404   6.592   5.697   6.105
 5388WAT      O16405   9.234   8.924   0.327
 5388WAT     H116406   9.150   8.870   0.334
 5388WAT     H216407   9.272   8.937   0.419
 5389WAT      O16408   6.631   3.692   3.710
 5389WAT     H116409   6.717   3.641   3.698
 5389WAT     H216410   6.584   3.658   3.792
 5390WAT      O16411   8.177   8.858   2.505
 5390WAT     H116412   8.201   8.949   2.470
 5390WAT     H216413   8.210   8.850   2.599
 5391WAT      O16414   3.362   9.763   2.936
 5391WAT     H116415   3.333   9.728   2.846
 5391WAT     H216416   3.440   9.824   2.924
 5392WAT      O16417   4.065   5.447   0.423
 5392WAT     H116418   4.022   5.485   0.505
 5392WAT     H216419   4.126   5.372   0.449
 5393WAT      O16420   0.546   2.609   6.619
 5393WAT     H116421   0.572   2.706   6.618
 5393WAT     H216422   0.448   2.601   6.602
 5394WAT      O16423   8.592   6.919   2.755
 5394WAT     H116424   8.533   6.962   2.823
 5394WAT     H216425   8.538   6.892   2.675
 5395WAT      O16426   4.518   5.941   0.011
 5395WAT     H116427   4.489   5.904  -0.077
 5395WAT     H216428   4.618   5.936   0.018
 5396WAT      O16429   6.853   9.303   5.419
 5396WAT     H116430   6.770   9.338   5.374
 5396WAT     H216431   6.870   9.355   5.502
 5397WAT      O16432   0.207   1.078   8.539
 5397WAT     H116433   0.166   1.028   8.462
 5397WAT     H216434   0.280   1.023   8.579
 5398WAT      O16435   6.144   9.764   8.002
 5398WAT     H116436   6.129   9.815   8.087
 5398WAT     H216437   6.056   9.734   7.966
 5399WAT      O16438   7.600   0.588   9.404
 5399WAT     H116439   7.539   0.667   9.409
 5399WAT     H216440   7.693   0.618   9.424
 5400WAT      O16441   1.753   2.635   1.277
 5400WAT     H116442   1.733   2.537   1.289
 5400WAT     H216443   1.793   2.671   1.361
 5401WAT      O16444   2.250   9.304   1.578
 5401WAT     H116445   2.318   9.375   1.559
 5401WAT     H216446   2.207   9.321   1.666
 5402WAT      O16447   3.908   5.268   0.849
 5402WAT     H116448   3.814   5.244   0.822
 5402WAT     H216449   3.957   5.185   0.874
 5403WAT      O16450   4.989   6.440   9.254
 5403WAT     H116451   5.064   6.424   9.318
 5403WAT     H216452   5.022   6.429   9.161
 5404WAT      O16453   7.880   3.788   4.470
 5404WAT     H116454   7.892   3.783   4.371
 5404WAT     H216455   7.914   3.876   4.504
 5405WAT      O16456   4.538   1.242   7.661
 5405WAT     H116457   4.537   1.172   7.733
 5405WAT     H216458   4.455   1.298   7.668
 5406WAT      O16459   1.864   3.327   5.821
 5406WAT     H116460   1.922   3.262   5.771
 5406WAT     H216461   1.781   3.345   5.769
 5407WAT      O16462   1.748   4.157   4.899
 5407WAT     H116463   1.747   4.209   4.814
 5407WAT     H216464   1.814   4.197   4.962
 5408WAT      O16465   2.605   6.448   0.431
 5408WAT     H116466   2.703   6.431   0.423
 5408WAT     H216467   2.574   6.426   0.523
 5409WAT      O16468   3.492   4.372   3.076
 5409WAT     H116469   3.460   4.301   3.137
 5409WAT     H216470   3.577   4.411   3.111
 5410WAT      O16471   0.002   1.955   6.973
 5410WAT     H116472  -0.013   1.910   7.061
 5410WAT     H216473   0.062   2.034   6.985
 5411WAT      O16474   2.959   3.977   9.701
 5411WAT     H116475   2.976   3.946   9.794
 5411WAT     H216476   3.010   4.061   9.684
 5412WAT      O16477   0.726   1.842   4.970
 5412WAT     H116478   0.786   1.768   5.002
 5412WAT     H216479   0.772   1.930   4.983
 5413WAT      O16480   1.853   8.404   1.160
 5413WAT     H116481   1.946   8.436   1.140
 5413WAT     H216482   1.851   8.304   1.159
 5414WAT      O16483   5.548   2.508   5.323
 5414WAT     H116484   5.543   2.489   5.421
 5414WAT     H216485   5.550   2.607   5.309
 5415WAT      O16486   9.117   7.839   1.992
 5415WAT     H116487   9.025   7.860   1.959
 5415WAT     H216488   9.181   7.843   1.916
 5416WAT      O16489   8.194   4.689   2.536
 5416WAT     H116490   8.122   4.677   2.467
 5416WAT     H216491   8.256   4.611   2.532
 5417WAT      O16492   4.196   6.194   1.178
 5417WAT     H116493   4.220   6.146   1.262
 5417WAT     H216494   4.218   6.136   1.099
 5418WAT      O16495   7.947   8.632   5.717
 5418WAT     H116496   7.920   8.542   5.751
 5418WAT     H216497   8.042   8.650   5.742
 5419WAT      O16498   5.459   6.946   7.518
 5419WAT     H116499   5.417   6.934   7.608
 5419WAT     H216500   5.513   7.030   7.518
 5420WAT      O16501   4.748   4.586   3.688
 5420WAT     H116502   4.653   4.612   3.668
 5420WAT     H216503   4.792   4.556   3.603
 5421WAT      O16504   7.270   6.128   3.262
 5421WAT     H116505   7.284   6.152   3.166
 5421WAT     H216506   7.181   6.085   3.273
 5422WAT      O16507   0.171   2.202   3.725
 5422WAT     H116508   0.183   2.301   3.735
 5422WAT     H216509   0.228   2.169   3.650
 5423WAT      O16510   2.106   3.046   7.447
 5423WAT     H116511   2.124   3.022   7.352
 5423WAT     H216512   2.136   2.972   7.507
 5424WAT      O16513   0.585   0.750   0.349
 5424WAT     H116514   0.583   0.805   0.265
 5424WAT     H216515   0.503   0.769   0.403
 5425WAT      O16516   1.111   0.192   6.054
 5425WAT     H116517   1.051   0.137   5.995
 5425WAT     H216518   1.081   0.183   6.149
 5426WAT      O16519   1.381   8.335   6.086
 5426WAT     H116520   1.449   8.360   6.017
 5426WAT     H216521   1.421   8.272   6.152
 5427WAT      O16522   4.336   8.521   2.997
 5427WAT     H116523   4.366   8.541   3.091
 5427WAT     H216524   4.277   8.596   2.965
 5428WAT      O16525   6.803   9.192   4.906
 5428WAT     H116526   6.779   9.286   4.932
 5428WAT     H216527   6.877   9.159   4.965
 5429WAT      O16528   5.132   5.205   7.411
 5429WAT     H116529   5.051   5.200   7.352
 5429WAT     H216530   5.123   5.140   7.486
 5430WAT      O16531   3.800   2.753   3.300
 5430WAT     H116532   3.854   2.673   3.326
 5430WAT     H216533   3.852   2.809   3.236
 5431WAT      O16534   9.817   6.757   5.745
 5431WAT     H116535   9.749   6.831   5.750
 5431WAT     H216536   9.872   6.757   5.828
 5432WAT      O16537   6.632   4.774   9.219
 5432WAT     H116538   6.610   4.736   9.129
 5432WAT     H216539   6.689   4.709   9.269
 5433WAT      O16540   5.521   1.114   5.718
 5433WAT     H116541   5.446   1.143   5.659
 5433WAT     H216542   5.567   1.035   5.677
 5434WAT      O16543   3.969   7.369   2.828
 5434WAT     H116544   3.975   7.466   2.805
 5434WAT     H216545   3.921   7.358   2.916
 5435WAT      O16546   5.856   8.089   0.205
 5435WAT     H116547   5.844   8.067   0.108
 5435WAT     H216548   5.921   8.165   0.213
 5436WAT      O16549   1.590   7.781   9.564
 5436WAT     H116550   1.513   7.719   9.579
 5436WAT     H216551   1.637   7.797   9.650
 5437WAT      O16552   5.742   2.478   0.771
 5437WAT     H116553   5.785   2.463   0.860
 5437WAT     H216554   5.811   2.468   0.699
 5438WAT      O16555   5.868   6.391   6.055
 5438WAT     H116556   5.912   6.321   6.110
 5438WAT     H216557   5.837   6.351   5.969
 5439WAT      O16558   4.566   0.865   3.097
 5439WAT     H116559   4.642   0.822   3.147
 5439WAT     H216560   4.594   0.957   3.067
 5440WAT      O16561   2.168   0.506   1.031
 5440WAT     H116562   2.077   0.530   1.065
 5440WAT     H216563   2.223   0.589   1.022
 5441WAT      O16564   1.703   2.561   2.271
 5441WAT     H116565   1.625   2.614   2.237
 5441WAT     H216566   1.738   2.503   2.199
 5442WAT      O16567   4.320   8.379   9.726
 5442WAT     H116568   4.262   8.460   9.729
 5442WAT     H216569   4.413   8.405   9.698
 5443WAT      O16570   1.306   5.757   9.612
 5443WAT     H116571   1.371   5.828   9.586
 5443WAT     H216572   1.291   5.695   9.535
 5444WAT      O16573   7.983   0.436   5.628
 5444WAT     H116574   8.082   0.424   5.636
 5444WAT     H216575   7.948   0.480   5.711
 5445WAT      O16576   4.770   3.210   9.769
 5445WAT     H116577   4.752   3.254   9.857
 5445WAT     H216578   4.714   3.254   9.698
 5446WAT      O16579   1.045   6.059   5.643
 5446WAT     H116580   1.000   6.145   5.619
 5446WAT     H216581   1.078   6.064   5.737
 5447WAT      O16582   6.545   8.616   5.145
 5447WAT     H116583   6.593   8.703   5.157
 5447WAT     H216584   6.477   8.606   5.217
 5448WAT      O16585   1.913   7.787   7.997
 5448WAT     H116586   2.002   7.817   7.962
 5448WAT     H216587   1.917   7.780   8.097
 5449WAT      O16588   9.779   5.208   0.544
 5449WAT     H116589   9.842   5.144   0.500
 5449WAT     H216590   9.745   5.273   0.477
 5450WAT      O16591   4.802   0.024   3.552
 5450WAT     H116592   4.826   0.041   3.648
 5450WAT     H216593   4.854   0.087   3.493
 5451WAT      O16594   9.638   7.089   2.986
 5451WAT     H116595   9.688   7.114   2.903
 5451WAT     H216596   9.692   7.114   3.066
 5452WAT      O16597   3.516   7.477   8.810
 5452WAT     H116598   3.610   7.465   8.777
 5452WAT     H216599   3.460   7.398   8.784
 5453WAT      O16600   8.654   7.582   0.792
 5453WAT     H116601   8.609   7.556   0.707
 5453WAT     H216602   8.728   7.518   0.812
 5454WAT      O16603   5.196   1.593   6.984
 5454WAT     H116604   5.247   1.533   7.046
 5454WAT     H216605   5.249   1.676   6.967
 5455WAT      O16606   5.010   6.689   4.245
 5455WAT     H116607   4.942   6.630   4.201
 5455WAT     H216608   4.964   6.769   4.283
 5456WAT      O16609   2.599   5.968   0.378
 5456WAT     H116610   2.593   6.029   0.299
 5456WAT     H216611   2.611   5.874   0.346
 5457WAT      O16612   1.328   4.847   6.754
 5457WAT     H116613   1.300   4.751   6.751
 5457WAT     H216614   1.363   4.874   6.665
 5458WAT      O16615   0.517   0.432   7.781
 5458WAT     H116616   0.437   0.490   7.796
 5458WAT     H216617   0.594   0.466   7.835
 5459WAT      O16618   5.177   1.275   4.922
 5459WAT     H116619   5.254   1.294   4.862
 5459WAT     H216620   5.108   1.222   4.872
 5460WAT      O16621   2.287   6.027   7.544
 5460WAT     H116622   2.321   6.020   7.637
 5460WAT     H216623   2.249   6.119   7.529
 5461WAT      O16624   0.337   9.205   3.179
 5461WAT     H116625   0.253   9.157   3.154
 5461WAT     H216626   0.402   9.140   3.218
 5462WAT      O16627   9.789   5.399   7.312
 5462WAT     H116628   9.822   5.305   7.307
 5462WAT     H216629   9.827   5.452   7.236
 5463WAT      O16630   1.216   7.182   8.137
 5463WAT     H116631   1.169   7.266   8.111
 5463WAT     H216632   1.231   7.181   8.236
 5464WAT      O16633   2.374   9.219   7.112
 5464WAT     H116634   2.444   9.220   7.183
 5464WAT     H216635   2.316   9.300   7.122
 5465WAT      O16636   9.176   8.840   2.976
 5465WAT     H116637   9.124   8.764   2.937
 5465WAT     H216638   9.127   8.878   3.054
 5466WAT      O16639   2.438   1.677   4.179
 5466WAT     H116640   2.405   1.656   4.087
 5466WAT     H216641   2.488   1.763   4.177
 5467WAT      O16642   2.501   6.853   9.403
 5467WAT     H116643   2.436   6.783   9.374
 5467WAT     H216644   2.523   6.913   9.326
 5468WAT      O16645   9.438   8.138   6.539
 5468WAT     H116646   9.432   8.042   6.512
 5468WAT     H216647   9.375   8.154   6.615
 5469WAT      O16648   1.922   6.264   0.886
 5469WAT     H116649   2.007   6.224   0.854
 5469WAT     H216650   1.865   6.193   0.928
 5470WAT      O16651   3.629   3.852   0.280
 5470WAT     H116652   3.640   3.812   0.372
 5470WAT     H216653   3.560   3.800   0.230
 5471WAT      O16654   1.136   6.170   7.720
 5471WAT     H116655   1.206   6.170   7.648
 5471WAT     H216656   1.047   6.149   7.680
 5472WAT      O16657   7.473   6.590   8.356
 5472WAT     H116658   7.422   6.669   8.322
 5472WAT     H216659   7.445   6.508   8.306
 5473WAT      O16660   9.736   4.089   9.364
 5473WAT     H116661   9.688   4.062   9.447
 5473WAT     H216662   9.814   4.147   9.386
 5474WAT      O16663   3.120   6.600   8.815
 5474WAT     H116664   3.030   6.608   8.771
 5474WAT     H216665   3.109   6.563   8.907
 5475WAT      O16666   1.032   6.724   6.485
 5475WAT     H116667   0.946   6.674   6.498
 5475WAT     H216668   1.063   6.760   6.573
 5476WAT      O16669   5.376   1.245   1.254
 5476WAT     H116670   5.292   1.193   1.274
 5476WAT     H216671   5.397   1.238   1.157
 5477WAT      O16672   6.165   8.783   6.665
 5477WAT     H116673   6.080   8.835   6.678
 5477WAT     H216674   6.207   8.807   6.578
 5478WAT      O16675   7.784   4.060   2.928
 5478WAT     H116676   7.830   3.991   2.984
 5478WAT     H216677   7.685   4.053   2.943
 5479WAT      O16678   6.945   7.236   7.258
 5479WAT     H116679   7.041   7.238   7.230
 5479WAT     H216680   6.903   7.324   7.237
 5480WAT      O16681   1.085   7.651   8.532
 5480WAT     H116682   1.013   7.715   8.506
 5480WAT     H216683   1.118   7.603   8.450
 5481WAT      O16684   0.350   7.660   7.851
 5481WAT     H116685   0.408   7.663   7.770
 5481WAT     H216686   0.401   7.620   7.927
 5482WAT      O16687   5.361   4.014   3.531
 5482WAT     H116688   5.337   3.921   3.559
 5482WAT     H216689   5.426   4.010   3.455
 5483WAT      O16690   9.714   1.546   3.873
 5483WAT     H116691   9.643   1.487   3.912
 5483WAT     H216692   9.709   1.636   3.916
 5484WAT      O16693   1.644   8.894   9.622
 5484WAT     H116694   1.671   8.944   9.540
 5484WAT     H216695   1.688   8.804   9.623
 5485WAT      O16696   5.182   2.000   3.293
 5485WAT     H116697   5.090   1.960   3.293
 5485WAT     H216698   5.221   1.992   3.385
 5486WAT      O16699   8.901   2.351   7.901
 5486WAT     H116700   8.882   2.359   7.999
 5486WAT     H216701   8.835   2.406   7.850
 5487WAT      O16702   0.747   8.496   9.387
 5487WAT     H116703   0.710   8.414   9.431
 5487WAT     H216704   0.800   8.549   9.453
 5488WAT      O16705   0.887   8.484   0.507
 5488WAT     H116706   0.985   8.466   0.497
 5488WAT     H216707   0.874   8.567   0.561
 5489WAT      O16708   9.884   1.337   3.570
 5489WAT     H116709   9.927   1.253   3.536
 5489WAT     H216710   9.860   1.326   3.666
 5490WAT      O16711   8.420   8.577   5.709
 5490WAT     H116712   8.439   8.608   5.616
 5490WAT     H216713   8.341   8.627   5.745
 5491WAT      O16714   2.911   4.200   3.798
 5491WAT     H116715   2.855   4.129   3.842
 5491WAT     H216716   2.861   4.286   3.796
 5492WAT      O16717   7.649   8.563   2.793
 5492WAT     H116718   7.598   8.539   2.875
 5492WAT     H216719   7.721   8.628   2.816
 5493WAT      O16720   3.267   8.474   1.142
 5493WAT     H116721   3.276   8.375   1.153
 5493WAT     H216722   3.243   8.515   1.229
 5494WAT      O16723   8.951   0.745   7.273
 5494WAT     H116724   8.869   0.793   7.303
 5494WAT     H216725   8.962   0.756   7.174
 5495WAT      O16726   2.850   6.705   6.719
 5495WAT     H116727   2.807   6.674   6.634
 5495WAT     H216728   2.782   6.753   6.775
 5496WAT      O16729   7.069   3.474   1.147
 5496WAT     H116730   7.075   3.445   1.243
 5496WAT     H216731   7.008   3.553   1.140
 5497WAT      O16732   4.468   7.429   9.160
 5497WAT     H116733   4.435   7.501   9.099
 5497WAT     H216734   4.391   7.369   9.185
 5498WAT      O16735   3.868   0.255   5.220
 5498WAT     H116736   3.906   0.264   5.128
 5498WAT     H216737   3.938   0.218   5.282
 5499WAT      O16738   8.786   6.546   3.898
 5499WAT     H116739   8.794   6.509   3.991
 5499WAT     H216740   8.690   6.545   3.871
 5500WAT      O16741   4.823   2.879   9.075
 5500WAT     H116742   4.782   2.852   8.987
 5500WAT     H216743   4.920   2.901   9.061
 5501WAT      O16744   1.522   1.562   7.382
 5501WAT     H116745   1.547   1.467   7.361
 5501WAT     H216746   1.444   1.589   7.325
 5502WAT      O16747   8.775   3.629   7.935
 5502WAT     H116748   8.751   3.645   7.839
 5502WAT     H216749   8.810   3.713   7.975
 5503WAT      O16750   9.707   0.686   6.850
 5503WAT     H116751   9.620   0.639   6.867
 5503WAT     H216752   9.695   0.785   6.865
 5504WAT      O16753   4.721   1.611   3.652
 5504WAT     H116754   4.698   1.691   3.708
 5504WAT     H216755   4.798   1.562   3.693
 5505WAT      O16756   3.330   0.104   5.934
 5505WAT     H116757   3.364   0.075   6.023
 5505WAT     H216758   3.300   0.200   5.939
 5506WAT      O16759   3.719   0.779   1.785
 5506WAT     H116760   3.734   0.819   1.875
 5506WAT     H216761   3.779   0.822   1.718
 5507WAT      O16762   2.221   6.350   8.585
 5507WAT     H116763   2.269   6.280   8.639
 5507WAT     H216764   2.138   6.310   8.545
 5508WAT      O16765   8.179   2.116   4.320
 5508WAT     H116766   8.080   2.121   4.303
 5508WAT     H216767   8.195   2.085   4.414
 5509WAT      O16768   2.088   7.733   9.429
 5509WAT     H116769   2.129   7.715   9.340
 5509WAT     H216770   2.157   7.769   9.491
 5510WAT      O16771   8.475   4.218   1.138
 5510WAT     H116772   8.387   4.175   1.117
 5510WAT     H216773   8.540   4.148   1.169
 5511WAT      O16774   7.149   1.050   8.540
 5511WAT     H116775   7.204   0.990   8.482
 5511WAT     H216776   7.204   1.084   8.616
 5512WAT      O16777   9.243   2.362   2.673
 5512WAT     H116778   9.283   2.272   2.694
 5512WAT     H216779   9.145   2.359   2.690
 5513WAT      O16780   6.336   2.316   1.874
 5513WAT     H116781   6.281   2.232   1.874
 5513WAT     H216782   6.276   2.395   1.875
 5514WAT      O16783   3.026   3.314   8.844
 5514WAT     H116784   2.952   3.348   8.786
 5514WAT     H216785   3.004   3.332   8.940
 5515WAT      O16786   3.290   5.562   8.464
 5515WAT     H116787   3.329   5.649   8.436
 5515WAT     H216788   3.250   5.516   8.385
 5516WAT      O16789   0.180   4.147   2.280
 5516WAT     H116790   0.257   4.145   2.216
 5516WAT     H216791   0.095   4.130   2.231
 5517WAT      O16792   2.579   4.520   0.022
 5517WAT     H116793   2.581   4.613   0.059
 5517WAT     H216794   2.667   4.500  -0.020
 5518WAT      O16795   1.623   8.579   1.990
 5518WAT     H116796   1.677   8.566   1.906
 5518WAT     H216797   1.679   8.553   2.069
 5519WAT      O16798   9.262   4.919   2.552
 5519WAT     H116799   9.205   4.860   2.494
 5519WAT     H216800   9.249   5.015   2.524
 5520WAT      O16801   9.620   2.499   4.042
 5520WAT     H116802   9.580   2.493   3.951
 5520WAT     H216803   9.550   2.526   4.108
 5521WAT      O16804   9.593   7.603   6.050
 5521WAT     H116805   9.596   7.538   5.973
 5521WAT     H216806   9.673   7.663   6.046
 5522WAT      O16807   1.652   4.972   1.740
 5522WAT     H116808   1.657   4.883   1.695
 5522WAT     H216809   1.734   4.986   1.794
 5523WAT      O16810   3.653   3.571   5.367
 5523WAT     H116811   3.556   3.572   5.393
 5523WAT     H216812   3.660   3.575   5.267
 5524WAT      O16813   5.445   5.686   4.937
 5524WAT     H116814   5.457   5.773   4.889
 5524WAT     H216815   5.419   5.616   4.871
 5525WAT      O16816   5.586   0.012   9.301
 5525WAT     H116817   5.559   0.077   9.372
 5525WAT     H216818   5.564   0.049   9.212
 5526WAT      O16819   8.827   9.349   5.721
 5526WAT     H116820   8.891   9.389   5.786
 5526WAT     H216821   8.868   9.345   5.630
 5527WAT      O16822   0.565   2.013   7.533
 5527WAT     H116823   0.528   2.059   7.451
 5527WAT     H216824   0.585   1.918   7.511
 5528WAT      O16825   8.483   0.875   3.272
 5528WAT     H116826   8.414   0.882   3.200
 5528WAT     H216827   8.437   0.869   3.361
 5529WAT      O16828   5.630   9.517   2.197
 5529WAT     H116829   5.573   9.569   2.260
 5529WAT     H216830   5.593   9.526   2.104
 5530WAT      O16831   4.560   9.055   4.788
 5530WAT     H116832   4.643   9.077   4.840
 5530WAT     H216833   4.479   9.070   4.845
 5531WAT      O16834   5.831   2.196   8.108
 5531WAT     H116835   5.778   2.166   8.187
 5531WAT     H216836   5.774   2.253   8.049
 5532WAT      O16837   9.819   2.485   1.749
 5532WAT     H116838   9.724   2.511   1.731
 5532WAT     H216839   9.868   2.565   1.784
 5533WAT      O16840   3.648   8.879   3.794
 5533WAT     H116841   3.577   8.932   3.840
 5533WAT     H216842   3.736   8.894   3.840
 5534WAT      O16843   1.840   2.654   3.910
 5534WAT     H116844   1.861   2.584   3.978
 5534WAT     H216845   1.752   2.633   3.866
 5535WAT      O16846   0.425   6.396   4.962
 5535WAT     H116847   0.522   6.399   4.985
 5535WAT     H216848   0.415   6.384   4.863
 5536WAT      O16849   7.308   8.223   6.468
 5536WAT     H116850   7.226   8.189   6.422
 5536WAT     H216851   7.282   8.299   6.529
 5537WAT      O16852   5.947   2.328   4.838
 5537WAT     H116853   5.865   2.332   4.895
 5537WAT     H216854   5.982   2.421   4.824
 5538WAT      O16855   2.014   6.981   6.518
 5538WAT     H116856   1.921   7.009   6.492
 5538WAT     H216857   2.056   6.931   6.442
 5539WAT      O16858   5.449   8.568   6.414
 5539WAT     H116859   5.488   8.630   6.481
 5539WAT     H216860   5.381   8.509   6.458
 5540WAT      O16861   7.788   4.812   8.360
 5540WAT     H116862   7.869   4.870   8.362
 5540WAT     H216863   7.815   4.716   8.372
 5541WAT      O16864   9.690   2.700   3.485
 5541WAT     H116865   9.639   2.700   3.398
 5541WAT     H216866   9.715   2.606   3.508
 5542WAT      O16867   7.658   7.223   1.020
 5542WAT     H116868   7.652   7.142   0.962
 5542WAT     H216869   7.689   7.196   1.111
 5543WAT      O16870   6.053   9.809   2.612
 5543WAT     H116871   6.002   9.746   2.670
 5543WAT     H216872   6.150   9.808   2.639
 5544WAT      O16873   2.424   9.289   4.778
 5544WAT     H116874   2.483   9.244   4.844
 5544WAT     H216875   2.468   9.372   4.745
 5545WAT      O16876   5.514   3.739   7.688
 5545WAT     H116877   5.530   3.669   7.618
 5545WAT     H216878   5.556   3.824   7.660
 5546WAT      O16879   3.735   7.606   9.041
 5546WAT     H116880   3.760   7.535   9.106
 5546WAT     H216881   3.635   7.614   9.036
 5547WAT      O16882   0.590   7.177   0.981
 5547WAT     H116883   0.647   7.239   1.034
 5547WAT     H216884   0.504   7.162   1.029
 5548WAT      O16885   6.598   3.618   2.707
 5548WAT     H116886   6.648   3.590   2.625
 5548WAT     H216887   6.659   3.612   2.786
 5549WAT      O16888   0.141   8.405   7.757
 5549WAT     H116889   0.070   8.360   7.812
 5549WAT     H216890   0.146   8.502   7.781
 5550WAT      O16891   7.775   9.177   5.107
 5550WAT     H116892   7.858   9.168   5.163
 5550WAT     H216893   7.784   9.121   5.025
 5551WAT      O16894   9.677   5.464   4.438
 5551WAT     H116895   9.610   5.402   4.399
 5551WAT     H216896   9.645   5.558   4.428
 5552WAT      O16897   2.642   2.211   1.481
 5552WAT     H116898   2.587   2.216   1.398
 5552WAT     H216899   2.667   2.115   1.498
 5553WAT      O16900   4.928   0.207   6.705
 5553WAT     H116901   5.016   0.253   6.720
 5553WAT     H216902   4.882   0.247   6.626
 5554WAT      O16903   4.059   3.666   6.545
 5554WAT     H116904   4.158   3.678   6.538
 5554WAT     H216905   4.039   3.573   6.578
 5555WAT      O16906   1.197   1.290   1.468
 5555WAT     H116907   1.267   1.359   1.451
 5555WAT     H216908   1.107   1.327   1.443
 5556WAT      O16909   1.290   6.614   2.021
 5556WAT     H116910   1.254   6.521   2.022
 5556WAT     H216911   1.256   6.662   1.940
 5557WAT      O16912   1.341   1.316   2.828
 5557WAT     H116913   1.256   1.315   2.776
 5557WAT     H216914   1.354   1.227   2.872
 5558WAT      O16915   4.890   7.079   8.665
 5558WAT     H116916   4.866   7.175   8.675
 5558WAT     H216917   4.935   7.065   8.577
 5559WAT      O16918   7.208   6.389   8.442
 5559WAT     H116919   7.284   6.411   8.382
 5559WAT     H216920   7.123   6.421   8.401
 5560WAT      O16921   8.568   4.986   1.669
 5560WAT     H116922   8.534   5.077   1.646
 5560WAT     H216923   8.625   4.992   1.751
 5561WAT      O16924   3.059   4.244   2.533
 5561WAT     H116925   3.049   4.343   2.526
 5561WAT     H216926   3.062   4.204   2.441
 5562WAT      O16927   6.157   7.543   0.888
 5562WAT     H116928   6.104   7.599   0.951
 5562WAT     H216929   6.137   7.569   0.794
 5563WAT      O16930   4.644   8.036   1.321
 5563WAT     H116931   4.617   8.056   1.415
 5563WAT     H216932   4.729   7.982   1.322
 5564WAT      O16933   3.488   3.307   5.060
 5564WAT     H116934   3.518   3.231   5.118
 5564WAT     H216935   3.538   3.306   4.974
 5565WAT      O16936   3.627   6.193   3.283
 5565WAT     H116937   3.547   6.253   3.293
 5565WAT     H216938   3.697   6.219   3.349
 5566WAT      O16939   3.515   5.641   1.248
 5566WAT     H116940   3.522   5.728   1.198
 5566WAT     H216941   3.574   5.573   1.204
 5567WAT      O16942   4.236   0.136   8.636
 5567WAT     H116943   4.229   0.069   8.562
 5567WAT     H216944   4.267   0.091   8.720
 5568WAT      O16945   2.407   1.112   8.550
 5568WAT     H116946   2.468   1.192   8.542
 5568WAT     H216947   2.349   1.122   8.631
 5569WAT      O16948   2.907   4.463   4.490
 5569WAT     H116949   2.817   4.465   4.534
 5569WAT     H216950   2.978   4.455   4.561
 5570WAT      O16951   6.679   8.634   6.053
 5570WAT     H116952   6.605   8.585   6.099
 5570WAT     H216953   6.750   8.658   6.120
 5571WAT      O16954   5.930   1.123   8.099
 5571WAT     H116955   5.908   1.037   8.052
 5571WAT     H216956   5.989   1.178   8.042
 5572WAT      O16957   0.363   8.096   9.708
 5572WAT     H116958   0.431   8.162   9.738
 5572WAT     H216959   0.408   8.018   9.666
 5573WAT      O16960   3.935   5.272   9.672
 5573WAT     H116961   3.898   5.364   9.663
 5573WAT     H216962   3.880   5.220   9.738
 5574WAT      O16963   7.967   1.601   3.022
 5574WAT     H116964   7.954   1.508   2.988
 5574WAT     H216965   7.975   1.600   3.122
 5575WAT      O16966   3.272   2.928   7.601
 5575WAT     H116967   3.178   2.964   7.606
 5575WAT     H216968   3.330   2.995   7.555
 5576WAT      O16969   2.680   9.474   5.488
 5576WAT     H116970   2.626   9.391   5.495
 5576WAT     H216971   2.687   9.502   5.392
 5577WAT      O16972   6.380   2.405   2.938
 5577WAT     H116973   6.344   2.446   3.022
 5577WAT     H216974   6.476   2.429   2.928
 5578WAT      O16975   1.284   6.882   4.018
 5578WAT     H116976   1.212   6.814   4.020
 5578WAT     H216977   1.373   6.838   4.033
 5579WAT      O16978   9.289   5.758   1.035
 5579WAT     H116979   9.339   5.730   0.954
 5579WAT     H216980   9.191   5.764   1.015
 5580WAT      O16981   0.150   0.671   8.334
 5580WAT     H116982   0.179   0.614   8.411
 5580WAT     H216983   0.103   0.614   8.266
 5581WAT      O16984   5.213   6.528   4.314
 5581WAT     H116985   5.132   6.586   4.301
 5581WAT     H216986   5.246   6.539   4.408
 5582WAT      O16987   4.809   4.825   8.850
 5582WAT     H116988   4.852   4.821   8.940
 5582WAT     H216989   4.710   4.825   8.860
 5583WAT      O16990   1.077   3.650   6.114
 5583WAT     H116991   1.129   3.714   6.171
 5583WAT     H216992   0.992   3.625   6.160
 5584WAT      O16993   4.630   5.992   6.117
 5584WAT     H116994   4.559   6.061   6.114
 5584WAT     H216995   4.627   5.937   6.033
 5585WAT      O16996   2.618   0.082   7.205
 5585WAT     H116997   2.681   0.099   7.281
 5585WAT     H216998   2.650   0.131   7.124
 5586WAT      O16999   6.919   6.269   1.868
 5586WAT     H117000   6.998   6.300   1.920
 5586WAT     H217001   6.916   6.316   1.780
 5587WAT      O17002   5.395   0.294   5.166
 5587WAT     H117003   5.453   0.321   5.089
 5587WAT     H217004   5.299   0.308   5.141
 5588WAT      O17005   0.501   2.311   1.318
 5588WAT     H117006   0.581   2.255   1.337
 5588WAT     H217007   0.418   2.261   1.342
 5589WAT      O17008   7.863   6.542   4.682
 5589WAT     H117009   7.844   6.452   4.644
 5589WAT     H217010   7.864   6.610   4.608
 5590WAT      O17011   7.104   4.567   1.020
 5590WAT     H117012   7.069   4.529   1.106
 5590WAT     H217013   7.035   4.629   0.981
 5591WAT      O17014   9.382   0.375   7.389
 5591WAT     H117015   9.392   0.475   7.391
 5591WAT     H217016   9.452   0.336   7.328
 5592WAT      O17017   1.011   5.853   3.886
 5592WAT     H117018   1.032   5.852   3.984
 5592WAT     H217019   1.058   5.929   3.843
 5593WAT      O17020   3.516   1.095   9.103
 5593WAT     H117021   3.552   1.186   9.079
 5593WAT     H217022   3.562   1.026   9.048
 5594WAT      O17023   4.984   8.587   4.398
 5594WAT     H117024   5.083   8.597   4.398
 5594WAT     H217025   4.954   8.552   4.487
 5595WAT      O17026   2.015   1.877   2.567
 5595WAT     H117027   2.038   1.868   2.664
 5595WAT     H217028   1.958   1.800   2.539
 5596WAT      O17029   0.801   2.467   8.747
 5596WAT     H117030   0.711   2.503   8.775
 5596WAT     H217031   0.798   2.367   8.749
 5597WAT      O17032   7.766   8.168   9.432
 5597WAT     H117033   7.722   8.253   9.464
 5597WAT     H217034   7.827   8.133   9.503
 5598WAT      O17035   6.446   8.368   7.651
 5598WAT     H117036   6.423   8.462   7.624
 5598WAT     H217037   6.520   8.334   7.593
 5599WAT      O17038   8.977   7.693   3.880
 5599WAT     H117039   8.977   7.629   3.803
 5599WAT     H217040   8.971   7.786   3.846
 5600WAT      O17041   3.996   1.778   1.810
 5600WAT     H117042   3.948   1.694   1.833
 5600WAT     H217043   4.094   1.762   1.811
 5601WAT      O17044   6.959   1.632   7.147
 5601WAT     H117045   6.927   1.726   7.135
 5601WAT     H217046   6.997   1.598   7.060
 5602WAT      O17047   7.739   4.747   6.261
 5602WAT     H117048   7.723   4.648   6.255
 5602WAT     H217049   7.766   4.782   6.172
 5603WAT      O17050   5.838   1.866   2.414
 5603WAT     H117051   5.849   1.965   2.424
 5603WAT     H217052   5.780   1.831   2.487
 5604WAT      O17053   2.030   5.590   5.890
 5604WAT     H117054   2.052   5.650   5.967
 5604WAT     H217055   1.985   5.507   5.923
 5605WAT      O17056   1.395   9.303   8.088
 5605WAT     H117057   1.297   9.316   8.071
 5605WAT     H217058   1.411   9.213   8.128
 5606WAT      O17059   8.168   3.724   0.569
 5606WAT     H117060   8.128   3.715   0.478
 5606WAT     H217061   8.208   3.637   0.597
 5607WAT      O17062   3.161   5.868   4.808
 5607WAT     H117063   3.215   5.790   4.778
 5607WAT     H217064   3.166   5.875   4.908
 5608WAT      O17065   1.767   3.562   6.275
 5608WAT     H117066   1.805   3.493   6.213
 5608WAT     H217067   1.753   3.648   6.225
 5609WAT      O17068   0.006   6.417   8.321
 5609WAT     H117069   0.087   6.386   8.372
 5609WAT     H217070   0.016   6.513   8.298
 5610WAT      O17071   0.273   0.881   3.065
 5610WAT     H117072   0.303   0.935   3.143
 5610WAT     H217073   0.353   0.843   3.018
 5611WAT      O17074   2.953   8.025   7.813
 5611WAT     H117075   2.861   8.017   7.852
 5611WAT     H217076   2.946   8.040   7.714
 5612WAT      O17077   1.975   0.042   3.862
 5612WAT     H117078   1.896   0.027   3.922
 5612WAT     H217079   2.034  -0.039   3.865
 5613WAT      O17080   6.814   3.347   9.760
 5613WAT     H117081   6.770   3.436   9.765
 5613WAT     H217082   6.912   3.359   9.746
 5614WAT      O17083   6.967   4.733   9.593
 5614WAT     H117084   7.015   4.820   9.584
 5614WAT     H217085   7.035   4.659   9.598
 5615WAT      O17086   3.359   8.854   9.403
 5615WAT     H117087   3.353   8.838   9.501
 5615WAT     H217088   3.310   8.781   9.354
 5616WAT      O17089   9.772   0.661   6.104
 5616WAT     H117090   9.718   0.726   6.158
 5616WAT     H217091   9.714   0.620   6.034
 5617WAT      O17092   6.434   9.266   4.123
 5617WAT     H117093   6.449   9.167   4.115
 5617WAT     H217094   6.519   9.314   4.102
 5618WAT      O17095   4.510   7.822   1.590
 5618WAT     H117096   4.552   7.912   1.582
 5618WAT     H217097   4.468   7.813   1.680
 5619WAT      O17098   6.281   0.230   4.283
 5619WAT     H117099   6.273   0.229   4.183
 5619WAT     H217100   6.334   0.150   4.313
 5620WAT      O17101   7.364   2.095   9.346
 5620WAT     H117102   7.366   1.999   9.319
 5620WAT     H217103   7.277   2.136   9.318
 5621WAT      O17104   0.168   8.760   5.699
 5621WAT     H117105   0.082   8.773   5.748
 5621WAT     H217106   0.151   8.711   5.614
 5622WAT      O17107   0.119   1.034   9.702
 5622WAT     H117108   0.104   1.133   9.699
 5622WAT     H217109   0.217   1.016   9.716
 5623WAT      O17110   6.397   7.383   1.690
 5623WAT     H117111   6.412   7.435   1.774
 5623WAT     H217112   6.334   7.434   1.631
 5624WAT      O17113   5.161   1.937   9.728
 5624WAT     H117114   5.217   1.856   9.707
 5624WAT     H217115   5.080   1.938   9.669
 5625WAT      O17116   9.403   4.281   4.166
 5625WAT     H117117   9.468   4.355   4.183
 5625WAT     H217118   9.452   4.199   4.136
 5626WAT      O17119   0.131   3.885   8.360
 5626WAT     H117120   0.193   3.863   8.436
 5626WAT     H217121   0.121   3.984   8.354
 5627WAT      O17122   2.654   7.604   7.001
 5627WAT     H117123   2.721   7.558   7.058
 5627WAT     H217124   2.654   7.702   7.022
 5628WAT      O17125   8.987   4.183   5.772
 5628WAT     H117126   8.932   4.244   5.829
 5628WAT     H217127   8.928   4.113   5.733
 5629WAT      O17128   4.826   4.810   1.270
 5629WAT     H117129   4.829   4.710   1.279
 5629WAT     H217130   4.809   4.834   1.175
 5630WAT      O17131   1.913   4.521   5.380
 5630WAT     H117132   2.009   4.539   5.403
 5630WAT     H217133   1.855   4.542   5.458
 5631WAT      O17134   1.367   3.772   9.688
 5631WAT     H117135   1.283   3.826   9.696
 5631WAT     H217136   1.411   3.792   9.600
 5632WAT      O17137   5.523   9.010   4.307
 5632WAT     H117138   5.429   9.039   4.287
 5632WAT     H217139   5.548   9.040   4.399
 5633WAT      O17140   8.181   8.902   8.674
 5633WAT     H117141   8.211   8.810   8.700
 5633WAT     H217142   8.235   8.935   8.597
 5634WAT      O17143   1.141   8.824   7.879
 5634WAT     H117144   1.064   8.799   7.938
 5634WAT     H217145   1.131   8.780   7.790
 5635WAT      O17146   4.961   0.266   0.432
 5635WAT     H117147   4.929   0.301   0.344
 5635WAT     H217148   4.899   0.296   0.505
 5636WAT      O17149   9.278   3.155   0.916
 5636WAT     H117150   9.357   3.208   0.885
 5636WAT     H217151   9.230   3.119   0.836
 5637WAT      O17152   3.966   6.601   0.326
 5637WAT     H117153   3.875   6.568   0.300
 5637WAT     H217154   4.029   6.524   0.334
 5638WAT      O17155   9.214   5.578   4.140
 5638WAT     H117156   9.132   5.605   4.092
 5638WAT     H217157   9.189   5.531   4.225
 5639WAT      O17158   8.644   9.783   2.142
 5639WAT     H117159   8.736   9.762   2.109
 5639WAT     H217160   8.650   9.849   2.217
 5640WAT      O17161   8.607   6.808   3.863
 5640WAT     H117162   8.707   6.805   3.873
 5640WAT     H217163   8.565   6.755   3.936
 5641WAT      O17164   9.485   5.251   3.674
 5641WAT     H117165   9.429   5.170   3.659
 5641WAT     H217166   9.504   5.262   3.772
 5642WAT      O17167   2.564   1.174   4.280
 5642WAT     H117168   2.543   1.094   4.337
 5642WAT     H217169   2.543   1.153   4.185
 5643WAT      O17170   4.522   0.698   2.384
 5643WAT     H117171   4.530   0.638   2.304
 5643WAT     H217172   4.495   0.789   2.354
 5644WAT      O17173   2.136   9.417   3.168
 5644WAT     H117174   2.107   9.513   3.171
 5644WAT     H217175   2.058   9.358   3.189
 5645WAT      O17176   9.013   2.209   1.663
 5645WAT     H117177   8.998   2.125   1.611
 5645WAT     H217178   8.955   2.209   1.744
 5646WAT      O17179   2.546   1.117   8.895
 5646WAT     H117180   2.472   1.179   8.924
 5646WAT     H217181   2.573   1.060   8.973
 5647WAT      O17182   6.089   2.241   8.038
 5647WAT     H117183   5.994   2.239   8.071
 5647WAT     H217184   6.103   2.165   7.975
 5648WAT      O17185   7.172   6.140   7.468
 5648WAT     H117186   7.164   6.047   7.504
 5648WAT     H217187   7.109   6.151   7.391
 5649WAT      O17188   3.981   7.563   5.361
 5649WAT     H117189   3.912   7.569   5.288
 5649WAT     H217190   4.066   7.526   5.324
 5650WAT      O17191   1.886   2.071   8.706
 5650WAT     H117192   1.901   2.069   8.607
 5650WAT     H217193   1.970   2.043   8.752
 5651WAT      O17194   9.150   5.242   7.200
 5651WAT     H117195   9.187   5.151   7.219
 5651WAT     H217196   9.058   5.233   7.162
 5652WAT      O17197   4.112   5.498   8.486
 5652WAT     H117198   4.030   5.556   8.489
 5652WAT     H217199   4.184   5.540   8.541
 5653WAT      O17200   0.877   6.977   4.252
 5653WAT     H117201   0.782   7.010   4.253
 5653WAT     H217202   0.937   7.048   4.289
 5654WAT      O17203   6.835   2.218   2.025
 5654WAT     H117204   6.846   2.184   2.118
 5654WAT     H217205   6.749   2.268   2.017
 5655WAT      O17206   6.991   5.776   6.565
 5655WAT     H117207   7.040   5.854   6.602
 5655WAT     H217208   6.901   5.768   6.609
 5656WAT      O17209   0.492   8.049   3.862
 5656WAT     H117210   0.460   7.956   3.878
 5656WAT     H217211   0.487   8.102   3.947
 5657WAT      O17212   4.971   1.665   8.743
 5657WAT     H117213   4.927   1.741   8.694
 5657WAT     H217214   5.041   1.702   8.805
 5658WAT      O17215   0.409   7.269   9.436
 5658WAT     H117216   0.339   7.314   9.492
 5658WAT     H217217   0.383   7.174   9.419
 5659WAT      O17218   7.133   4.937   9.554
 5659WAT     H117219   7.218   4.925   9.605
 5659WAT     H217220   7.152   4.926   9.456
 5660WAT      O17221   1.712   2.375   3.754
 5660WAT     H117222   1.613   2.371   3.748
 5660WAT     H217223   1.743   2.327   3.836
 5661WAT      O17224   0.759   8.315   6.299
 5661WAT     H117225   0.722   8.231   6.259
 5661WAT     H217226   0.685   8.380   6.313
 5662WAT      O17227   6.718   7.351   3.002
 5662WAT     H117228   6.623   7.329   3.024
 5662WAT     H217229   6.734   7.336   2.905
 5663WAT      O17230   9.211   4.155   4.791
 5663WAT     H117231   9.173   4.178   4.881
 5663WAT     H217232   9.304   4.120   4.803
 5664WAT      O17233   3.464   4.717   3.237
 5664WAT     H117234   3.518   4.775   3.176
 5664WAT     H217235   3.368   4.719   3.210
 5665WAT      O17236   3.567   7.150   6.657
 5665WAT     H117237   3.569   7.241   6.616
 5665WAT     H217238   3.612   7.085   6.595
 5666WAT      O17239   2.821   4.094   5.667
 5666WAT     H117240   2.818   4.059   5.573
 5666WAT     H217241   2.907   4.066   5.710
 5667WAT      O17242   4.363   9.849   0.783
 5667WAT     H117243   4.436   9.859   0.715
 5667WAT     H217244   4.342   9.752   0.795
 5668WAT      O17245   2.792   7.739   0.217
 5668WAT     H117246   2.840   7.712   0.300
 5668WAT     H217247   2.815   7.834   0.195
 5669WAT      O17248   8.518   2.774   1.131
 5669WAT     H117249   8.461   2.732   1.202
 5669WAT     H217250   8.524   2.872   1.147
 5670WAT      O17251   7.027   1.205   8.309
 5670WAT     H117252   7.065   1.130   8.364
 5670WAT     H217253   7.100   1.249   8.258
 5671WAT      O17254   6.254   8.734   4.446
 5671WAT     H117255   6.273   8.677   4.366
 5671WAT     H217256   6.165   8.709   4.485
 5672WAT      O17257   5.421   1.249   2.410
 5672WAT     H117258   5.328   1.273   2.439
 5672WAT     H217259   5.425   1.246   2.310
 5673WAT      O17260   2.342   5.914   1.575
 5673WAT     H117261   2.373   5.838   1.518
 5673WAT     H217262   2.419   5.949   1.628
 5674WAT      O17263   5.727   6.471   8.199
 5674WAT     H117264   5.759   6.404   8.266
 5674WAT     H217265   5.803   6.496   8.139
 5675WAT      O17266   6.421   8.496   7.891
 5675WAT     H117267   6.422   8.435   7.970
 5675WAT     H217268   6.421   8.442   7.807
 5676WAT      O17269   7.723   1.459   1.580
 5676WAT     H117270   7.716   1.413   1.492
 5676WAT     H217271   7.791   1.412   1.637
 5677WAT      O17272   0.356   1.976   1.818
 5677WAT     H117273   0.431   2.030   1.856
 5677WAT     H217274   0.327   1.908   1.885
 5678WAT      O17275   7.305   9.106   2.318
 5678WAT     H117276   7.212   9.124   2.284
 5678WAT     H217277   7.340   9.022   2.276
 5679WAT      O17278   8.258   8.024   0.959
 5679WAT     H117279   8.307   8.078   0.891
 5679WAT     H217280   8.234   8.082   1.037
 5680WAT      O17281   5.972   9.546   0.392
 5680WAT     H117282   5.911   9.469   0.373
 5680WAT     H217283   5.922   9.618   0.440
 5681WAT      O17284   2.959   6.021   6.830
 5681WAT     H117285   2.926   6.115   6.816
 5681WAT     H217286   2.986   5.982   6.742
 5682WAT      O17287   0.250   1.796   3.767
 5682WAT     H117288   0.303   1.855   3.707
 5682WAT     H217289   0.262   1.701   3.740
 5683WAT      O17290   3.967   6.027   8.151
 5683WAT     H117291   3.977   6.122   8.181
 5683WAT     H217292   4.027   5.969   8.206
 5684WAT      O17293   3.186   5.077   1.636
 5684WAT     H117294   3.164   5.136   1.558
 5684WAT     H217295   3.167   4.982   1.613
 5685WAT      O17296   7.078   5.918   3.576
 5685WAT     H117297   7.163   5.918   3.627
 5685WAT     H217298   7.026   6.001   3.598
 5686WAT      O17299   7.837   9.631   0.595
 5686WAT     H117300   7.816   9.533   0.602
 5686WAT     H217301   7.758   9.679   0.557
 5687WAT      O17302   5.801   7.120   5.937
 5687WAT     H117303   5.872   7.137   5.868
 5687WAT     H217304   5.765   7.028   5.925
 5688WAT      O17305   0.661   0.077   4.980
 5688WAT     H117306   0.628   0.117   5.066
 5688WAT     H217307   0.760   0.090   4.975
 5689WAT      O17308   8.044   7.928   0.848
 5689WAT     H117309   7.982   7.991   0.800
 5689WAT     H217310   8.127   7.977   0.875
 5690WAT      O17311   6.917   4.135   4.664
 5690WAT     H117312   6.882   4.206   4.602
 5690WAT     H217313   6.942   4.176   4.751
 5691WAT      O17314   9.696   7.222   7.091
 5691WAT     H117315   9.672   7.311   7.128
 5691WAT     H217316   9.783   7.228   7.043
 5692WAT      O17317   3.561   1.396   9.540
 5692WAT     H117318   3.605   1.457   9.474
 5692WAT     H217319   3.564   1.302   9.506
 5693WAT      O17320   3.648   4.875   8.303
 5693WAT     H117321   3.685   4.886   8.395
 5693WAT     H217322   3.556   4.914   8.298
 5694WAT      O17323   0.042   7.795   7.343
 5694WAT     H117324  -0.017   7.823   7.419
 5694WAT     H217325   0.136   7.787   7.375
 5695WAT      O17326   8.691   3.188   8.180
 5695WAT     H117327   8.711   3.249   8.104
 5695WAT     H217328   8.774   3.137   8.205
 5696WAT      O17329   0.900   5.408   9.244
 5696WAT     H117330   0.918   5.316   9.208
 5696WAT     H217331   0.822   5.447   9.195
 5697WAT      O17332   4.584   6.171   8.712
 5697WAT     H117333   4.667   6.227   8.705
 5697WAT     H217334   4.572   6.119   8.627
 5698WAT      O17335   0.640   6.240   0.343
 5698WAT     H117336   0.603   6.223   0.434
 5698WAT     H217337   0.690   6.326   0.343
 5699WAT      O17338   0.944   1.970   4.204
 5699WAT     H117339   0.955   2.067   4.182
 5699WAT     H217340   1.034   1.928   4.214
 5700WAT      O17341   2.972   3.115   3.310
 5700WAT     H117342   2.896   3.067   3.266
 5700WAT     H217343   2.977   3.209   3.276
 5701WAT      O17344   1.383   1.472   5.106
 5701WAT     H117345   1.395   1.559   5.059
 5701WAT     H217346   1.384   1.398   5.039
 5702WAT      O17347   5.285   6.587   4.628
 5702WAT     H117348   5.277   6.672   4.578
 5702WAT     H217349   5.219   6.586   4.704
 5703WAT      O17350   3.549   0.977   4.552
 5703WAT     H117351   3.605   1.008   4.628
 5703WAT     H217352   3.483   1.048   4.528
 5704WAT      O17353   6.448   4.942   5.673
 5704WAT     H117354   6.363   4.991   5.651
 5704WAT     H217355   6.492   4.986   5.752
 5705WAT      O17356   7.066   7.562   0.192
 5705WAT     H117357   7.111   7.545   0.104
 5705WAT     H217358   7.039   7.474   0.233
 5706WAT      O17359   1.054   3.204   8.181
 5706WAT     H117360   0.995   3.223   8.103
 5706WAT     H217361   1.117   3.130   8.159
 5707WAT      O17362   2.026   3.141   2.456
 5707WAT     H117363   2.013   3.230   2.500
 5707WAT     H217364   2.115   3.139   2.411
 5708WAT      O17365   0.525   1.742   0.311
 5708WAT     H117366   0.541   1.643   0.303
 5708WAT     H217367   0.450   1.769   0.251
 5709WAT      O17368   6.017   7.701   1.658
 5709WAT     H117369   6.024   7.683   1.560
 5709WAT     H217370   6.015   7.800   1.674
 5710WAT      O17371   9.790   7.868   7.069
 5710WAT     H117372   9.827   7.817   7.147
 5710WAT     H217373   9.802   7.815   6.985
 5711WAT      O17374   4.992   0.073   5.599
 5711WAT     H117375   5.056   0.014   5.648
 5711WAT     H217376   5.035   0.105   5.514
 5712WAT      O17377   5.389   3.017   7.964
 5712WAT     H117378   5.391   2.922   7.933
 5712WAT     H217379   5.328   3.069   7.905
 5713WAT      O17380   2.379   7.821   5.055
 5713WAT     H117381   2.314   7.886   5.016
 5713WAT     H217382   2.333   7.734   5.073
 5714WAT      O17383   9.514   3.794   8.950
 5714WAT     H117384   9.556   3.882   8.929
 5714WAT     H217385   9.445   3.805   9.021
 5715WAT      O17386   7.148   1.426   2.477
 5715WAT     H117387   7.247   1.433   2.478
 5715WAT     H217388   7.111   1.471   2.396
 5716WAT      O17389   8.941   7.332   9.231
 5716WAT     H117390   9.008   7.291   9.293
 5716WAT     H217391   8.965   7.310   9.137
 5717WAT      O17392   2.947   1.213   7.007
 5717WAT     H117393   2.998   1.187   6.926
 5717WAT     H217394   2.907   1.304   6.994
 5718WAT      O17395   7.589   5.508   2.669
 5718WAT     H117396   7.538   5.555   2.597
 5718WAT     H217397   7.537   5.514   2.755
 5719WAT      O17398   5.397   7.826   0.324
 5719WAT     H117399   5.383   7.785   0.234
 5719WAT     H217400   5.340   7.908   0.332
 5720WAT      O17401   8.106   0.051   5.664
 5720WAT     H117402   8.104  -0.018   5.592
 5720WAT     H217403   8.082   0.008   5.751
 5721WAT      O17404   7.990   1.229   1.534
 5721WAT     H117405   8.014   1.231   1.437
 5721WAT     H217406   7.950   1.317   1.561
 5722WAT      O17407   7.802   6.257   3.094
 5722WAT     H117408   7.852   6.199   3.158
 5722WAT     H217409   7.858   6.336   3.069
 5723WAT      O17410   3.095   5.557   0.319
 5723WAT     H117411   3.192   5.566   0.341
 5723WAT     H217412   3.075   5.462   0.293
 5724WAT      O17413   8.552   1.553   2.419
 5724WAT     H117414   8.600   1.504   2.492
 5724WAT     H217415   8.522   1.488   2.349
 5725WAT      O17416   0.299   8.066   0.099
 5725WAT     H117417   0.231   8.116   0.152
 5725WAT     H217418   0.293   8.091   0.002
 5726WAT      O17419   3.253   5.564   7.787
 5726WAT     H117420   3.351   5.565   7.805
 5726WAT     H217421   3.217   5.657   7.796
 5727WAT      O17422   0.501   0.569   1.518
 5727WAT     H117423   0.521   0.618   1.603
 5727WAT     H217424   0.406   0.587   1.491
 5728WAT      O17425   6.146   3.309   7.192
 5728WAT     H117426   6.173   3.314   7.096
 5728WAT     H217427   6.146   3.213   7.222
 5729WAT      O17428   2.972   6.130   5.041
 5729WAT     H117429   2.902   6.063   5.017
 5729WAT     H217430   3.062   6.089   5.031
 5730WAT      O17431   4.409   4.296   4.833
 5730WAT     H117432   4.359   4.211   4.852
 5730WAT     H217433   4.443   4.293   4.739
 5731WAT      O17434   2.260   6.897   6.115
 5731WAT     H117435   2.300   6.986   6.137
 5731WAT     H217436   2.268   6.881   6.016
 5732WAT      O17437   1.782   9.014   8.343
 5732WAT     H117438   1.746   9.052   8.257
 5732WAT     H217439   1.764   8.916   8.346
 5733WAT      O17440   5.181   5.578   2.026
 5733WAT     H117441   5.126   5.571   1.943
 5733WAT     H217442   5.277   5.593   2.001
 5734WAT      O17443   4.852   7.040   1.936
 5734WAT     H117444   4.839   7.121   1.993
 5734WAT     H217445   4.766   6.988   1.933
 5735WAT      O17446   6.088   9.303   3.087
 5735WAT     H117447   6.154   9.356   3.139
 5735WAT     H217448   6.070   9.217   3.134
 5736WAT      O17449   9.380   4.786   0.962
 5736WAT     H117450   9.365   4.885   0.960
 5736WAT     H217451   9.435   4.759   0.882
 5737WAT      O17452   1.360   8.239   7.931
 5737WAT     H117453   1.301   8.188   7.995
 5737WAT     H217454   1.429   8.288   7.983
 5738WAT      O17455   0.622   4.060   9.762
 5738WAT     H117456   0.661   4.119   9.832
 5738WAT     H217457   0.541   4.103   9.722
 5739WAT      O17458   7.362   0.069   1.039
 5739WAT     H117459   7.320  -0.022   1.041
 5739WAT     H217460   7.333   0.117   0.957
 5740WAT      O17461   1.050   3.717   2.640
 5740WAT     H117462   0.983   3.791   2.646
 5740WAT     H217463   1.025   3.654   2.567
 5741WAT      O17464   4.110   5.120   8.937
 5741WAT     H117465   4.128   5.022   8.944
 5741WAT     H217466   4.188   5.171   8.973
 5742WAT      O17467   3.384   1.174   4.545
 5742WAT     H117468   3.304   1.212   4.499
 5742WAT     H217469   3.425   1.244   4.604
 5743WAT      O17470   7.265   8.932   0.070
 5743WAT     H117471   7.228   8.909  -0.020
 5743WAT     H217472   7.196   8.982   0.123
 5744WAT      O17473   6.686   9.223   3.180
 5744WAT     H117474   6.717   9.263   3.266
 5744WAT     H217475   6.594   9.256   3.159
 5745WAT      O17476   7.420   1.776   8.250
 5745WAT     H117477   7.496   1.839   8.266
 5745WAT     H217478   7.436   1.691   8.300
 5746WAT      O17479   4.140   6.514   3.891
 5746WAT     H117480   4.132   6.562   3.803
 5746WAT     H217481   4.172   6.578   3.961
 5747WAT      O17482   9.250   5.589   7.498
 5747WAT     H117483   9.290   5.638   7.420
 5747WAT     H217484   9.203   5.507   7.464
 5748WAT      O17485   1.718   7.334   0.256
 5748WAT     H117486   1.653   7.397   0.298
 5748WAT     H217487   1.793   7.386   0.215
 5749WAT      O17488   5.680   8.962   6.550
 5749WAT     H117489   5.676   9.062   6.551
 5749WAT     H217490   5.677   8.930   6.455
 5750WAT      O17491   9.878   6.903   8.758
 5750WAT     H117492   9.886   6.812   8.798
 5750WAT     H217493   9.885   6.972   8.830
 5751WAT      O17494   2.264   6.950   1.802
 5751WAT     H117495   2.256   7.017   1.875
 5751WAT     H217496   2.337   6.979   1.739
 5752WAT      O17497   5.288   3.298   0.264
 5752WAT     H117498   5.299   3.203   0.234
 5752WAT     H217499   5.351   3.316   0.341
 5753WAT      O17500   4.389   2.950   7.972
 5753WAT     H117501   4.371   2.870   8.028
 5753WAT     H217502   4.320   3.020   7.991
 5754WAT      O17503   6.580   0.667   6.590
 5754WAT     H117504   6.664   0.649   6.640
 5754WAT     H217505   6.505   0.613   6.628
 5755WAT      O17506   8.493   8.174   0.050
 5755WAT     H117507   8.459   8.162  -0.043
 5755WAT     H217508   8.489   8.086   0.098
 5756WAT      O17509   6.729   6.784   1.375
 5756WAT     H117510   6.715   6.724   1.454
 5756WAT     H217511   6.805   6.847   1.395
 5757WAT      O17512   5.094   8.843   6.091
 5757WAT     H117513   5.057   8.933   6.117
 5757WAT     H217514   5.083   8.830   5.992
 5758WAT      O17515   1.017   9.464   1.135
 5758WAT     H117516   1.017   9.563   1.146
 5758WAT     H217517   1.079   9.438   1.061
 5759WAT      O17518   0.120   9.481   8.243
 5759WAT     H117519   0.028   9.519   8.237
 5759WAT     H217520   0.165   9.488   8.154
 5760WAT      O17521   2.636   1.273   7.755
 5760WAT     H117522   2.608   1.200   7.694
 5760WAT     H217523   2.557   1.307   7.806
 5761WAT      O17524   0.732   8.971   2.239
 5761WAT     H117525   0.759   9.051   2.292
 5761WAT     H217526   0.698   9.000   2.149
 5762WAT      O17527   7.778   7.638   1.114
 5762WAT     H117528   7.866   7.592   1.120
 5762WAT     H217529   7.704   7.570   1.117
 5763WAT      O17530   3.531   7.241   6.135
 5763WAT     H117531   3.573   7.212   6.049
 5763WAT     H217532   3.433   7.255   6.121
 5764WAT      O17533   9.362   4.182   3.626
 5764WAT     H117534   9.339   4.265   3.678
 5764WAT     H217535   9.415   4.120   3.684
 5765WAT      O17536   9.368   6.434   8.693
 5765WAT     H117537   9.419   6.350   8.674
 5765WAT     H217538   9.423   6.513   8.665
 5766WAT      O17539   7.813   0.897   2.235
 5766WAT     H117540   7.855   0.813   2.270
 5766WAT     H217541   7.754   0.875   2.157
 5767WAT      O17542  -0.005   7.747   1.417
 5767WAT     H117543   0.035   7.713   1.332
 5767WAT     H217544   0.059   7.810   1.461
 5768WAT      O17545   4.631   1.101   8.761
 5768WAT     H117546   4.624   1.002   8.757
 5768WAT     H217547   4.548   1.139   8.802
 5769WAT      O17548   9.813   3.352   0.645
 5769WAT     H117549   9.726   3.337   0.693
 5769WAT     H217550   9.822   3.285   0.572
 5770WAT      O17551   4.203   2.279   4.162
 5770WAT     H117552   4.133   2.221   4.121
 5770WAT     H217553   4.241   2.234   4.243
 5771WAT      O17554   6.102   7.253   6.170
 5771WAT     H117555   6.104   7.175   6.232
 5771WAT     H217556   6.101   7.221   6.076
 5772WAT      O17557   6.768   4.634   7.987
 5772WAT     H117558   6.752   4.597   7.895
 5772WAT     H217559   6.831   4.712   7.982
 5773WAT      O17560   6.789   0.818   8.920
 5773WAT     H117561   6.819   0.778   9.007
 5773WAT     H217562   6.853   0.794   8.848
 5774WAT      O17563   8.824   0.191   0.581
 5774WAT     H117564   8.908   0.234   0.549
 5774WAT     H217565   8.846   0.106   0.629
 5775WAT      O17566   7.733   9.047   1.466
 5775WAT     H117567   7.668   9.094   1.406
 5775WAT     H217568   7.785   8.980   1.413
 5776WAT      O17569   7.200   0.101   9.298
 5776WAT     H117570   7.138   0.026   9.275
 5776WAT     H217571   7.154   0.165   9.359
 5777WAT      O17572   6.216   5.260   6.403
 5777WAT     H117573   6.195   5.353   6.374
 5777WAT     H217574   6.168   5.239   6.488
 5778WAT      O17575   1.046   8.796   5.843
 5778WAT     H117576   1.036   8.748   5.756
 5778WAT     H217577   1.138   8.834   5.851
 5779WAT      O17578   3.871   3.839   8.989
 5779WAT     H117579   3.957   3.878   9.024
 5779WAT     H217580   3.804   3.912   8.979
 5780WAT      O17581   5.621   1.774   5.692
 5780WAT     H117582   5.625   1.719   5.609
 5780WAT     H217583   5.557   1.734   5.756
 5781WAT      O17584   2.303   6.221   8.209
 5781WAT     H117585   2.214   6.192   8.173
 5781WAT     H217586   2.302   6.319   8.225
 5782WAT      O17587   0.199   3.458   2.677
 5782WAT     H117588   0.191   3.498   2.586
 5782WAT     H217589   0.264   3.511   2.732
 5783WAT      O17590   4.748   1.958   9.509
 5783WAT     H117591   4.846   1.944   9.496
 5783WAT     H217592   4.718   2.036   9.455
 5784WAT      O17593   6.304   0.376   6.770
 5784WAT     H117594   6.216   0.339   6.743
 5784WAT     H217595   6.358   0.305   6.815
 5785WAT      O17596   9.526   2.236   2.121
 5785WAT     H117597   9.433   2.220   2.155
 5785WAT     H217598   9.531   2.212   2.024
 5786WAT      O17599   3.518   2.212   4.739
 5786WAT     H117600   3.545   2.116   4.735
 5786WAT     H217601   3.550   2.252   4.825
 5787WAT      O17602   0.173   9.083   6.453
 5787WAT     H117603   0.145   9.045   6.541
 5787WAT     H217604   0.207   9.010   6.394
 5788WAT      O17605   3.590   0.235   6.048
 5788WAT     H117606   3.644   0.208   5.968
 5788WAT     H217607   3.503   0.185   6.047
 5789WAT      O17608   5.872   8.648   7.857
 5789WAT     H117609   5.910   8.739   7.872
 5789WAT     H217610   5.946   8.580   7.859
 5790WAT      O17611   5.910   2.917   3.503
 5790WAT     H117612   5.865   3.002   3.531
 5790WAT     H217613   6.000   2.912   3.545
 5791WAT      O17614   7.372   8.090   3.732
 5791WAT     H117615   7.437   8.155   3.693
 5791WAT     H217616   7.401   7.997   3.709
 5792WAT      O17617   9.135   3.105   2.522
 5792WAT     H117618   9.221   3.155   2.511
 5792WAT     H217619   9.079   3.149   2.592
 5793WAT      O17620   2.319   4.796   9.295
 5793WAT     H117621   2.280   4.860   9.361
 5793WAT     H217622   2.290   4.703   9.319
 5794WAT      O17623   4.763   8.480   1.827
 5794WAT     H117624   4.671   8.488   1.865
 5794WAT     H217625   4.757   8.457   1.729
 5795WAT      O17626   2.832   6.258   3.926
 5795WAT     H117627   2.767   6.329   3.951
 5795WAT     H217628   2.782   6.176   3.895
 5796WAT      O17629   0.522   8.380   7.139
 5796WAT     H117630   0.536   8.363   7.237
 5796WAT     H217631   0.453   8.451   7.127
 5797WAT      O17632   0.242   8.361   5.203
 5797WAT     H117633   0.341   8.364   5.192
 5797WAT     H217634   0.219   8.353   5.300
 5798WAT      O17635   1.195   6.430   3.589
 5798WAT     H117636   1.229   6.520   3.564
 5798WAT     H217637   1.271   6.369   3.612
 5799WAT      O17638   1.609   3.602   2.470
 5799WAT     H117639   1.683   3.572   2.530
 5799WAT     H217640   1.571   3.688   2.504
 5800WAT      O17641   5.214   6.591   2.266
 5800WAT     H117642   5.137   6.628   2.317
 5800WAT     H217643   5.181   6.537   2.189
 5801WAT      O17644   1.646   2.474   7.922
 5801WAT     H117645   1.731   2.527   7.924
 5801WAT     H217646   1.648   2.409   7.845
 5802WAT      O17647   4.907   4.052   2.348
 5802WAT     H117648   4.899   4.146   2.382
 5802WAT     H217649   4.971   4.049   2.271
 5803WAT      O17650   7.085   1.033   2.890
 5803WAT     H117651   7.066   0.952   2.945
 5803WAT     H217652   7.119   1.106   2.949
 5804WAT      O17653   5.749   1.843   9.239
 5804WAT     H117654   5.735   1.928   9.188
 5804WAT     H217655   5.662   1.812   9.277
 5805WAT      O17656   0.212   8.969   1.803
 5805WAT     H117657   0.140   8.981   1.871
 5805WAT     H217658   0.301   8.967   1.849
 5806WAT      O17659   9.664   4.657   0.870
 5806WAT     H117660   9.763   4.669   0.857
 5806WAT     H217661   9.615   4.698   0.794
 5807WAT      O17662   3.542   9.360   0.741
 5807WAT     H117663   3.512   9.267   0.719
 5807WAT     H217664   3.633   9.356   0.784
 5808WAT      O17665   5.760   9.388   3.812
 5808WAT     H117666   5.803   9.393   3.722
 5808WAT     H217667   5.813   9.328   3.872
 5809WAT      O17668   7.326   1.474   9.283
 5809WAT     H117669   7.315   1.414   9.362
 5809WAT     H217670   7.242   1.527   9.270
 5810WAT      O17671   8.980   5.289   0.315
 5810WAT     H117672   8.920   5.339   0.378
 5810WAT     H217673   8.992   5.195   0.348
 5811WAT      O17674   2.014   7.884   7.614
 5811WAT     H117675   1.919   7.874   7.644
 5811WAT     H217676   2.038   7.981   7.615
 5812WAT      O17677   5.338   4.309   2.153
 5812WAT     H117678   5.267   4.371   2.119
 5812WAT     H217679   5.418   4.362   2.179
 5813WAT      O17680   6.490   9.757   3.612
 5813WAT     H117681   6.586   9.755   3.582
 5813WAT     H217682   6.441   9.828   3.563
 5814WAT      O17683   5.040   3.580   7.643
 5814WAT     H117684   5.049   3.481   7.631
 5814WAT     H217685   5.122   3.616   7.687
 5815WAT      O17686   6.189   4.470   6.909
 5815WAT     H117687   6.113   4.428   6.859
 5815WAT     H217688   6.236   4.401   6.964
 5816WAT      O17689   0.056   9.750   0.149
 5816WAT     H117690   0.023   9.656   0.154
 5816WAT     H217691  -0.020   9.813   0.163
 5817WAT      O17692   3.946   1.833   5.383
 5817WAT     H117693   3.944   1.931   5.405
 5817WAT     H217694   3.853   1.799   5.371
 5818WAT      O17695   6.574   0.646   5.122
 5818WAT     H117696   6.624   0.590   5.057
 5818WAT     H217697   6.493   0.684   5.078
 5819WAT      O17698   1.013   6.619   1.243
 5819WAT     H117699   1.086   6.598   1.178
 5819WAT     H217700   0.990   6.716   1.237
 5820WAT      O17701   4.538   1.452   1.307
 5820WAT     H117702   4.521   1.496   1.219
 5820WAT     H217703   4.505   1.511   1.381
 5821WAT      O17704   4.402   8.669   9.173
 5821WAT     H117705   4.484   8.614   9.190
 5821WAT     H217706   4.418   8.732   9.097
 5822WAT      O17707   6.392   6.475   0.011
 5822WAT     H117708   6.322   6.418  -0.031
 5822WAT     H217709   6.435   6.425   0.087
 5823WAT      O17710   6.275   7.931   4.048
 5823WAT     H117711   6.247   7.955   4.141
 5823WAT     H217712   6.371   7.955   4.035
 5824WAT      O17713   4.326   7.258   9.468
 5824WAT     H117714   4.293   7.276   9.376
 5824WAT     H217715   4.278   7.317   9.533
 5825WAT      O17716   9.795   8.834   5.767
 5825WAT     H117717   9.726   8.809   5.698
 5825WAT     H217718   9.761   8.808   5.858
 5826WAT      O17719   5.946   3.283   8.016
 5826WAT     H117720   5.912   3.256   7.926
 5826WAT     H217721   5.969   3.201   8.068
 5827WAT      O17722   4.768   8.332   7.535
 5827WAT     H117723   4.839   8.268   7.507
 5827WAT     H217724   4.773   8.415   7.479
 5828WAT      O17725   2.090   0.153   6.798
 5828WAT     H117726   1.995   0.143   6.768
 5828WAT     H217727   2.095   0.141   6.897
 5829WAT      O17728   1.749   4.298   3.679
 5829WAT     H117729   1.777   4.203   3.689
 5829WAT     H217730   1.709   4.312   3.589
 5830WAT      O17731   1.087   1.491   1.183
 5830WAT     H117732   1.139   1.577   1.181
 5830WAT     H217733   1.054   1.475   1.276
 5831WAT      O17734   1.524   5.538   8.450
 5831WAT     H117735   1.488   5.628   8.473
 5831WAT     H217736   1.571   5.541   8.362
 5832WAT      O17737   5.008   1.554   1.228
 5832WAT     H117738   5.104   1.526   1.228
 5832WAT     H217739   4.975   1.562   1.322
 5833WAT      O17740   3.458   5.932   4.563
 5833WAT     H117741   3.551   5.949   4.529
 5833WAT     H217742   3.401   5.900   4.488
 5834WAT      O17743   1.535   1.794   3.581
 5834WAT     H117744   1.506   1.731   3.653
 5834WAT     H217745   1.500   1.885   3.600
 5835WAT      O17746   6.963   7.985   8.975
 5835WAT     H117747   7.061   7.976   8.993
 5835WAT     H217748   6.949   7.991   8.876
 5836WAT      O17749   6.964   0.929   7.649
 5836WAT     H117750   7.050   0.916   7.599
 5836WAT     H217751   6.973   1.007   7.711
 5837WAT      O17752   1.677   3.194   6.200
 5837WAT     H117753   1.750   3.162   6.260
 5837WAT     H217754   1.589   3.163   6.235
 5838WAT      O17755   8.624   1.707   4.368
 5838WAT     H117756   8.613   1.689   4.270
 5838WAT     H217757   8.692   1.779   4.381
 5839WAT      O17758   5.412   7.442   3.406
 5839WAT     H117759   5.341   7.471   3.342
 5839WAT     H217760   5.475   7.517   3.424
 5840WAT      O17761   5.228   3.030   9.886
 5840WAT     H117762   5.181   3.113   9.857
 5840WAT     H217763   5.172   2.950   9.865
 5841WAT      O17764   6.620   7.467   0.364
 5841WAT     H117765   6.619   7.537   0.292
 5841WAT     H217766   6.592   7.508   0.451
 5842WAT      O17767   0.180   0.213   0.873
 5842WAT     H117768   0.228   0.265   0.944
 5842WAT     H217769   0.226   0.227   0.785
 5843WAT      O17770   7.255   3.800   9.311
 5843WAT     H117771   7.335   3.857   9.324
 5843WAT     H217772   7.232   3.755   9.397
 5844WAT      O17773   7.091   1.176   6.950
 5844WAT     H117774   7.174   1.132   6.984
 5844WAT     H217775   7.113   1.270   6.922
 5845WAT      O17776   1.516   9.776   0.410
 5845WAT     H117777   1.574   9.737   0.338
 5845WAT     H217778   1.505   9.874   0.394
 5846WAT      O17779   3.440   1.248   0.261
 5846WAT     H117780   3.389   1.175   0.306
 5846WAT     H217781   3.425   1.334   0.309
 5847WAT      O17782   5.747   2.083   6.785
 5847WAT     H117783   5.695   2.005   6.748
 5847WAT     H217784   5.684   2.159   6.801
 5848WAT      O17785   2.971   0.717   6.055
 5848WAT     H117786   2.899   0.764   6.106
 5848WAT     H217787   2.985   0.625   6.092
 5849WAT      O17788   3.807   9.706   3.379
 5849WAT     H117789   3.817   9.796   3.423
 5849WAT     H217790   3.871   9.641   3.421
 5850WAT      O17791   8.016   6.092   2.004
 5850WAT     H117792   8.022   6.106   1.906
 5850WAT     H217793   7.943   6.026   2.024
 5851WAT      O17794   7.188   6.927   1.440
 5851WAT     H117795   7.238   6.849   1.403
 5851WAT     H217796   7.249   7.005   1.448
 5852WAT      O17797   7.240   7.550   8.704
 5852WAT     H117798   7.333   7.586   8.715
 5852WAT     H217799   7.216   7.550   8.607
 5853WAT      O17800   2.035   2.608   9.357
 5853WAT     H117801   2.095   2.673   9.403
 5853WAT     H217802   1.943   2.614   9.396
 5854WAT      O17803   7.013   5.189   7.995
 5854WAT     H117804   7.045   5.225   7.908
 5854WAT     H217805   6.966   5.261   8.047
 5855WAT      O17806   1.742   1.860   4.066
 5855WAT     H117807   1.826   1.845   4.119
 5855WAT     H217808   1.684   1.926   4.114
 5856WAT      O17809   2.939   8.042   8.934
 5856WAT     H117810   2.979   7.992   9.011
 5856WAT     H217811   2.848   8.075   8.959
 5857WAT      O17812   8.266   3.986   9.575
 5857WAT     H117813   8.283   4.058   9.507
 5857WAT     H217814   8.203   4.020   9.645
 5858WAT      O17815   0.779   5.690   3.270
 5858WAT     H117816   0.836   5.659   3.194
 5858WAT     H217817   0.820   5.772   3.311
 5859WAT      O17818   8.208   7.679   9.875
 5859WAT     H117819   8.293   7.722   9.906
 5859WAT     H217820   8.215   7.658   9.777
 5860WAT      O17821   3.182   7.988   4.892
 5860WAT     H117822   3.257   8.033   4.940
 5860WAT     H217823   3.110   7.965   4.957
 5861WAT      O17824   2.609   3.117   8.328
 5861WAT     H117825   2.546   3.042   8.349
 5861WAT     H217826   2.580   3.162   8.244
 5862WAT      O17827   4.728   1.516   7.240
 5862WAT     H117828   4.737   1.471   7.151
 5862WAT     H217829   4.765   1.457   7.311
 5863WAT      O17830   7.663   0.805   2.018
 5863WAT     H117831   7.656   0.810   1.918
 5863WAT     H217832   7.580   0.765   2.055
 5864WAT      O17833   0.265   3.711   0.488
 5864WAT     H117834   0.345   3.770   0.492
 5864WAT     H217835   0.294   3.616   0.480
 5865WAT      O17836   4.836   6.975   8.022
 5865WAT     H117837   4.805   6.907   8.088
 5865WAT     H217838   4.776   7.055   8.026
 5866WAT      O17839   8.293   6.753   9.023
 5866WAT     H117840   8.363   6.765   8.952
 5866WAT     H217841   8.265   6.657   9.026
 5867WAT      O17842   7.907   4.838   9.605
 5867WAT     H117843   7.966   4.899   9.553
 5867WAT     H217844   7.830   4.889   9.644
 5868WAT      O17845   0.965   7.019   3.507
 5868WAT     H117846   1.046   7.051   3.458
 5868WAT     H217847   0.977   6.922   3.531
 5869WAT      O17848   8.794   4.218   5.244
 5869WAT     H117849   8.854   4.168   5.308
 5869WAT     H217850   8.797   4.315   5.266
 5870WAT      O17851   8.146   3.522   2.853
 5870WAT     H117852   8.122   3.461   2.928
 5870WAT     H217853   8.068   3.581   2.831
 5871WAT      O17854   1.899   7.308   6.813
 5871WAT     H117855   1.929   7.402   6.833
 5871WAT     H217856   1.851   7.306   6.725
 5872WAT      O17857   1.700   6.833   3.158
 5872WAT     H117858   1.716   6.917   3.208
 5872WAT     H217859   1.711   6.850   3.060
 5873WAT      O17860   8.620   5.127   0.752
 5873WAT     H117861   8.618   5.226   0.767
 5873WAT     H217862   8.526   5.095   0.737
 5874WAT      O17863   2.058   7.451   2.052
 5874WAT     H117864   2.025   7.422   2.141
 5874WAT     H217865   2.005   7.530   2.020
 5875WAT      O17866   9.402   6.997   1.868
 5875WAT     H117867   9.375   7.061   1.796
 5875WAT     H217868   9.469   7.041   1.928
 5876WAT      O17869   8.498   7.952   6.101
 5876WAT     H117870   8.487   8.023   6.171
 5876WAT     H217871   8.458   7.983   6.015
 5877WAT      O17872   2.921   0.683   4.297
 5877WAT     H117873   2.848   0.742   4.330
 5877WAT     H217874   2.979   0.656   4.374
 5878WAT      O17875   7.717   7.085   0.630
 5878WAT     H117876   7.665   7.038   0.700
 5878WAT     H217877   7.662   7.157   0.589
 5879WAT      O17878   0.948   6.900   1.263
 5879WAT     H117879   0.869   6.932   1.211
 5879WAT     H217880   0.980   6.973   1.323
 5880WAT      O17881   0.769   5.337   7.173
 5880WAT     H117882   0.747   5.351   7.076
 5880WAT     H217883   0.726   5.253   7.205
 5881WAT      O17884   1.462   0.349   9.444
 5881WAT     H117885   1.405   0.321   9.367
 5881WAT     H217886   1.480   0.270   9.503
 5882WAT      O17887   8.568   5.457   5.355
 5882WAT     H117888   8.501   5.452   5.282
 5882WAT     H217889   8.642   5.392   5.338
 5883WAT      O17890   5.285   7.534   3.185
 5883WAT     H117891   5.244   7.446   3.164
 5883WAT     H217892   5.296   7.587   3.100
 5884WAT      O17893   8.008   5.685   8.857
 5884WAT     H117894   8.083   5.700   8.792
 5884WAT     H217895   8.023   5.599   8.906
 5885WAT      O17896   3.231   7.233   9.458
 5885WAT     H117897   3.223   7.283   9.544
 5885WAT     H217898   3.219   7.135   9.475
 5886WAT      O17899   1.810   5.918   5.150
 5886WAT     H117900   1.806   6.018   5.150
 5886WAT     H217901   1.839   5.885   5.239
 5887WAT      O17902   6.486   5.157   9.810
 5887WAT     H117903   6.522   5.078   9.760
 5887WAT     H217904   6.558   5.226   9.819
 5888WAT      O17905   8.187   3.454   0.991
 5888WAT     H117906   8.258   3.481   1.056
 5888WAT     H217907   8.195   3.356   0.973
 5889WAT      O17908   8.568   0.805   0.905
 5889WAT     H117909   8.641   0.845   0.850
 5889WAT     H217910   8.487   0.864   0.902
 5890WAT      O17911   9.206   2.788   8.494
 5890WAT     H117912   9.208   2.826   8.587
 5890WAT     H217913   9.113   2.798   8.456
 5891WAT      O17914   2.336   8.215   6.753
 5891WAT     H117915   2.292   8.200   6.842
 5891WAT     H217916   2.431   8.242   6.768
 5892WAT      O17917   3.874   5.506   8.841
 5892WAT     H117918   3.971   5.500   8.819
 5892WAT     H217919   3.824   5.433   8.793
 5893WAT      O17920   7.686   9.407   7.321
 5893WAT     H117921   7.741   9.324   7.327
 5893WAT     H217922   7.653   9.432   7.412
 5894WAT      O17923   4.116   5.926   9.025
 5894WAT     H117924   4.133   6.000   8.961
 5894WAT     H217925   4.018   5.919   9.045
 5895WAT      O17926   3.907   9.606   6.673
 5895WAT     H117927   3.934   9.702   6.668
 5895WAT     H217928   3.807   9.600   6.679
 5896WAT      O17929   0.968   5.063   6.943
 5896WAT     H117930   0.976   4.973   6.987
 5896WAT     H217931   0.990   5.134   7.009
 5897WAT      O17932   2.560   3.039   0.623
 5897WAT     H117933   2.656   3.060   0.606
 5897WAT     H217934   2.554   2.960   0.684
 5898WAT      O17935   5.755   8.521   0.093
 5898WAT     H117936   5.761   8.439   0.036
 5898WAT     H217937   5.807   8.594   0.051
 5899WAT      O17938   4.203   6.496   1.587
 5899WAT     H117939   4.294   6.537   1.594
 5899WAT     H217940   4.186   6.440   1.667
 5900WAT      O17941   0.352   9.334   1.398
 5900WAT     H117942   0.421   9.263   1.381
 5900WAT     H217943   0.362   9.369   1.491
 5901WAT      O17944   5.231   8.769   1.963
 5901WAT     H117945   5.287   8.850   1.947
 5901WAT     H217946   5.203   8.766   2.059
 5902WAT      O17947   0.025   9.641   9.140
 5902WAT     H117948   0.037   9.733   9.177
 5902WAT     H217949   0.105   9.618   9.083
 5903WAT      O17950   4.549   6.590   0.888
 5903WAT     H117951   4.580   6.684   0.904
 5903WAT     H217952   4.452   6.591   0.864
 5904WAT      O17953   3.743   2.533   1.916
 5904WAT     H117954   3.818   2.545   1.981
 5904WAT     H217955   3.659   2.514   1.965
 5905WAT      O17956   5.912   0.606   4.379
 5905WAT     H117957   5.988   0.577   4.321
 5905WAT     H217958   5.926   0.702   4.405
 5906WAT      O17959   4.930   0.786   2.267
 5906WAT     H117960   4.957   0.799   2.171
 5906WAT     H217961   4.895   0.693   2.279
 5907WAT      O17962   6.070   9.527   8.605
 5907WAT     H117963   6.056   9.617   8.564
 5907WAT     H217964   6.028   9.525   8.696
 5908WAT      O17965   7.853   7.916   8.424
 5908WAT     H117966   7.891   7.916   8.517
 5908WAT     H217967   7.763   7.873   8.425
 5909WAT      O17968   8.923   2.333   2.264
 5909WAT     H117969   8.977   2.282   2.197
 5909WAT     H217970   8.959   2.426   2.272
 5910WAT      O17971   6.526   5.141   1.353
 5910WAT     H117972   6.555   5.054   1.313
 5910WAT     H217973   6.572   5.217   1.307
 5911WAT      O17974   0.960   4.453   8.209
 5911WAT     H117975   0.991   4.431   8.117
 5911WAT     H217976   0.868   4.416   8.223
 5912WAT      O17977   9.779   4.013   1.842
 5912WAT     H117978   9.781   4.007   1.742
 5912WAT     H217979   9.772   4.109   1.869
 5913WAT      O17980   6.702   6.654   1.610
 5913WAT     H117981   6.623   6.593   1.614
 5913WAT     H217982   6.703   6.712   1.692
 5914WAT      O17983   9.688   9.591   0.478
 5914WAT     H117984   9.760   9.530   0.511
 5914WAT     H217985   9.615   9.537   0.438
 5915WAT      O17986   8.125   5.277   5.471
 5915WAT     H117987   8.154   5.337   5.547
 5915WAT     H217988   8.157   5.184   5.488
 5916WAT      O17989   7.756   4.420   7.241
 5916WAT     H117990   7.820   4.484   7.285
 5916WAT     H217991   7.662   4.449   7.260
 5917WAT      O17992   5.080   7.791   7.086
 5917WAT     H117993   5.051   7.695   7.082
 5917WAT     H217994   5.030   7.838   7.158
 5918WAT      O17995   6.012   1.862   7.530
 5918WAT     H117996   6.025   1.785   7.592
 5918WAT     H217997   6.038   1.947   7.576
 5919WAT      O17998   3.371   8.431   6.864
 5919WAT     H117999   3.315   8.503   6.906
 5919WAT     H218000   3.468   8.452   6.878
 5920WAT      O18001   6.301   9.423   6.635
 5920WAT     H118002   6.398   9.443   6.647
 5920WAT     H218003   6.253   9.433   6.722
 5921WAT      O18004   4.622   8.589   2.180
 5921WAT     H118005   4.606   8.571   2.083
 5921WAT     H218006   4.696   8.530   2.213
 5922WAT      O18007   4.479   6.220   2.775
 5922WAT     H118008   4.485   6.183   2.868
 5922WAT     H218009   4.407   6.289   2.771
 5923WAT      O18010   4.852   2.959   5.431
 5923WAT     H118011   4.863   2.869   5.473
 5923WAT     H218012   4.861   3.030   5.500
 5924WAT      O18013   1.525   9.679   2.950
 5924WAT     H118014   1.431   9.696   2.918
 5924WAT     H218015   1.522   9.624   3.034
 5925WAT      O18016   6.262   9.031   9.069
 5925WAT     H118017   6.361   9.036   9.063
 5925WAT     H218018   6.225   8.996   8.982
 5926WAT      O18019   3.662   5.467   7.058
 5926WAT     H118020   3.692   5.398   7.124
 5926WAT     H218021   3.739   5.492   6.999
 5927WAT      O18022   9.095   9.168   6.564
 5927WAT     H118023   9.067   9.233   6.494
 5927WAT     H218024   9.161   9.103   6.525
 5928WAT      O18025   9.446   9.697   5.370
 5928WAT     H118026   9.514   9.627   5.349
 5928WAT     H218027   9.438   9.708   5.469
 5929WAT      O18028   8.134   5.066   9.198
 5929WAT     H118029   8.064   5.030   9.138
 5929WAT     H218030   8.158   5.158   9.170
 5930WAT      O18031   4.195   9.614   1.537
 5930WAT     H118032   4.218   9.636   1.632
 5930WAT     H218033   4.120   9.548   1.536
 5931WAT      O18034   0.497   8.449   3.513
 5931WAT     H118035   0.545   8.476   3.430
 5931WAT     H218036   0.545   8.487   3.593
 5932WAT      O18037   2.262   9.112   2.108
 5932WAT     H118038   2.253   9.031   2.051
 5932WAT     H218039   2.316   9.181   2.060
 5933WAT      O18040   6.866   5.193   4.203
 5933WAT     H118041   6.773   5.156   4.195
 5933WAT     H218042   6.868   5.263   4.274
 5934WAT      O18043   3.927   8.424   6.877
 5934WAT     H118044   3.990   8.352   6.846
 5934WAT     H218045   3.861   8.445   6.805
 5935WAT      O18046   5.038   7.817   6.258
 5935WAT     H118047   5.138   7.822   6.269
 5935WAT     H218048   4.994   7.832   6.346
 5936WAT      O18049   7.370   4.496   9.647
 5936WAT     H118050   7.407   4.409   9.615
 5936WAT     H218051   7.314   4.480   9.729
 5937WAT      O18052   2.826   7.382   4.107
 5937WAT     H118053   2.762   7.335   4.047
 5937WAT     H218054   2.775   7.433   4.177
 5938WAT      O18055   4.492   3.899   8.721
 5938WAT     H118056   4.436   3.971   8.764
 5938WAT     H218057   4.527   3.932   8.633
 5939WAT      O18058   7.520   4.683   9.474
 5939WAT     H118059   7.615   4.678   9.442
 5939WAT     H218060   7.498   4.599   9.525
 5940WAT      O18061   5.112   0.891   7.768
 5940WAT     H118062   5.136   0.979   7.728
 5940WAT     H218063   5.144   0.887   7.863
 5941WAT      O18064   4.249   1.871   9.362
 5941WAT     H118065   4.338   1.830   9.381
 5941WAT     H218066   4.261   1.969   9.344
 5942WAT      O18067   3.944   2.521   5.214
 5942WAT     H118068   3.950   2.529   5.115
 5942WAT     H218069   3.940   2.612   5.255
 5943WAT      O18070   1.625   2.218   0.480
 5943WAT     H118071   1.620   2.264   0.391
 5943WAT     H218072   1.675   2.276   0.544
 5944WAT      O18073   0.574   3.586   5.511
 5944WAT     H118074   0.572   3.523   5.433
 5944WAT     H218075   0.559   3.535   5.596
 5945WAT      O18076   8.044   6.214   9.074
 5945WAT     H118077   7.965   6.241   9.020
 5945WAT     H218078   8.061   6.116   9.063
 5946WAT      O18079   0.389   3.313   2.262
 5946WAT     H118080   0.468   3.252   2.267
 5946WAT     H218081   0.308   3.264   2.296
 5947WAT      O18082   7.504   2.961   8.382
 5947WAT     H118083   7.481   2.900   8.306
 5947WAT     H218084   7.424   2.975   8.439
 5948WAT      O18085   8.598   4.367   2.908
 5948WAT     H118086   8.626   4.453   2.950
 5948WAT     H218087   8.498   4.367   2.898
 5949WAT      O18088   1.345   6.571   4.141
 5949WAT     H118089   1.395   6.493   4.180
 5949WAT     H218090   1.248   6.546   4.129
 5950WAT      O18091   2.964   3.583   4.532
 5950WAT     H118092   2.976   3.664   4.590
 5950WAT     H218093   2.898   3.602   4.460
 5951WAT      O18094   5.851   3.789   0.896
 5951WAT     H118095   5.904   3.859   0.849
 5951WAT     H218096   5.783   3.833   0.955
 5952WAT      O18097   2.033   3.861   5.409
 5952WAT     H118098   2.099   3.936   5.411
 5952WAT     H218099   2.079   3.775   5.431
 5953WAT      O18100   1.591   0.273   8.382
 5953WAT     H118101   1.615   0.188   8.334
 5953WAT     H218102   1.552   0.250   8.471
 5954WAT      O18103   9.591   5.808   9.502
 5954WAT     H118104   9.594   5.811   9.402
 5954WAT     H218105   9.524   5.875   9.535
 5955WAT      O18106   8.445   5.237   8.823
 5955WAT     H118107   8.475   5.286   8.741
 5955WAT     H218108   8.524   5.218   8.882
 5956WAT      O18109   1.387   8.118   5.196
 5956WAT     H118110   1.463   8.053   5.186
 5956WAT     H218111   1.416   8.194   5.254
 5957WAT      O18112   1.460   3.990   6.560
 5957WAT     H118113   1.524   3.946   6.622
 5957WAT     H218114   1.367   3.962   6.584
 5958WAT      O18115   8.533   1.042   6.560
 5958WAT     H118116   8.436   1.057   6.541
 5958WAT     H218117   8.586   1.059   6.477
 5959WAT      O18118   3.578   0.921   0.465
 5959WAT     H118119   3.506   0.955   0.526
 5959WAT     H218120   3.659   0.898   0.519
 5960WAT      O18121   2.366   1.132   0.532
 5960WAT     H118122   2.353   1.229   0.553
 5960WAT     H218123   2.463   1.110   0.533
 5961WAT      O18124   1.230   7.231   0.729
 5961WAT     H118125   1.287   7.283   0.792
 5961WAT     H218126   1.286   7.162   0.683
 5962WAT      O18127   7.214   8.209   8.515
 5962WAT     H118128   7.286   8.187   8.449
 5962WAT     H218129   7.140   8.142   8.507
 5963WAT      O18130   4.508   9.346   8.485
 5963WAT     H118131   4.566   9.405   8.428
 5963WAT     H218132   4.552   9.256   8.495
 5964WAT      O18133   7.672   8.252   4.366
 5964WAT     H118134   7.623   8.266   4.280
 5964WAT     H218135   7.630   8.177   4.417
 5965WAT      O18136   0.118   4.983   8.235
 5965WAT     H118137   0.127   4.901   8.290
 5965WAT     H218138   0.202   4.998   8.183
 5966WAT      O18139   0.103   1.947   0.007
 5966WAT     H118140   0.072   2.032   0.051
 5966WAT     H218141   0.036   1.875   0.023
 5967WAT      O18142   9.062   7.941   4.824
 5967WAT     H118143   8.996   8.016   4.830
 5967WAT     H218144   9.038   7.869   4.889
 5968WAT      O18145   4.923   3.524   7.378
 5968WAT     H118146   4.957   3.546   7.469
 5968WAT     H218147   4.937   3.426   7.360
 5969WAT      O18148   5.982   1.240   0.163
 5969WAT     H118149   6.062   1.244   0.103
 5969WAT     H218150   5.988   1.159   0.221
 5970WAT      O18151   2.601   9.102   9.241
 5970WAT     H118152   2.514   9.142   9.213
 5970WAT     H218153   2.612   9.012   9.199
 5971WAT      O18154   1.740   1.469   2.793
 5971WAT     H118155   1.709   1.427   2.708
 5971WAT     H218156   1.799   1.405   2.843
 5972WAT      O18157   3.592   6.013   8.461
 5972WAT     H118158   3.494   6.029   8.452
 5972WAT     H218159   3.632   5.996   8.370
 5973WAT      O18160   6.557   8.336   7.315
 5973WAT     H118161   6.473   8.370   7.272
 5973WAT     H218162   6.635   8.388   7.280
 5974WAT      O18163   4.580   9.011   1.256
 5974WAT     H118164   4.605   9.084   1.319
 5974WAT     H218165   4.540   9.050   1.173
 5975WAT      O18166   0.471   5.740   7.737
 5975WAT     H118167   0.518   5.679   7.674
 5975WAT     H218168   0.494   5.715   7.831
 5976WAT      O18169   2.737   6.259   2.530
 5976WAT     H118170   2.769   6.348   2.498
 5976WAT     H218171   2.765   6.188   2.467
 5977WAT      O18172   7.213   5.906   8.401
 5977WAT     H118173   7.298   5.854   8.409
 5977WAT     H218174   7.229   6.000   8.432
 5978WAT      O18175   9.207   8.978   5.423
 5978WAT     H118176   9.246   8.981   5.332
 5978WAT     H218177   9.117   9.023   5.423
 5979WAT      O18178   8.983   1.125   9.118
 5979WAT     H118179   8.918   1.168   9.055
 5979WAT     H218180   9.028   1.196   9.173
 5980WAT      O18181   4.134   4.000   0.336
 5980WAT     H118182   4.190   3.925   0.372
 5980WAT     H218183   4.092   3.972   0.250
 5981WAT      O18184   8.169   4.505   3.746
 5981WAT     H118185   8.258   4.487   3.789
 5981WAT     H218186   8.181   4.507   3.646
 5982WAT      O18187   1.570   0.113   4.477
 5982WAT     H118188   1.502   0.052   4.438
 5982WAT     H218189   1.655   0.063   4.493
 5983WAT      O18190   5.338   0.047   0.819
 5983WAT     H118191   5.356  -0.049   0.837
 5983WAT     H218192   5.379   0.073   0.731
 5984WAT      O18193   1.091   5.996   4.195
 5984WAT     H118194   1.164   5.930   4.175
 5984WAT     H218195   1.131   6.087   4.207
 5985WAT      O18196   1.876   0.950   4.639
 5985WAT     H118197   1.879   0.868   4.582
 5985WAT     H218198   1.970   0.978   4.661
 5986WAT      O18199   1.332   8.042   3.697
 5986WAT     H118200   1.304   8.009   3.787
 5986WAT     H218201   1.345   8.141   3.701
 5987WAT      O18202   4.703   1.851   9.028
 5987WAT     H118203   4.747   1.938   9.007
 5987WAT     H218204   4.773   1.780   9.038
 5988WAT      O18205   0.267   0.761   1.251
 5988WAT     H118206   0.339   0.698   1.219
 5988WAT     H218207   0.220   0.721   1.329
 5989WAT      O18208   8.349   4.051   5.129
 5989WAT     H118209   8.421   4.049   5.198
 5989WAT     H218210   8.389   4.072   5.039
 5990WAT      O18211   3.047   6.213   2.402
 5990WAT     H118212   3.075   6.248   2.491
 5990WAT     H218213   3.114   6.240   2.332
 5991WAT      O18214   0.166   2.169   8.736
 5991WAT     H118215   0.121   2.119   8.662
 5991WAT     H218216   0.255   2.201   8.705
 5992WAT      O18217   6.014   9.297   4.881
 5992WAT     H118218   5.993   9.395   4.885
 5992WAT     H218219   6.056   9.275   4.793
 5993WAT      O18220   6.230   9.469   4.144
 5993WAT     H118221   6.280   9.389   4.176
 5993WAT     H218222   6.178   9.444   4.062
 5994WAT      O18223   1.913   2.238   7.062
 5994WAT     H118224   1.840   2.187   7.108
 5994WAT     H218225   1.980   2.174   7.026
 5995WAT      O18226   4.454   8.900   1.558
 5995WAT     H118227   4.386   8.970   1.537
 5995WAT     H218228   4.542   8.943   1.578
 5996WAT      O18229   9.546   7.963   4.857
 5996WAT     H118230   9.536   7.886   4.794
 5996WAT     H218231   9.457   8.005   4.873
 5997WAT      O18232   5.153   1.060   6.855
 5997WAT     H118233   5.140   0.962   6.870
 5997WAT     H218234   5.068   1.100   6.821
 5998WAT      O18235   2.179   8.475   1.366
 5998WAT     H118236   2.151   8.442   1.276
 5998WAT     H218237   2.232   8.559   1.355
 5999WAT      O18238   8.321   0.213   5.721
 5999WAT     H118239   8.260   0.134   5.724
 5999WAT     H218240   8.291   0.275   5.649
 6000WAT      O18241   2.681   8.991   8.486
 6000WAT     H118242   2.778   9.012   8.498
 6000WAT     H218243   2.670   8.903   8.440
 6001WAT      O18244   4.699   5.206   5.154
 6001WAT     H118245   4.797   5.223   5.165
 6001WAT     H218246   4.652   5.228   5.240
 6002WAT      O18247   2.923   9.155   0.069
 6002WAT     H118248   2.946   9.250   0.047
 6002WAT     H218249   2.920   9.144   0.168
 6003WAT      O18250   0.713   8.773   3.174
 6003WAT     H118251   0.760   8.843   3.228
 6003WAT     H218252   0.769   8.748   3.095
 6004WAT      O18253   0.395   9.209   4.598
 6004WAT     H118254   0.407   9.191   4.696
 6004WAT     H218255   0.340   9.291   4.586
 6005WAT      O18256   4.677   8.732   4.458
 6005WAT     H118257   4.771   8.743   4.424
 6005WAT     H218258   4.613   8.773   4.393
 6006WAT      O18259   6.380   6.422   6.927
 6006WAT     H118260   6.323   6.393   7.004
 6006WAT     H218261   6.377   6.352   6.855
 6007WAT      O18262   7.221   1.304   9.081
 6007WAT     H118263   7.188   1.367   9.010
 6007WAT     H218264   7.289   1.352   9.138
 6008WAT      O18265   5.084   4.924   6.890
 6008WAT     H118266   5.003   4.882   6.849
 6008WAT     H218267   5.146   4.955   6.818
 6009WAT      O18268   5.125   6.452   9.876
 6009WAT     H118269   5.159   6.406   9.958
 6009WAT     H218270   5.087   6.541   9.901
 6010WAT      O18271   5.267   0.882   2.517
 6010WAT     H118272   5.196   0.945   2.485
 6010WAT     H218273   5.225   0.796   2.545
 6011WAT      O18274   3.713   0.483   7.413
 6011WAT     H118275   3.801   0.531   7.409
 6011WAT     H218276   3.661   0.503   7.330
 6012WAT      O18277   3.421   2.550   6.705
 6012WAT     H118278   3.475   2.467   6.690
 6012WAT     H218279   3.458   2.600   6.783
 6013WAT      O18280   7.512   6.114   0.491
 6013WAT     H118281   7.509   6.211   0.468
 6013WAT     H218282   7.596   6.094   0.541
 6014WAT      O18283   6.873   8.277   6.112
 6014WAT     H118284   6.886   8.335   6.193
 6014WAT     H218285   6.923   8.316   6.035
 6015WAT      O18286   9.547   0.064   8.015
 6015WAT     H118287   9.484  -0.002   7.974
 6015WAT     H218288   9.632   0.066   7.963
 6016WAT      O18289   6.638   2.737   7.069
 6016WAT     H118290   6.647   2.774   7.161
 6016WAT     H218291   6.622   2.812   7.004
 6017WAT      O18292   6.320   1.503   9.872
 6017WAT     H118293   6.409   1.525   9.833
 6017WAT     H218294   6.312   1.547   9.962
 6018WAT      O18295   1.486   8.027   2.389
 6018WAT     H118296   1.458   7.936   2.358
 6018WAT     H218297   1.410   8.070   2.439
 6019WAT      O18298   9.128   0.799   9.622
 6019WAT     H118299   9.124   0.828   9.526
 6019WAT     H218300   9.116   0.878   9.681
 6020WAT      O18301   0.735   0.633   9.497
 6020WAT     H118302   0.777   0.650   9.408
 6020WAT     H218303   0.797   0.581   9.554
 6021WAT      O18304   0.308   0.091   6.138
 6021WAT     H118305   0.242   0.017   6.147
 6021WAT     H218306   0.287   0.145   6.056
 6022WAT      O18307   1.712   6.112   8.063
 6022WAT     H118308   1.739   6.175   7.990
 6022WAT     H218309   1.660   6.036   8.023
 6023WAT      O18310   5.392   2.397   9.591
 6023WAT     H118311   5.491   2.403   9.582
 6023WAT     H218312   5.361   2.306   9.565
 6024WAT      O18313   8.905   8.158   7.223
 6024WAT     H118314   8.811   8.182   7.197
 6024WAT     H218315   8.964   8.237   7.208
 6025WAT      O18316   8.304   9.243   0.191
 6025WAT     H118317   8.306   9.331   0.237
 6025WAT     H218318   8.235   9.184   0.235
 6026WAT      O18319   8.516   4.480   1.126
 6026WAT     H118320   8.502   4.382   1.111
 6026WAT     H218321   8.543   4.524   1.040
 6027WAT      O18322   8.752   5.486   4.424
 6027WAT     H118323   8.663   5.444   4.443
 6027WAT     H218324   8.778   5.469   4.329
 6028WAT      O18325   7.168   8.833   6.825
 6028WAT     H118326   7.085   8.889   6.826
 6028WAT     H218327   7.143   8.738   6.809
 6029WAT      O18328   0.530   1.174   7.646
 6029WAT     H118329   0.459   1.121   7.599
 6029WAT     H218330   0.487   1.232   7.715
 6030WAT      O18331   5.415   2.669   2.522
 6030WAT     H118332   5.377   2.588   2.566
 6030WAT     H218333   5.499   2.696   2.570
 6031WAT      O18334   2.587   3.249   8.071
 6031WAT     H118335   2.676   3.288   8.048
 6031WAT     H218336   2.532   3.318   8.118
 6032WAT      O18337   2.839   7.157   0.594
 6032WAT     H118338   2.833   7.072   0.543
 6032WAT     H218339   2.750   7.179   0.634
 6033WAT      O18340   4.130   4.282   6.527
 6033WAT     H118341   4.155   4.314   6.619
 6033WAT     H218342   4.053   4.335   6.493
 6034WAT      O18343   4.524   9.678   2.443
 6034WAT     H118344   4.528   9.698   2.346
 6034WAT     H218345   4.441   9.718   2.482
 6035WAT      O18346   8.061   6.163   9.364
 6035WAT     H118347   7.981   6.129   9.415
 6035WAT     H218348   8.030   6.208   9.280
 6036WAT      O18349   7.435   3.772   1.095
 6036WAT     H118350   7.395   3.689   1.056
 6036WAT     H218351   7.370   3.815   1.157
 6037WAT      O18352   6.923   7.512   2.850
 6037WAT     H118353   6.956   7.464   2.768
 6037WAT     H218354   6.829   7.543   2.835
 6038WAT      O18355   5.460   8.571   8.822
 6038WAT     H118356   5.415   8.645   8.872
 6038WAT     H218357   5.394   8.525   8.764
 6039WAT      O18358   5.109   6.938   2.026
 6039WAT     H118359   5.120   6.867   1.957
 6039WAT     H218360   5.030   6.995   2.002
 6040WAT      O18361   4.219   6.219   4.260
 6040WAT     H118362   4.168   6.171   4.189
 6040WAT     H218363   4.296   6.267   4.219
 6041WAT      O18364   9.832   8.996   9.069
 6041WAT     H118365   9.748   8.943   9.075
 6041WAT     H218366   9.829   9.054   8.988
 6042WAT      O18367   3.436   2.379   3.602
 6042WAT     H118368   3.530   2.401   3.626
 6042WAT     H218369   3.379   2.381   3.684
 6043WAT      O18370   0.124   6.647   4.512
 6043WAT     H118371   0.195   6.715   4.528
 6043WAT     H218372   0.037   6.679   4.549
 6044WAT      O18373   8.512   4.943   4.804
 6044WAT     H118374   8.470   5.020   4.756
 6044WAT     H218375   8.542   4.973   4.895
 6045WAT      O18376   8.896   0.085   9.516
 6045WAT     H118377   8.813   0.137   9.494
 6045WAT     H218378   8.915   0.091   9.614
 6046WAT      O18379   4.004   3.249   0.900
 6046WAT     H118380   4.018   3.227   0.997
 6046WAT     H218381   4.029   3.344   0.883
 6047WAT      O18382   4.999   4.586   7.919
 6047WAT     H118383   5.039   4.630   8.000
 6047WAT     H218384   5.071   4.542   7.866
 6048WAT      O18385   1.981   7.923   4.971
 6048WAT     H118386   1.943   7.842   4.926
 6048WAT     H218387   1.906   7.983   5.000
 6049WAT      O18388   1.033   0.172   7.739
 6049WAT     H118389   1.000   0.098   7.798
 6049WAT     H218390   0.964   0.192   7.670
 6050WAT      O18391   2.528   9.592   5.709
 6050WAT     H118392   2.530   9.639   5.621
 6050WAT     H218393   2.580   9.507   5.703
 6051WAT      O18394   0.456   5.412   1.907
 6051WAT     H118395   0.378   5.419   1.845
 6051WAT     H218396   0.434   5.457   1.993
 6052WAT      O18397   8.667   6.606   2.960
 6052WAT     H118398   8.738   6.571   2.898
 6052WAT     H218399   8.680   6.705   2.972
 6053WAT      O18400   1.887   4.134   0.634
 6053WAT     H118401   1.972   4.164   0.677
 6053WAT     H218402   1.904   4.051   0.581
 6054WAT      O18403   4.859   3.284   5.129
 6054WAT     H118404   4.932   3.235   5.081
 6054WAT     H218405   4.773   3.273   5.079
 6055WAT      O18406   2.099   0.393   1.945
 6055WAT     H118407   2.019   0.366   1.998
 6055WAT     H218408   2.120   0.322   1.878
 6056WAT      O18409   0.517   4.529   1.695
 6056WAT     H118410   0.573   4.563   1.619
 6056WAT     H218411   0.475   4.442   1.668
 6057WAT      O18412   7.378   7.997   5.275
 6057WAT     H118413   7.327   7.945   5.206
 6057WAT     H218414   7.458   8.039   5.233
 6058WAT      O18415   5.716   4.317   6.668
 6058WAT     H118416   5.707   4.323   6.568
 6058WAT     H218417   5.667   4.238   6.702
 6059WAT      O18418   9.522   2.732   3.263
 6059WAT     H118419   9.518   2.825   3.225
 6059WAT     H218420   9.429   2.702   3.285
 6060WAT      O18421   0.820   9.304   1.438
 6060WAT     H118422   0.798   9.400   1.457
 6060WAT     H218423   0.754   9.245   1.484
 6061WAT      O18424   7.914   3.467   4.263
 6061WAT     H118425   7.980   3.405   4.219
 6061WAT     H218426   7.835   3.413   4.294
 6062WAT      O18427   1.364   5.751   2.659
 6062WAT     H118428   1.396   5.656   2.654
 6062WAT     H218429   1.273   5.754   2.700
 6063WAT      O18430   0.748   4.929   6.799
 6063WAT     H118431   0.789   4.991   6.866
 6063WAT     H218432   0.820   4.873   6.758
 6064WAT      O18433   8.734   3.554   0.844
 6064WAT     H118434   8.651   3.602   0.816
 6064WAT     H218435   8.738   3.549   0.943
 6065WAT      O18436   4.968   3.995   0.217
 6065WAT     H118437   5.014   4.028   0.135
 6065WAT     H218438   4.943   4.073   0.275
 6066WAT      O18439   4.128   2.708   3.491
 6066WAT     H118440   4.172   2.777   3.434
 6066WAT     H218441   4.077   2.753   3.565
 6067WAT      O18442   3.539   5.920   9.711
 6067WAT     H118443   3.562   6.013   9.683
 6067WAT     H218444   3.531   5.861   9.630
 6068WAT      O18445   2.566   4.007   7.928
 6068WAT     H118446   2.466   4.006   7.932
 6068WAT     H218447   2.596   4.054   7.844
 6069WAT      O18448   9.781   8.536   7.606
 6069WAT     H118449   9.818   8.589   7.530
 6069WAT     H218450   9.832   8.450   7.614
 6070WAT      O18451   7.266   1.903   3.251
 6070WAT     H118452   7.214   1.917   3.335
 6070WAT     H218453   7.359   1.937   3.264
 6071WAT      O18454   8.260   4.829   5.062
 6071WAT     H118455   8.332   4.766   5.033
 6071WAT     H218456   8.292   4.881   5.142
 6072WAT      O18457   9.211   9.025   8.674
 6072WAT     H118458   9.168   8.975   8.749
 6072WAT     H218459   9.303   8.990   8.658
 6073WAT      O18460   4.643   7.432   4.297
 6073WAT     H118461   4.680   7.484   4.375
 6073WAT     H218462   4.663   7.481   4.212
 6074WAT      O18463   8.633   8.938   3.527
 6074WAT     H118464   8.643   8.866   3.595
 6074WAT     H218465   8.632   9.027   3.572
 6075WAT      O18466   3.156   7.950   4.488
 6075WAT     H118467   3.165   7.893   4.407
 6075WAT     H218468   3.106   8.034   4.466
 6076WAT      O18469   8.473   7.340   1.185
 6076WAT     H118470   8.553   7.282   1.200
 6076WAT     H218471   8.463   7.359   1.088
 6077WAT      O18472   4.619   7.472   3.043
 6077WAT     H118473   4.634   7.478   3.142
 6077WAT     H218474   4.700   7.505   2.995
 6078WAT      O18475   7.829   9.479   4.804
 6078WAT     H118476   7.741   9.524   4.814
 6078WAT     H218477   7.841   9.449   4.709
 6079WAT      O18478   8.364   4.432   6.137
 6079WAT     H118479   8.445   4.378   6.115
 6079WAT     H218480   8.292   4.413   6.071
 6080WAT      O18481   4.121   0.496   1.720
 6080WAT     H118482   4.193   0.565   1.706
 6080WAT     H218483   4.068   0.486   1.637
 6081WAT      O18484   1.305   7.826   1.255
 6081WAT     H118485   1.342   7.740   1.291
 6081WAT     H218486   1.285   7.815   1.158
 6082WAT      O18487   4.787   0.087   0.966
 6082WAT     H118488   4.720   0.017   0.944
 6082WAT     H218489   4.750   0.149   1.035
 6083WAT      O18490   4.715   7.837   5.351
 6083WAT     H118491   4.705   7.762   5.417
 6083WAT     H218492   4.779   7.810   5.279
 6084WAT      O18493   6.512   1.118   0.637
 6084WAT     H118494   6.520   1.021   0.615
 6084WAT     H218495   6.433   1.133   0.697
 6085WAT      O18496   7.812   4.766   9.126
 6085WAT     H118497   7.831   4.762   9.224
 6085WAT     H218498   7.860   4.845   9.087
 6086WAT      O18499   5.512   1.422   1.435
 6086WAT     H118500   5.550   1.355   1.498
 6086WAT     H218501   5.463   1.375   1.362
 6087WAT      O18502   4.696   7.463   6.408
 6087WAT     H118503   4.691   7.519   6.325
 6087WAT     H218504   4.726   7.371   6.384
 6088WAT      O18505   3.788   0.338   1.015
 6088WAT     H118506   3.830   0.248   1.015
 6088WAT     H218507   3.699   0.334   1.062
 6089WAT      O18508   5.408   4.986   5.556
 6089WAT     H118509   5.333   5.044   5.588
 6089WAT     H218510   5.437   5.016   5.466
 6090WAT      O18511   4.328   0.557   9.687
 6090WAT     H118512   4.271   0.631   9.721
 6090WAT     H218513   4.383   0.589   9.610
 6091WAT      O18514   0.663   1.495   4.454
 6091WAT     H118515   0.726   1.547   4.512
 6091WAT     H218516   0.711   1.464   4.372
 6092WAT      O18517   5.782   7.333   0.901
 6092WAT     H118518   5.733   7.336   0.814
 6092WAT     H218519   5.757   7.412   0.956
 6093WAT      O18520   5.727   3.358   7.823
 6093WAT     H118521   5.644   3.332   7.773
 6093WAT     H218522   5.702   3.414   7.902
 6094WAT      O18523   8.143   2.837   3.686
 6094WAT     H118524   8.131   2.832   3.587
 6094WAT     H218525   8.241   2.840   3.708
 6095WAT      O18526   6.229   2.354   1.502
 6095WAT     H118527   6.158   2.347   1.572
 6095WAT     H218528   6.219   2.279   1.437
 6096WAT      O18529   5.041   4.070   9.630
 6096WAT     H118530   4.996   4.084   9.542
 6096WAT     H218531   4.976   4.091   9.704
 6097WAT      O18532   7.823   2.637   9.392
 6097WAT     H118533   7.866   2.548   9.408
 6097WAT     H218534   7.880   2.691   9.330
 6098WAT      O18535   0.518   3.772   7.743
 6098WAT     H118536   0.592   3.729   7.691
 6098WAT     H218537   0.435   3.717   7.736
 6099WAT      O18538   2.765   1.702   9.800
 6099WAT     H118539   2.670   1.702   9.768
 6099WAT     H218540   2.818   1.769   9.749
 6100WAT      O18541   3.219   3.862   0.886
 6100WAT     H118542   3.200   3.852   0.788
 6100WAT     H218543   3.240   3.773   0.925
 6101WAT      O18544   4.821   8.436   9.692
 6101WAT     H118545   4.783   8.513   9.640
 6101WAT     H218546   4.917   8.453   9.712
 6102WAT      O18547   7.813   4.682   1.178
 6102WAT     H118548   7.866   4.658   1.259
 6102WAT     H218549   7.841   4.625   1.101
 6103WAT      O18550   5.816   2.567   5.850
 6103WAT     H118551   5.881   2.596   5.780
 6103WAT     H218552   5.733   2.623   5.844
 6104WAT      O18553   7.556   0.279   4.456
 6104WAT     H118554   7.574   0.280   4.554
 6104WAT     H218555   7.620   0.217   4.411
 6105WAT      O18556   3.824   7.561   0.406
 6105WAT     H118557   3.892   7.569   0.479
 6105WAT     H218558   3.818   7.465   0.377
 6106WAT      O18559   5.756   7.237   8.942
 6106WAT     H118560   5.831   7.259   9.004
 6106WAT     H218561   5.678   7.297   8.963
 6107WAT      O18562   4.998   9.294   0.204
 6107WAT     H118563   4.955   9.223   0.148
 6107WAT     H218564   4.930   9.364   0.227
 6108WAT      O18565   4.947   3.064   2.867
 6108WAT     H118566   4.883   3.024   2.932
 6108WAT     H218567   4.930   3.026   2.776
 6109WAT      O18568   6.426   3.035   8.982
 6109WAT     H118569   6.358   2.993   8.923
 6109WAT     H218570   6.484   2.965   9.023
 6110WAT      O18571   7.662   8.440   0.425
 6110WAT     H118572   7.658   8.408   0.331
 6110WAT     H218573   7.632   8.367   0.487
 6111WAT      O18574   1.353   6.750   6.323
 6111WAT     H118575   1.326   6.766   6.228
 6111WAT     H218576   1.309   6.666   6.356
 6112WAT      O18577   3.155   5.461   9.105
 6112WAT     H118578   3.174   5.483   9.009
 6112WAT     H218579   3.165   5.362   9.119
 6113WAT      O18580   2.371   7.011   7.240
 6113WAT     H118581   2.403   6.964   7.157
 6113WAT     H218582   2.334   7.100   7.215
 6114WAT      O18583   3.160   7.991   3.300
 6114WAT     H118584   3.152   8.034   3.210
 6114WAT     H218585   3.137   7.894   3.293
 6115WAT      O18586   8.386   4.517   2.167
 6115WAT     H118587   8.331   4.464   2.103
 6115WAT     H218588   8.460   4.460   2.203
 6116WAT      O18589   7.143   7.194   0.206
 6116WAT     H118590   7.123   7.145   0.121
 6116WAT     H218591   7.069   7.178   0.271
 6117WAT      O18592   3.884   3.361   5.687
 6117WAT     H118593   3.808   3.370   5.622
 6117WAT     H218594   3.847   3.343   5.778
 6118WAT      O18595   6.867   9.722   2.873
 6118WAT     H118596   6.859   9.645   2.810
 6118WAT     H218597   6.847   9.807   2.823
 6119WAT      O18598   3.968   0.557   9.452
 6119WAT     H118599   4.001   0.645   9.486
 6119WAT     H218600   3.871   0.547   9.474
 6120WAT      O18601   1.633   5.394   3.912
 6120WAT     H118602   1.657   5.300   3.889
 6120WAT     H218603   1.533   5.403   3.917
 6121WAT      O18604   5.536   8.636   6.178
 6121WAT     H118605   5.528   8.611   6.274
 6121WAT     H218606   5.448   8.621   6.133
 6122WAT      O18607   2.589   4.880   7.605
 6122WAT     H118608   2.583   4.945   7.529
 6122WAT     H218609   2.621   4.792   7.571
 6123WAT      O18610   0.920   8.991   3.655
 6123WAT     H118611   0.988   9.041   3.602
 6123WAT     H218612   0.902   9.040   3.741
 6124WAT      O18613   9.462   2.897   2.603
 6124WAT     H118614   9.478   2.993   2.578
 6124WAT     H218615   9.439   2.844   2.521
 6125WAT      O18616   4.958   8.269   2.879
 6125WAT     H118617   4.965   8.340   2.810
 6125WAT     H218618   5.010   8.188   2.850
 6126WAT      O18619   4.103   5.133   2.963
 6126WAT     H118620   4.074   5.135   3.059
 6126WAT     H218621   4.029   5.167   2.905
 6127WAT      O18622   3.927   2.835   2.443
 6127WAT     H118623   3.877   2.921   2.428
 6127WAT     H218624   3.870   2.758   2.413
 6128WAT      O18625   2.445   6.097   5.762
 6128WAT     H118626   2.459   6.189   5.799
 6128WAT     H218627   2.534   6.055   5.744
 6129WAT      O18628   0.027   4.002   6.204
 6129WAT     H118629  -0.037   4.065   6.161
 6129WAT     H218630  -0.012   3.967   6.289
 6130WAT      O18631   6.373   1.361   0.340
 6130WAT     H118632   6.279   1.389   0.359
 6130WAT     H218633   6.373   1.286   0.275
 6131WAT      O18634   8.045   1.508   1.580
 6131WAT     H118635   8.131   1.460   1.598
 6131WAT     H218636   7.981   1.493   1.656
 6132WAT      O18637   3.017   1.290   8.454
 6132WAT     H118638   3.036   1.206   8.505
 6132WAT     H218639   3.035   1.369   8.513
 6133WAT      O18640   8.285   7.086   3.239
 6133WAT     H118641   8.284   7.183   3.264
 6133WAT     H218642   8.376   7.049   3.255
 6134WAT      O18643   7.624   9.235   8.443
 6134WAT     H118644   7.526   9.251   8.450
 6134WAT     H218645   7.650   9.155   8.497
 6135WAT      O18646   6.955   8.650   4.852
 6135WAT     H118647   6.939   8.721   4.784
 6135WAT     H218648   6.994   8.690   4.935
 6136WAT      O18649   0.331   3.124   6.256
 6136WAT     H118650   0.235   3.129   6.229
 6136WAT     H218651   0.338   3.100   6.352
 6137WAT      O18652   7.187   2.568   7.033
 6137WAT     H118653   7.212   2.499   7.101
 6137WAT     H218654   7.097   2.606   7.056
 6138WAT      O18655   9.487   8.437   4.483
 6138WAT     H118656   9.539   8.460   4.401
 6138WAT     H218657   9.533   8.363   4.532
 6139WAT      O18658   8.028   7.245   4.628
 6139WAT     H118659   7.956   7.176   4.638
 6139WAT     H218660   8.076   7.256   4.714
 6140WAT      O18661   9.135   6.188   7.749
 6140WAT     H118662   9.144   6.093   7.720
 6140WAT     H218663   9.215   6.240   7.718
 6141WAT      O18664   4.263   6.920   9.860
 6141WAT     H118665   4.333   6.965   9.916
 6141WAT     H218666   4.222   6.846   9.914
 6142WAT      O18667   3.671   4.389   0.286
 6142WAT     H118668   3.756   4.337   0.285
 6142WAT     H218669   3.678   4.467   0.224
 6143WAT      O18670   8.989   0.386   3.035
 6143WAT     H118671   9.003   0.306   3.094
 6143WAT     H218672   8.958   0.463   3.091
 6144WAT      O18673   5.382   4.994   7.099
 6144WAT     H118674   5.303   4.941   7.132
 6144WAT     H218675   5.355   5.089   7.084
 6145WAT      O18676   1.954   2.215   0.550
 6145WAT     H118677   1.929   2.128   0.507
 6145WAT     H218678   2.013   2.197   0.629
 6146WAT      O18679   2.963   3.068   2.785
 6146WAT     H118680   2.881   3.011   2.782
 6146WAT     H218681   2.940   3.156   2.827
 6147WAT      O18682   1.607   9.537   2.600
 6147WAT     H118683   1.685   9.551   2.662
 6147WAT     H218684   1.639   9.540   2.505
 6148WAT      O18685   8.110   0.766   8.027
 6148WAT     H118686   8.175   0.828   7.983
 6148WAT     H218687   8.047   0.818   8.084
 6149WAT      O18688   1.704   2.632   2.881
 6149WAT     H118689   1.656   2.703   2.932
 6149WAT     H218690   1.655   2.613   2.796
 6150WAT      O18691   8.546   1.245   2.552
 6150WAT     H118692   8.514   1.161   2.595
 6150WAT     H218693   8.570   1.312   2.623
 6151WAT      O18694   3.350   5.167   5.911
 6151WAT     H118695   3.363   5.226   5.831
 6151WAT     H218696   3.404   5.084   5.901
 6152WAT      O18697   4.418   6.203   0.058
 6152WAT     H118698   4.451   6.109   0.068
 6152WAT     H218699   4.493   6.267   0.075
 6153WAT      O18700   3.137   4.458   2.231
 6153WAT     H118701   3.061   4.521   2.217
 6153WAT     H218702   3.137   4.427   2.326
 6154WAT      O18703   2.289   6.106   9.398
 6154WAT     H118704   2.219   6.177   9.383
 6154WAT     H218705   2.280   6.070   9.490
 6155WAT      O18706   5.621   1.094   7.633
 6155WAT     H118707   5.610   1.118   7.536
 6155WAT     H218708   5.719   1.095   7.656
 6156WAT      O18709   9.651   1.669   0.600
 6156WAT     H118710   9.578   1.623   0.551
 6156WAT     H218711   9.677   1.752   0.552
 6157WAT      O18712   9.540   6.634   8.574
 6157WAT     H118713   9.456   6.662   8.528
 6157WAT     H218714   9.584   6.714   8.614
 6158WAT      O18715   7.202   3.213   7.873
 6158WAT     H118716   7.199   3.204   7.972
 6158WAT     H218717   7.283   3.266   7.847
 6159WAT      O18718   2.554   8.868   3.310
 6159WAT     H118719   2.477   8.925   3.283
 6159WAT     H218720   2.565   8.793   3.245
 6160WAT      O18721   9.421   8.905   5.611
 6160WAT     H118722   9.343   8.925   5.552
 6160WAT     H218723   9.478   8.987   5.619
 6161WAT      O18724   4.130   0.334   0.459
 6161WAT     H118725   4.112   0.359   0.554
 6161WAT     H218726   4.065   0.380   0.399
 6162WAT      O18727   5.220   0.729   9.084
 6162WAT     H118728   5.190   0.645   9.038
 6162WAT     H218729   5.178   0.735   9.174
 6163WAT      O18730   9.127   6.055   0.780
 6163WAT     H118731   9.079   6.066   0.693
 6163WAT     H218732   9.220   6.024   0.763
 6164WAT      O18733   6.301   2.686   3.701
 6164WAT     H118734   6.272   2.657   3.610
 6164WAT     H218735   6.264   2.623   3.769
 6165WAT      O18736   0.148   6.846   7.852
 6165WAT     H118737   0.063   6.866   7.898
 6165WAT     H218738   0.216   6.916   7.874
 6166WAT      O18739   6.607   1.164   2.363
 6166WAT     H118740   6.509   1.152   2.379
 6166WAT     H218741   6.634   1.257   2.387
 6167WAT      O18742   3.585   5.447   1.030
 6167WAT     H118743   3.594   5.509   0.953
 6167WAT     H218744   3.502   5.392   1.020
 6168WAT      O18745   6.388   5.519   1.231
 6168WAT     H118746   6.399   5.462   1.312
 6168WAT     H218747   6.445   5.601   1.239
 6169WAT      O18748   9.568   4.342   9.659
 6169WAT     H118749   9.490   4.343   9.722
 6169WAT     H218750   9.645   4.390   9.700
 6170WAT      O18751   7.895   8.199   1.176
 6170WAT     H118752   7.806   8.190   1.221
 6170WAT     H218753   7.883   8.245   1.088
 6171WAT      O18754   1.838   0.174   9.352
 6171WAT     H118755   1.818   0.162   9.255
 6171WAT     H218756   1.791   0.103   9.405
 6172WAT      O18757   3.561   0.654   4.320
 6172WAT     H118758   3.526   0.662   4.414
 6172WAT     H218759   3.530   0.567   4.281
 6173WAT      O18760   5.309   7.352   8.232
 6173WAT     H118761   5.394   7.399   8.257
 6173WAT     H218762   5.281   7.293   8.307
 6174WAT      O18763   0.652   7.969   2.733
 6174WAT     H118764   0.740   7.936   2.697
 6174WAT     H218765   0.577   7.922   2.687
 6175WAT      O18766   7.164   3.195   8.142
 6175WAT     H118767   7.261   3.169   8.142
 6175WAT     H218768   7.148   3.260   8.216
 6176WAT      O18769   5.371   2.797   5.541
 6176WAT     H118770   5.375   2.726   5.611
 6176WAT     H218771   5.293   2.781   5.481
 6177WAT      O18772   2.355   2.982   2.143
 6177WAT     H118773   2.279   2.920   2.125
 6177WAT     H218774   2.441   2.932   2.141
 6178WAT      O18775   3.829   9.790   2.872
 6178WAT     H118776   3.778   9.840   2.942
 6178WAT     H218777   3.890   9.853   2.824
 6179WAT      O18778   5.855   6.822   5.189
 6179WAT     H118779   5.795   6.861   5.118
 6179WAT     H218780   5.848   6.878   5.272
 6180WAT      O18781   2.681   8.030   7.929
 6180WAT     H118782   2.689   8.114   7.983
 6180WAT     H218783   2.701   8.050   7.833
 6181WAT      O18784   2.827   0.444   6.833
 6181WAT     H118785   2.806   0.426   6.737
 6181WAT     H218786   2.915   0.403   6.856
 6182WAT      O18787   7.437   8.861   5.527
 6182WAT     H118788   7.462   8.878   5.622
 6182WAT     H218789   7.389   8.774   5.519
 6183WAT      O18790   9.462   5.361   4.181
 6183WAT     H118791   9.386   5.425   4.185
 6183WAT     H218792   9.449   5.288   4.248
 6184WAT      O18793   4.558   1.713   2.012
 6184WAT     H118794   4.618   1.753   1.943
 6184WAT     H218795   4.525   1.624   1.980
 6185WAT      O18796   5.378   0.046   2.107
 6185WAT     H118797   5.354   0.000   2.021
 6185WAT     H218798   5.301   0.041   2.170
 6186WAT      O18799   5.556   4.035   0.857
 6186WAT     H118800   5.459   4.029   0.881
 6186WAT     H218801   5.588   4.129   0.870
 6187WAT      O18802   5.121   3.042   5.246
 6187WAT     H118803   5.218   3.017   5.241
 6187WAT     H218804   5.082   3.045   5.154
 6188WAT      O18805   8.461   4.673   5.760
 6188WAT     H118806   8.488   4.582   5.791
 6188WAT     H218807   8.530   4.740   5.788
 6189WAT      O18808   2.967   6.576   4.984
 6189WAT     H118809   3.055   6.623   4.987
 6189WAT     H218810   2.908   6.611   5.056
 6190WAT      O18811   0.627   9.641   8.696
 6190WAT     H118812   0.532   9.620   8.673
 6190WAT     H218813   0.663   9.708   8.630
 6191WAT      O18814   3.003   6.299   3.730
 6191WAT     H118815   2.956   6.338   3.652
 6191WAT     H218816   2.938   6.285   3.805
 6192WAT      O18817   6.781   1.240   7.915
 6192WAT     H118818   6.781   1.140   7.912
 6192WAT     H218819   6.750   1.277   7.828
 6193WAT      O18820   8.957   1.791   7.398
 6193WAT     H118821   8.931   1.697   7.378
 6193WAT     H218822   8.906   1.823   7.479
 6194WAT      O18823   6.895   3.910   8.445
 6194WAT     H118824   6.798   3.917   8.469
 6194WAT     H218825   6.903   3.884   8.348
 6195WAT      O18826   8.938   6.812   4.476
 6195WAT     H118827   8.877   6.863   4.415
 6195WAT     H218828   9.019   6.867   4.495
 6196WAT      O18829   2.549   1.997   4.769
 6196WAT     H118830   2.598   1.915   4.799
 6196WAT     H218831   2.556   2.006   4.670
 6197WAT      O18832   5.650   1.606   5.466
 6197WAT     H118833   5.563   1.557   5.473
 6197WAT     H218834   5.667   1.630   5.371
 6198WAT      O18835   5.931   8.567   8.553
 6198WAT     H118836   5.950   8.495   8.619
 6198WAT     H218837   6.018   8.604   8.519
 6199WAT      O18838   4.809   3.642   0.617
 6199WAT     H118839   4.764   3.566   0.569
 6199WAT     H218840   4.745   3.682   0.683
 6200WAT      O18841   7.384   8.224   4.990
 6200WAT     H118842   7.400   8.129   4.964
 6200WAT     H218843   7.422   8.285   4.920
 6201WAT      O18844   5.647   4.708   0.426
 6201WAT     H118845   5.586   4.785   0.406
 6201WAT     H218846   5.738   4.728   0.391
 6202WAT      O18847   4.326   6.057   5.046
 6202WAT     H118848   4.367   6.107   5.123
 6202WAT     H218849   4.239   6.016   5.075
 6203WAT      O18850   2.627   5.226   0.296
 6203WAT     H118851   2.612   5.275   0.210
 6203WAT     H218852   2.665   5.288   0.364
 6204WAT      O18853   1.694   5.199   7.307
 6204WAT     H118854   1.728   5.280   7.355
 6204WAT     H218855   1.765   5.128   7.308
 6205WAT      O18856   8.268   6.739   6.027
 6205WAT     H118857   8.224   6.669   6.083
 6205WAT     H218858   8.272   6.709   5.932
 6206WAT      O18859   6.993   7.814   7.799
 6206WAT     H118860   7.077   7.761   7.810
 6206WAT     H218861   6.916   7.752   7.789
 6207WAT      O18862   3.420   8.309   0.572
 6207WAT     H118863   3.440   8.234   0.635
 6207WAT     H218864   3.376   8.384   0.622
 6208WAT      O18865   4.796   1.914   5.983
 6208WAT     H118866   4.703   1.879   5.985
 6208WAT     H218867   4.858   1.841   5.953
 6209WAT      O18868   8.844   2.747   0.886
 6209WAT     H118869   8.912   2.766   0.815
 6209WAT     H218870   8.841   2.823   0.951
 6210WAT      O18871   8.208   9.793   6.710
 6210WAT     H118872   8.133   9.807   6.646
 6210WAT     H218873   8.182   9.725   6.779
 6211WAT      O18874   9.887   9.623   4.991
 6211WAT     H118875   9.816   9.679   5.035
 6211WAT     H218876   9.952   9.593   5.060
 6212WAT      O18877   5.298   5.246   6.500
 6212WAT     H118878   5.344   5.322   6.546
 6212WAT     H218879   5.275   5.176   6.567
 6213WAT      O18880   9.505   3.574   0.342
 6213WAT     H118881   9.475   3.582   0.247
 6213WAT     H218882   9.558   3.490   0.353
 6214WAT      O18883   8.096   4.844   6.295
 6214WAT     H118884   8.168   4.879   6.234
 6214WAT     H218885   8.061   4.758   6.259
 6215WAT      O18886   6.510   5.625   3.189
 6215WAT     H118887   6.539   5.713   3.152
 6215WAT     H218888   6.441   5.585   3.129
 6216WAT      O18889   8.562   4.558   0.565
 6216WAT     H118890   8.496   4.510   0.622
 6216WAT     H218891   8.521   4.641   0.528
 6217WAT      O18892   4.826   2.401   0.777
 6217WAT     H118893   4.820   2.347   0.861
 6217WAT     H218894   4.777   2.355   0.703
 6218WAT      O18895   7.078   3.590   4.416
 6218WAT     H118896   6.985   3.620   4.397
 6218WAT     H218897   7.141   3.635   4.353
 6219WAT      O18898   6.022   6.423   4.473
 6219WAT     H118899   5.925   6.439   4.454
 6219WAT     H218900   6.069   6.398   4.388
 6220WAT      O18901   6.557   1.361   5.798
 6220WAT     H118902   6.501   1.281   5.777
 6220WAT     H218903   6.499   1.443   5.797
 6221WAT      O18904   9.725   2.137   3.381
 6221WAT     H118905   9.797   2.068   3.372
 6221WAT     H218906   9.661   2.129   3.305
 6222WAT      O18907   5.602   5.094   2.993
 6222WAT     H118908   5.505   5.076   2.981
 6222WAT     H218909   5.635   5.050   3.077
 6223WAT      O18910   4.625   4.830   6.671
 6223WAT     H118911   4.624   4.870   6.579
 6223WAT     H218912   4.571   4.886   6.733
 6224WAT      O18913   0.879   5.518   4.648
 6224WAT     H118914   0.937   5.535   4.568
 6224WAT     H218915   0.793   5.569   4.637
 6225WAT      O18916   9.240   1.354   6.216
 6225WAT     H118917   9.203   1.380   6.306
 6225WAT     H218918   9.340   1.358   6.219
 6226WAT      O18919   6.328   8.111   7.642
 6226WAT     H118920   6.337   8.207   7.668
 6226WAT     H218921   6.400   8.088   7.576
 6227WAT      O18922   1.436   2.914   3.188
 6227WAT     H118923   1.381   2.985   3.145
 6227WAT     H218924   1.380   2.833   3.206
 6228WAT      O18925   5.897   4.520   9.479
 6228WAT     H118926   5.967   4.524   9.407
 6228WAT     H218927   5.815   4.475   9.444
 6229WAT      O18928   7.891   3.674   4.033
 6229WAT     H118929   7.870   3.600   4.097
 6229WAT     H218930   7.906   3.635   3.942
 6230WAT      O18931   1.158   5.625   0.594
 6230WAT     H118932   1.253   5.595   0.603
 6230WAT     H218933   1.149   5.684   0.514
 6231WAT      O18934   7.985   2.788   9.222
 6231WAT     H118935   8.070   2.746   9.192
 6231WAT     H218936   8.005   2.872   9.273
 6232WAT      O18937   0.736   9.824   4.012
 6232WAT     H118938   0.758   9.735   3.973
 6232WAT     H218939   0.640   9.824   4.042
 6233WAT      O18940   3.903   4.090   6.584
 6233WAT     H118941   3.889   3.998   6.621
 6233WAT     H218942   4.001   4.108   6.576
 6234WAT      O18943   0.078   1.651   1.960
 6234WAT     H118944   0.013   1.718   1.995
 6234WAT     H218945   0.170   1.689   1.964
 6235WAT      O18946   8.151   6.993   1.632
 6235WAT     H118947   8.204   6.931   1.690
 6235WAT     H218948   8.178   6.981   1.537
 6236WAT      O18949   1.075   2.955   0.609
 6236WAT     H118950   1.099   3.037   0.556
 6236WAT     H218951   1.008   2.979   0.679
 6237WAT      O18952   7.787   6.643   9.159
 6237WAT     H118953   7.752   6.694   9.237
 6237WAT     H218954   7.786   6.545   9.179
 6238WAT      O18955   3.550   2.996   0.747
 6238WAT     H118956   3.604   3.074   0.712
 6238WAT     H218957   3.612   2.928   0.785
 6239WAT      O18958   2.986   7.711   5.686
 6239WAT     H118959   3.053   7.772   5.728
 6239WAT     H218960   2.949   7.753   5.603
 6240WAT      O18961   2.532   8.467   7.496
 6240WAT     H118962   2.453   8.529   7.500
 6240WAT     H218963   2.519   8.402   7.422
 6241WAT      O18964   3.442   6.227   7.351
 6241WAT     H118965   3.404   6.135   7.347
 6241WAT     H218966   3.530   6.225   7.398
 6242WAT      O18967   8.547   6.753   6.397
 6242WAT     H118968   8.581   6.739   6.304
 6242WAT     H218969   8.487   6.833   6.399
 6243WAT      O18970   6.307   7.680   8.221
 6243WAT     H118971   6.261   7.750   8.167
 6243WAT     H218972   6.281   7.590   8.186
 6244WAT      O18973   4.661   6.130   4.248
 6244WAT     H118974   4.623   6.143   4.157
 6244WAT     H218975   4.750   6.174   4.254
 6245WAT      O18976   7.084   9.696   6.075
 6245WAT     H118977   7.066   9.787   6.113
 6245WAT     H218978   7.119   9.705   5.982
 6246WAT      O18979   7.022   3.106   2.449
 6246WAT     H118980   7.108   3.075   2.407
 6246WAT     H218981   6.971   3.160   2.383
 6247WAT      O18982   4.183   6.147   3.037
 6247WAT     H118983   4.114   6.133   3.108
 6247WAT     H218984   4.226   6.236   3.049
 6248WAT      O18985   4.375   9.322   9.742
 6248WAT     H118986   4.293   9.294   9.692
 6248WAT     H218987   4.399   9.252   9.809
 6249WAT      O18988   2.894   1.987   1.634
 6249WAT     H118989   2.883   2.039   1.719
 6249WAT     H218990   2.981   2.012   1.591
 6250WAT      O18991   2.730   1.413   4.670
 6250WAT     H118992   2.720   1.473   4.591
 6250WAT     H218993   2.735   1.318   4.639
 6251WAT      O18994   7.346   6.524   2.441
 6251WAT     H118995   7.311   6.478   2.360
 6251WAT     H218996   7.395   6.607   2.414
 6252WAT      O18997   4.848   1.084   1.561
 6252WAT     H118998   4.803   1.146   1.497
 6252WAT     H218999   4.856   0.994   1.520
 6253WAT      O19000   1.870   1.022   0.078
 6253WAT     H119001   1.770   1.026   0.082
 6253WAT     H219002   1.906   1.111   0.050
 6254WAT      O19003   8.917   9.330   9.235
 6254WAT     H119004   8.999   9.323   9.293
 6254WAT     H219005   8.845   9.272   9.272
 6255WAT      O19006   5.760   0.440   7.405
 6255WAT     H119007   5.789   0.350   7.437
 6255WAT     H219008   5.673   0.432   7.357
 6256WAT      O19009   9.889   8.828   3.093
 6256WAT     H119010   9.914   8.774   3.012
 6256WAT     H219011   9.828   8.775   3.151
 6257WAT      O19012   5.444   5.430   2.899
 6257WAT     H119013   5.433   5.387   2.989
 6257WAT     H219014   5.437   5.529   2.909
 6258WAT      O19015   3.020   1.760   0.646
 6258WAT     H119016   3.081   1.727   0.718
 6258WAT     H219017   3.019   1.696   0.570
 6259WAT      O19018   6.077   0.102   0.518
 6259WAT     H119019   6.144   0.132   0.586
 6259WAT     H219020   6.114   0.117   0.427
 6260WAT      O19021   6.782   7.465   5.548
 6260WAT     H119022   6.851   7.430   5.484
 6260WAT     H219023   6.694   7.471   5.501
 6261WAT      O19024   3.847   1.991   3.609
 6261WAT     H119025   3.758   2.022   3.577
 6261WAT     H219026   3.844   1.979   3.709
 6262WAT      O19027   8.127   9.206   6.855
 6262WAT     H119028   8.190   9.154   6.914
 6262WAT     H219029   8.148   9.186   6.759
 6263WAT      O19030   8.044   7.913   4.564
 6263WAT     H119031   7.954   7.956   4.565
 6263WAT     H219032   8.039   7.826   4.516
 6264WAT      O19033   0.354   1.119   6.528
 6264WAT     H119034   0.259   1.150   6.524
 6264WAT     H219035   0.413   1.194   6.557
 6265WAT      O19036   7.995   7.452   1.092
 6265WAT     H119037   7.974   7.368   1.042
 6265WAT     H219038   8.026   7.429   1.184
 6266WAT      O19039   2.043   9.103   7.810
 6266WAT     H119040   2.088   9.189   7.786
 6266WAT     H219041   2.100   9.026   7.780
 6267WAT      O19042   6.332   1.544   4.678
 6267WAT     H119043   6.412   1.604   4.675
 6267WAT     H219044   6.357   1.456   4.716
 6268WAT      O19045   5.658   8.898   8.341
 6268WAT     H119046   5.609   8.902   8.254
 6268WAT     H219047   5.708   8.812   8.347
 6269WAT      O19048   2.766   4.433   3.163
 6269WAT     H119049   2.849   4.381   3.143
 6269WAT     H219050   2.687   4.373   3.150
 6270WAT      O19051   9.456   8.588   3.098
 6270WAT     H119052   9.432   8.534   3.017
 6270WAT     H219053   9.441   8.533   3.180
 6271WAT      O19054   6.101   2.543   4.390
 6271WAT     H119055   6.019   2.560   4.335
 6271WAT     H219056   6.179   2.590   4.350
 6272WAT      O19057   8.369   8.703   7.093
 6272WAT     H119058   8.292   8.752   7.052
 6272WAT     H219059   8.451   8.721   7.039
 6273WAT      O19060   2.823   9.184   3.606
 6273WAT     H119061   2.797   9.153   3.515
 6273WAT     H219062   2.889   9.120   3.645
 6274WAT      O19063   1.711   8.083   0.434
 6274WAT     H119064   1.714   8.114   0.529
 6274WAT     H219065   1.659   8.148   0.379
 6275WAT      O19066   4.589   5.234   0.155
 6275WAT     H119067   4.600   5.252   0.058
 6275WAT     H219068   4.642   5.153   0.180
 6276WAT      O19069   6.510   9.454   4.706
 6276WAT     H119070   6.446   9.444   4.630
 6276WAT     H219071   6.533   9.551   4.718
 6277WAT      O19072   6.638   4.914   7.928
 6277WAT     H119073   6.710   4.902   7.996
 6277WAT     H219074   6.678   4.912   7.836
 6278WAT      O19075   8.285   8.158   8.075
 6278WAT     H119076   8.210   8.206   8.029
 6278WAT     H219077   8.267   8.060   8.075
 6279WAT      O19078   9.383   5.012   9.393
 6279WAT     H119079   9.462   5.072   9.408
 6279WAT     H219080   9.337   5.037   9.308
 6280WAT      O19081   4.561   9.477   1.233
 6280WAT     H119082   4.654   9.445   1.217
 6280WAT     H219083   4.546   9.563   1.184
 6281WAT      O19084   3.769   6.999   9.705
 6281WAT     H119085   3.808   7.082   9.666
 6281WAT     H219086   3.760   7.009   9.804
 6282WAT      O19087   5.742   7.627   2.662
 6282WAT     H119088   5.645   7.645   2.642
 6282WAT     H219089   5.754   7.529   2.680
 6283WAT      O19090   5.831   2.581   7.115
 6283WAT     H119091   5.856   2.581   7.212
 6283WAT     H219092   5.879   2.656   7.068
 6284WAT      O19093   8.553   2.105   4.020
 6284WAT     H119094   8.477   2.163   3.991
 6284WAT     H219095   8.518   2.025   4.067
 6285WAT      O19096   3.391   7.058   4.962
 6285WAT     H119097   3.422   6.963   4.969
 6285WAT     H219098   3.463   7.113   4.919
 6286WAT      O19099   9.626   5.636   1.634
 6286WAT     H119100   9.652   5.682   1.549
 6286WAT     H219101   9.527   5.643   1.647
 6287WAT      O19102   8.604   3.974   8.315
 6287WAT     H119103   8.599   3.995   8.218
 6287WAT     H219104   8.696   3.946   8.339
 6288WAT      O19105   2.565   2.447   3.132
 6288WAT     H119106   2.658   2.480   3.117
 6288WAT     H219107   2.563   2.347   3.127
 6289WAT      O19108   0.971   6.404   4.401
 6289WAT     H119109   0.955   6.319   4.451
 6289WAT     H219110   0.888   6.460   4.402
 6290WAT      O19111   9.335   4.801   3.840
 6290WAT     H119112   9.255   4.823   3.785
 6290WAT     H219113   9.324   4.838   3.932
 6291WAT      O19114   5.774   1.415   4.042
 6291WAT     H119115   5.821   1.377   4.122
 6291WAT     H219116   5.813   1.504   4.020
 6292WAT      O19117   7.316   3.592   2.467
 6292WAT     H119118   7.268   3.517   2.421
 6292WAT     H219119   7.411   3.594   2.436
 6293WAT      O19120   0.170   2.771   0.873
 6293WAT     H119121   0.147   2.808   0.964
 6293WAT     H219122   0.087   2.740   0.828
 6294WAT      O19123   8.143   6.389   4.225
 6294WAT     H119124   8.224   6.436   4.260
 6294WAT     H219125   8.170   6.325   4.153
 6295WAT      O19126   9.341   6.528   6.672
 6295WAT     H119127   9.381   6.570   6.754
 6295WAT     H219128   9.252   6.569   6.654
 6296WAT      O19129   2.581   7.033   2.657
 6296WAT     H119130   2.656   7.068   2.601
 6296WAT     H219131   2.506   7.100   2.658
 6297WAT      O19132   7.773   4.495   7.964
 6297WAT     H119133   7.744   4.451   7.880
 6297WAT     H219134   7.766   4.594   7.954
 6298WAT      O19135   3.565   8.122   5.335
 6298WAT     H119136   3.613   8.210   5.336
 6298WAT     H219137   3.568   8.081   5.426
 6299WAT      O19138   8.881   9.219   8.565
 6299WAT     H119139   8.930   9.134   8.543
 6299WAT     H219140   8.803   9.197   8.624
 6300WAT      O19141   4.229   6.424   2.132
 6300WAT     H119142   4.204   6.518   2.107
 6300WAT     H219143   4.163   6.389   2.198
 6301WAT      O19144   3.870   5.039   6.405
 6301WAT     H119145   3.889   4.970   6.473
 6301WAT     H219146   3.829   5.119   6.449
 6302WAT      O19147   1.817   0.215   5.656
 6302WAT     H119148   1.898   0.250   5.609
 6302WAT     H219149   1.818   0.115   5.654
 6303WAT      O19150   1.303   9.215   9.761
 6303WAT     H119151   1.337   9.121   9.753
 6303WAT     H219152   1.224   9.227   9.701
 6304WAT      O19153   6.530   5.073   5.924
 6304WAT     H119154   6.440   5.032   5.939
 6304WAT     H219155   6.587   5.057   6.005
 6305WAT      O19156   8.763   8.409   5.142
 6305WAT     H119157   8.823   8.428   5.219
 6305WAT     H219158   8.804   8.446   5.058
 6306WAT      O19159   8.271   1.357   2.974
 6306WAT     H119160   8.302   1.406   2.892
 6306WAT     H219161   8.333   1.376   3.050
 6307WAT      O19162   0.879   6.503   6.004
 6307WAT     H119163   0.871   6.408   5.974
 6307WAT     H219164   0.920   6.506   6.095
 6308WAT      O19165   7.436   1.998   4.720
 6308WAT     H119166   7.515   1.959   4.769
 6308WAT     H219167   7.455   2.094   4.700
 6309WAT      O19168   7.354   0.568   4.197
 6309WAT     H119169   7.378   0.648   4.141
 6309WAT     H219170   7.431   0.544   4.256
 6310WAT      O19171   0.134   2.715   3.764
 6310WAT     H119172   0.145   2.725   3.665
 6310WAT     H219173   0.160   2.800   3.809
 6311WAT      O19174   7.841   2.895   5.743
 6311WAT     H119175   7.819   2.799   5.730
 6311WAT     H219176   7.757   2.946   5.762
 6312WAT      O19177   4.598   2.879   3.528
 6312WAT     H119178   4.579   2.936   3.448
 6312WAT     H219179   4.570   2.785   3.510
 6313WAT      O19180   4.763   0.759   3.251
 6313WAT     H119181   4.825   0.706   3.193
 6313WAT     H219182   4.801   0.851   3.264
 6314WAT      O19183   4.222   8.982   7.221
 6314WAT     H119184   4.246   8.939   7.308
 6314WAT     H219185   4.255   9.076   7.220
 6315WAT      O19186   8.964   3.017   9.449
 6315WAT     H119187   8.988   3.079   9.524
 6315WAT     H219188   9.046   2.972   9.414
 6316WAT      O19189   6.700   2.201   4.846
 6316WAT     H119190   6.757   2.267   4.895
 6316WAT     H219191   6.687   2.232   4.752
 6317WAT      O19192   5.282   5.520   0.917
 6317WAT     H119193   5.257   5.442   0.975
 6317WAT     H219194   5.204   5.545   0.860
 6318WAT      O19195   2.094   6.729   4.906
 6318WAT     H119196   2.135   6.794   4.970
 6318WAT     H219197   2.090   6.770   4.815
 6319WAT      O19198   7.552   7.341   4.206
 6319WAT     H119199   7.541   7.243   4.195
 6319WAT     H219200   7.649   7.365   4.195
 6320WAT      O19201   5.842   3.057   7.474
 6320WAT     H119202   5.877   3.149   7.454
 6320WAT     H219203   5.786   3.025   7.398
 6321WAT      O19204   2.137   6.591   0.507
 6321WAT     H119205   2.175   6.504   0.475
 6321WAT     H219206   2.081   6.575   0.589
 6322WAT      O19207   0.270   4.494   4.820
 6322WAT     H119208   0.358   4.507   4.775
 6322WAT     H219209   0.196   4.520   4.758
 6323WAT      O19210   7.249   0.863   1.478
 6323WAT     H119211   7.322   0.920   1.515
 6323WAT     H219212   7.282   0.818   1.395
 6324WAT      O19213   3.623   8.716   1.622
 6324WAT     H119214   3.672   8.743   1.705
 6324WAT     H219215   3.687   8.704   1.547
 6325WAT      O19216   0.786   1.396   3.689
 6325WAT     H119217   0.738   1.483   3.674
 6325WAT     H219218   0.798   1.380   3.787
 6326WAT      O19219   7.309   4.086   4.626
 6326WAT     H119220   7.318   3.988   4.608
 6326WAT     H219221   7.226   4.121   4.582
 6327WAT      O19222   2.520   9.532   9.517
 6327WAT     H119223   2.524   9.609   9.581
 6327WAT     H219224   2.457   9.554   9.443
 6328WAT      O19225   3.871   8.688   3.975
 6328WAT     H119226   3.877   8.786   3.990
 6328WAT     H219227   3.839   8.644   4.059
 6329WAT      O19228   1.811   0.503   6.282
 6329WAT     H119229   1.744   0.551   6.226
 6329WAT     H219230   1.903   0.525   6.250
 6330WAT      O19231   7.673   9.225   9.561
 6330WAT     H119232   7.708   9.132   9.548
 6330WAT     H219233   7.573   9.225   9.553
 6331WAT      O19234   4.335   0.309   6.637
 6331WAT     H119235   4.290   0.373   6.699
 6331WAT     H219236   4.430   0.295   6.667
 6332WAT      O19237   5.042   4.001   2.075
 6332WAT     H119238   5.114   4.045   2.023
 6332WAT     H219239   5.059   3.903   2.080
 6333WAT      O19240   6.505   7.105   5.182
 6333WAT     H119241   6.594   7.112   5.226
 6333WAT     H219242   6.513   7.048   5.100
 6334WAT      O19243   4.992   1.007   5.220
 6334WAT     H119244   4.964   1.018   5.316
 6334WAT     H219245   5.066   1.072   5.199
 6335WAT      O19246   7.094   1.019   2.637
 6335WAT     H119247   7.122   0.933   2.596
 6335WAT     H219248   7.102   1.013   2.737
 6336WAT      O19249   9.122   5.446   9.354
 6336WAT     H119250   9.067   5.481   9.430
 6336WAT     H219251   9.198   5.508   9.335
 6337WAT      O19252   6.980   5.336   2.826
 6337WAT     H119253   6.963   5.419   2.879
 6337WAT     H219254   6.968   5.256   2.885
 6338WAT      O19255   0.253   1.164   2.785
 6338WAT     H119256   0.180   1.221   2.749
 6338WAT     H219257   0.310   1.217   2.848
 6339WAT      O19258   4.359   5.239   2.277
 6339WAT     H119259   4.368   5.322   2.332
 6339WAT     H219260   4.390   5.258   2.184
 6340WAT      O19261   0.466   3.488   9.556
 6340WAT     H119262   0.398   3.552   9.592
 6340WAT     H219263   0.485   3.510   9.460
 6341WAT      O19264   1.359   1.322   6.512
 6341WAT     H119265   1.341   1.310   6.609
 6341WAT     H219266   1.397   1.237   6.475
 6342WAT      O19267   2.141   1.285   8.126
 6342WAT     H119268   2.090   1.210   8.082
 6342WAT     H219269   2.163   1.259   8.220
 6343WAT      O19270   6.428   6.186   7.723
 6343WAT     H119271   6.489   6.161   7.648
 6343WAT     H219272   6.351   6.239   7.687
 6344WAT      O19273   0.415   7.013   1.417
 6344WAT     H119274   0.508   6.980   1.436
 6344WAT     H219275   0.405   7.105   1.454
 6345WAT      O19276   0.778   2.033   6.847
 6345WAT     H119277   0.805   1.982   6.928
 6345WAT     H219278   0.789   1.976   6.766
 6346WAT      O19279   0.974   5.030   4.821
 6346WAT     H119280   0.964   5.044   4.723
 6346WAT     H219281   0.887   4.998   4.859
 6347WAT      O19282   4.775   7.483   8.738
 6347WAT     H119283   4.711   7.532   8.797
 6347WAT     H219284   4.724   7.426   8.673
 6348WAT      O19285   0.118   8.317   5.803
 6348WAT     H119286   0.170   8.360   5.877
 6348WAT     H219287   0.142   8.360   5.716
 6349WAT      O19288   0.080   6.028   9.031
 6349WAT     H119289   0.011   6.058   9.097
 6349WAT     H219290   0.074   6.085   8.949
 6350WAT      O19291   7.316   0.300   5.072
 6350WAT     H119292   7.382   0.277   5.144
 6350WAT     H219293   7.345   0.383   5.025
 6351WAT      O19294   9.872   1.670   2.876
 6351WAT     H119295   9.942   1.639   2.941
 6351WAT     H219296   9.829   1.753   2.910
 6352WAT      O19297   2.712   2.213   8.642
 6352WAT     H119298   2.637   2.269   8.675
 6352WAT     H219299   2.708   2.207   8.542
 6353WAT      O19300   7.902   0.724   2.953
 6353WAT     H119301   7.876   0.747   2.859
 6353WAT     H219302   7.990   0.767   2.974
 6354WAT      O19303   8.882   0.787   1.437
 6354WAT     H119304   8.882   0.851   1.514
 6354WAT     H219305   8.916   0.698   1.468
 6355WAT      O19306   5.482   7.950   2.003
 6355WAT     H119307   5.463   8.048   1.994
 6355WAT     H219308   5.399   7.898   1.984
 6356WAT      O19309   8.662   1.565   9.496
 6356WAT     H119310   8.665   1.633   9.423
 6356WAT     H219311   8.724   1.489   9.474
 6357WAT      O19312   6.257   5.296   6.014
 6357WAT     H119313   6.280   5.201   5.995
 6357WAT     H219314   6.337   5.344   6.051
 6358WAT      O19315   6.427   0.092   9.655
 6358WAT     H119316   6.363   0.135   9.719
 6358WAT     H219317   6.393   0.002   9.628
 6359WAT      O19318   7.552   9.412   3.939
 6359WAT     H119319   7.633   9.427   3.995
 6359WAT     H219320   7.534   9.314   3.932
 6360WAT      O19321   0.739   6.545   4.394
 6360WAT     H119322   0.728   6.521   4.297
 6360WAT     H219323   0.793   6.629   4.402
 6361WAT      O19324   1.946   4.411   3.076
 6361WAT     H119325   2.014   4.341   3.053
 6361WAT     H219326   1.949   4.429   3.174
 6362WAT      O19327   3.871   9.438   2.470
 6362WAT     H119328   3.852   9.529   2.433
 6362WAT     H219329   3.787   9.383   2.466
 6363WAT      O19330   0.496   7.886   6.596
 6363WAT     H119331   0.411   7.844   6.629
 6363WAT     H219332   0.562   7.889   6.671
 6364WAT      O19333   1.484   8.813   2.026
 6364WAT     H119334   1.420   8.814   1.949
 6364WAT     H219335   1.550   8.739   2.014
 6365WAT      O19336   9.760   7.687   4.350
 6365WAT     H119337   9.848   7.712   4.391
 6365WAT     H219338   9.686   7.737   4.396
 6366WAT      O19339   0.663   8.682   7.386
 6366WAT     H119340   0.564   8.672   7.374
 6366WAT     H219341   0.703   8.726   7.305
 6367WAT      O19342   2.909   9.588   0.729
 6367WAT     H119343   2.845   9.584   0.806
 6367WAT     H219344   2.888   9.668   0.673
 6368WAT      O19345   6.862   3.561   7.312
 6368WAT     H119346   6.806   3.497   7.260
 6368WAT     H219347   6.847   3.545   7.410
 6369WAT      O19348   1.493   5.721   1.927
 6369WAT     H119349   1.520   5.627   1.911
 6369WAT     H219350   1.529   5.752   2.016
 6370WAT      O19351   8.435   3.023   4.739
 6370WAT     H119352   8.429   3.063   4.648
 6370WAT     H219353   8.481   3.086   4.800
 6371WAT      O19354   8.910   0.238   8.269
 6371WAT     H119355   8.929   0.169   8.199
 6371WAT     H219356   8.993   0.290   8.289
 6372WAT      O19357   1.463   4.070   9.745
 6372WAT     H119358   1.500   4.152   9.700
 6372WAT     H219359   1.475   3.991   9.685
 6373WAT      O19360   6.434   5.640   2.826
 6373WAT     H119361   6.400   5.602   2.912
 6373WAT     H219362   6.534   5.635   2.826
 6374WAT      O19363   5.962   5.104   2.859
 6374WAT     H119364   6.018   5.140   2.934
 6374WAT     H219365   5.893   5.042   2.895
 6375WAT      O19366   1.574   8.888   0.363
 6375WAT     H119367   1.517   8.957   0.319
 6375WAT     H219368   1.525   8.800   0.366
 6376WAT      O19369   7.328   6.507   5.257
 6376WAT     H119370   7.273   6.540   5.334
 6376WAT     H219371   7.317   6.408   5.248
 6377WAT      O19372   1.888   2.232   3.990
 6377WAT     H119373   1.898   2.313   4.048
 6377WAT     H219374   1.794   2.198   3.997
 6378WAT      O19375   1.337   7.569   8.641
 6378WAT     H119376   1.322   7.478   8.679
 6378WAT     H219377   1.255   7.599   8.593
 6379WAT      O19378   4.268   3.071   4.270
 6379WAT     H119379   4.286   3.167   4.250
 6379WAT     H219380   4.219   3.030   4.192
 6380WAT      O19381   0.401   3.763   3.174
 6380WAT     H119382   0.416   3.688   3.110
 6380WAT     H219383   0.423   3.733   3.267
 6381WAT      O19384   5.126   9.608   5.348
 6381WAT     H119385   5.143   9.689   5.292
 6381WAT     H219386   5.111   9.529   5.289
 6382WAT      O19387   5.206   3.458   3.118
 6382WAT     H119388   5.249   3.484   3.204
 6382WAT     H219389   5.160   3.538   3.078
 6383WAT      O19390   9.538   5.680   0.887
 6383WAT     H119391   9.541   5.673   0.986
 6383WAT     H219392   9.630   5.699   0.852
 6384WAT      O19393   1.412   6.214   3.700
 6384WAT     H119394   1.386   6.166   3.617
 6384WAT     H219395   1.495   6.267   3.683
 6385WAT      O19396   8.131   1.529   8.816
 6385WAT     H119397   8.168   1.618   8.789
 6385WAT     H219398   8.065   1.498   8.747
 6386WAT      O19399   6.085   0.427   3.981
 6386WAT     H119400   6.109   0.485   3.903
 6386WAT     H219401   6.141   0.344   3.980
 6387WAT      O19402   6.029   8.085   7.504
 6387WAT     H119403   6.006   8.166   7.559
 6387WAT     H219404   5.983   8.090   7.416
 6388WAT      O19405   8.729   5.694   1.796
 6388WAT     H119406   8.815   5.730   1.832
 6388WAT     H219407   8.747   5.638   1.715
 6389WAT      O19408   9.152   1.993   7.367
 6389WAT     H119409   9.172   2.031   7.457
 6389WAT     H219410   9.090   1.915   7.377
 6390WAT      O19411   4.934   5.654   5.363
 6390WAT     H119412   4.959   5.731   5.421
 6390WAT     H219413   4.835   5.653   5.350
 6391WAT      O19414   5.392   2.430   4.382
 6391WAT     H119415   5.481   2.475   4.381
 6391WAT     H219416   5.397   2.347   4.438
 6392WAT      O19417   4.780   4.968   8.362
 6392WAT     H119418   4.702   4.930   8.312
 6392WAT     H219419   4.821   4.897   8.419
 6393WAT      O19420   2.500   4.697   3.847
 6393WAT     H119421   2.528   4.664   3.757
 6393WAT     H219422   2.401   4.712   3.848
 6394WAT      O19423   1.879   5.356   0.545
 6394WAT     H119424   1.946   5.428   0.562
 6394WAT     H219425   1.824   5.341   0.627
 6395WAT      O19426   8.980   1.985   4.179
 6395WAT     H119427   9.040   1.940   4.114
 6395WAT     H219428   8.911   2.038   4.130
 6396WAT      O19429   7.220   3.524   7.598
 6396WAT     H119430   7.193   3.517   7.502
 6396WAT     H219431   7.312   3.563   7.604
 6397WAT      O19432   9.484   5.614   0.286
 6397WAT     H119433   9.421   5.564   0.346
 6397WAT     H219434   9.503   5.704   0.325
 6398WAT      O19435   4.248   6.101   8.009
 6398WAT     H119436   4.305   6.102   7.926
 6398WAT     H219437   4.194   6.186   8.013
 6399WAT      O19438   4.013   8.147   7.587
 6399WAT     H119439   3.914   8.137   7.600
 6399WAT     H219440   4.052   8.198   7.665
 6400WAT      O19441   1.011   3.185   1.563
 6400WAT     H119442   1.098   3.233   1.577
 6400WAT     H219443   0.937   3.235   1.609
 6401WAT      O19444   5.989   3.924   2.862
 6401WAT     H119445   6.001   3.998   2.928
 6401WAT     H219446   5.895   3.889   2.868
 6402WAT      O19447   4.457   3.806   8.063
 6402WAT     H119448   4.436   3.767   7.974
 6402WAT     H219449   4.553   3.788   8.086
 6403WAT      O19450   7.954   9.422   6.929
 6403WAT     H119451   8.016   9.348   6.904
 6403WAT     H219452   7.859   9.390   6.922
 6404WAT      O19453   0.205   6.197   3.236
 6404WAT     H119454   0.231   6.283   3.192
 6404WAT     H219455   0.281   6.132   3.229
 6405WAT      O19456   1.864   4.604   8.358
 6405WAT     H119457   1.821   4.515   8.343
 6405WAT     H219458   1.957   4.591   8.393
 6406WAT      O19459   4.868   8.072   0.857
 6406WAT     H119460   4.781   8.119   0.868
 6406WAT     H219461   4.897   8.035   0.945
 6407WAT      O19462   3.532   5.123   2.574
 6407WAT     H119463   3.632   5.121   2.562
 6407WAT     H219464   3.493   5.040   2.536
 6408WAT      O19465   0.384   3.700   2.776
 6408WAT     H119466   0.453   3.715   2.704
 6408WAT     H219467   0.301   3.750   2.752
 6409WAT      O19468   0.982   5.205   0.762
 6409WAT     H119469   1.075   5.170   0.751
 6409WAT     H219470   0.974   5.293   0.717
 6410WAT      O19471   0.335   3.227   9.784
 6410WAT     H119472   0.249   3.190   9.820
 6410WAT     H219473   0.376   3.288   9.852
 6411WAT      O19474   3.929   7.350   0.723
 6411WAT     H119475   3.835   7.380   0.736
 6411WAT     H219476   3.982   7.371   0.805
 6412WAT      O19477   9.333   8.650   6.120
 6412WAT     H119478   9.242   8.670   6.083
 6412WAT     H219479   9.377   8.579   6.065
 6413WAT      O19480   8.173   9.158   6.592
 6413WAT     H119481   8.199   9.250   6.562
 6413WAT     H219482   8.249   9.095   6.575
 6414WAT      O19483   1.364   7.112   4.967
 6414WAT     H119484   1.327   7.068   5.048
 6414WAT     H219485   1.290   7.137   4.905
 6415WAT      O19486   1.059   7.716   7.929
 6415WAT     H119487   1.006   7.697   8.012
 6415WAT     H219488   1.157   7.705   7.950
 6416WAT      O19489   6.223   4.751   7.012
 6416WAT     H119490   6.249   4.681   7.078
 6416WAT     H219491   6.231   4.714   6.920
 6417WAT      O19492   3.645   6.099   4.717
 6417WAT     H119493   3.744   6.098   4.699
 6417WAT     H219494   3.617   6.011   4.754
 6418WAT      O19495   0.439   9.049   6.044
 6418WAT     H119496   0.535   9.049   6.073
 6418WAT     H219497   0.424   9.121   5.977
 6419WAT      O19498   1.984   9.213   0.592
 6419WAT     H119499   1.941   9.200   0.503
 6419WAT     H219500   1.983   9.127   0.643
 6420WAT      O19501   4.193   7.171   6.100
 6420WAT     H119502   4.120   7.211   6.156
 6420WAT     H219503   4.198   7.072   6.117
 6421WAT      O19504   2.641   8.847   5.582
 6421WAT     H119505   2.663   8.829   5.678
 6421WAT     H219506   2.568   8.785   5.553
 6422WAT      O19507   6.362   8.088   4.885
 6422WAT     H119508   6.337   8.114   4.792
 6422WAT     H219509   6.377   8.170   4.940
 6423WAT      O19510   8.867   5.168   3.306
 6423WAT     H119511   8.931   5.121   3.245
 6423WAT     H219512   8.775   5.133   3.291
 6424WAT      O19513   7.030   7.116   5.649
 6424WAT     H119514   7.015   7.162   5.736
 6424WAT     H219515   7.063   7.182   5.581
 6425WAT      O19516   4.143   4.512   7.604
 6425WAT     H119517   4.077   4.438   7.591
 6425WAT     H219518   4.236   4.478   7.593
 6426WAT      O19519   3.993   9.595   9.257
 6426WAT     H119520   4.009   9.598   9.158
 6426WAT     H219521   4.080   9.607   9.305
 6427WAT      O19522   2.866   3.111   2.435
 6427WAT     H119523   2.876   3.125   2.533
 6427WAT     H219524   2.895   3.193   2.386
 6428WAT      O19525   6.034   0.734   5.803
 6428WAT     H119526   6.101   0.794   5.849
 6428WAT     H219527   5.954   0.788   5.778
 6429WAT      O19528   0.725   1.557   7.250
 6429WAT     H119529   0.763   1.641   7.289
 6429WAT     H219530   0.674   1.507   7.320
 6430WAT      O19531   6.242   2.293   9.683
 6430WAT     H119532   6.233   2.355   9.605
 6430WAT     H219533   6.331   2.306   9.727
 6431WAT      O19534   6.173   0.213   7.364
 6431WAT     H119535   6.133   0.178   7.448
 6431WAT     H219536   6.257   0.163   7.343
 6432WAT      O19537   1.270   2.810   4.290
 6432WAT     H119538   1.365   2.782   4.275
 6432WAT     H219539   1.260   2.847   4.382
 6433WAT      O19540   1.379   5.232   2.663
 6433WAT     H119541   1.306   5.231   2.731
 6433WAT     H219542   1.417   5.324   2.657
 6434WAT      O19543   1.196   2.363   2.608
 6434WAT     H119544   1.169   2.397   2.518
 6434WAT     H219545   1.185   2.264   2.611
 6435WAT      O19546   8.703   0.009   2.653
 6435WAT     H119547   8.784   0.057   2.685
 6435WAT     H219548   8.660  -0.039   2.730
 6436WAT      O19549   6.554   0.587   8.509
 6436WAT     H119550   6.509   0.618   8.425
 6436WAT     H219551   6.549   0.659   8.578
 6437WAT      O19552   9.109   5.182   3.692
 6437WAT     H119553   9.150   5.092   3.704
 6437WAT     H219554   9.010   5.174   3.693
 6438WAT      O19555   3.275   5.431   6.659
 6438WAT     H119556   3.283   5.434   6.759
 6438WAT     H219557   3.358   5.467   6.618
 6439WAT      O19558   4.437   1.585   7.324
 6439WAT     H119559   4.508   1.540   7.270
 6439WAT     H219560   4.475   1.614   7.412
 6440WAT      O19561   3.291   5.147   0.071
 6440WAT     H119562   3.363   5.145   0.001
 6440WAT     H219563   3.325   5.195   0.152
 6441WAT      O19564   1.857   5.611   0.343
 6441WAT     H119565   1.792   5.648   0.410
 6441WAT     H219566   1.830   5.518   0.318
 6442WAT      O19567   8.903   7.405   6.027
 6442WAT     H119568   8.911   7.407   5.927
 6442WAT     H219569   8.979   7.352   6.065
 6443WAT      O19570   9.028   1.727   3.954
 6443WAT     H119571   8.930   1.743   3.940
 6443WAT     H219572   9.075   1.815   3.964
 6444WAT      O19573   0.640   5.014   1.261
 6444WAT     H119574   0.571   4.954   1.302
 6444WAT     H219575   0.606   5.049   1.174
 6445WAT      O19576   5.655   8.591   0.348
 6445WAT     H119577   5.697   8.566   0.261
 6445WAT     H219578   5.695   8.676   0.381
 6446WAT      O19579   2.611   5.106   5.698
 6446WAT     H119580   2.632   5.169   5.623
 6446WAT     H219581   2.580   5.157   5.778
 6447WAT      O19582   3.022   4.070   1.729
 6447WAT     H119583   2.961   4.047   1.652
 6447WAT     H219584   3.003   4.009   1.806
 6448WAT      O19585   0.656   1.302   0.966
 6448WAT     H119586   0.734   1.364   0.962
 6448WAT     H219587   0.676   1.219   0.913
 6449WAT      O19588   3.140   4.804   8.553
 6449WAT     H119589   3.225   4.840   8.514
 6449WAT     H219590   3.156   4.778   8.649
 6450WAT      O19591   0.334   0.395   1.010
 6450WAT     H119592   0.370   0.441   1.091
 6450WAT     H219593   0.398   0.323   0.981
 6451WAT      O19594   3.002   7.100   0.832
 6451WAT     H119595   2.928   7.118   0.767
 6451WAT     H219596   3.078   7.162   0.813
 6452WAT      O19597   7.475   6.714   3.534
 6452WAT     H119598   7.558   6.695   3.587
 6452WAT     H219599   7.409   6.640   3.550
 6453WAT      O19600   6.466   7.966   3.664
 6453WAT     H119601   6.467   7.954   3.763
 6453WAT     H219602   6.550   7.929   3.625
 6454WAT      O19603   6.366   4.745   5.406
 6454WAT     H119604   6.365   4.657   5.360
 6454WAT     H219605   6.453   4.792   5.388
 6455WAT      O19606   6.515   7.434   2.701
 6455WAT     H119607   6.497   7.482   2.787
 6455WAT     H219608   6.601   7.384   2.708
 6456WAT      O19609   5.710   7.570   9.654
 6456WAT     H119610   5.639   7.581   9.724
 6456WAT     H219611   5.716   7.473   9.628
 6457WAT      O19612   0.107   2.122   2.725
 6457WAT     H119613   0.191   2.130   2.672
 6457WAT     H219614   0.110   2.184   2.803
 6458WAT      O19615   3.050   5.759   3.607
 6458WAT     H119616   3.143   5.790   3.589
 6458WAT     H219617   3.002   5.826   3.663
 6459WAT      O19618   1.005   3.220   7.152
 6459WAT     H119619   1.043   3.264   7.234
 6459WAT     H219620   0.981   3.291   7.085
 6460WAT      O19621   4.992   4.506   2.633
 6460WAT     H119622   4.997   4.606   2.639
 6460WAT     H219623   5.021   4.466   2.720
 6461WAT      O19624   8.434   0.514   8.024
 6461WAT     H119625   8.381   0.448   8.076
 6461WAT     H219626   8.455   0.477   7.934
 6462WAT      O19627   9.373   4.630   9.032
 6462WAT     H119628   9.350   4.658   8.938
 6462WAT     H219629   9.422   4.704   9.078
 6463WAT      O19630   4.963   8.320   7.178
 6463WAT     H119631   5.004   8.276   7.258
 6463WAT     H219632   4.955   8.418   7.195
 6464WAT      O19633   0.892   8.960   2.786
 6464WAT     H119634   0.894   8.979   2.688
 6464WAT     H219635   0.824   9.019   2.830
 6465WAT      O19636   1.035   5.055   6.658
 6465WAT     H119637   1.021   4.957   6.673
 6465WAT     H219638   1.015   5.105   6.742
 6466WAT      O19639   7.152   6.330   1.992
 6466WAT     H119640   7.152   6.275   2.075
 6466WAT     H219641   7.196   6.418   2.010
 6467WAT      O19642   0.774   6.974   7.336
 6467WAT     H119643   0.847   7.031   7.299
 6467WAT     H219644   0.790   6.879   7.309
 6468WAT      O19645   0.871   2.214   2.502
 6468WAT     H119646   0.859   2.222   2.403
 6468WAT     H219647   0.959   2.170   2.522
 6469WAT      O19648   2.626   9.108   5.618
 6469WAT     H119649   2.621   9.009   5.603
 6469WAT     H219650   2.573   9.155   5.548
 6470WAT      O19651   8.862   5.475   9.026
 6470WAT     H119652   8.897   5.565   9.051
 6470WAT     H219653   8.929   5.428   8.968
 6471WAT      O19654   7.120   0.430   4.181
 6471WAT     H119655   7.202   0.487   4.191
 6471WAT     H219656   7.074   0.422   4.270
 6472WAT      O19657   3.483   3.947   2.568
 6472WAT     H119658   3.385   3.952   2.586
 6472WAT     H219659   3.525   4.036   2.585
 6473WAT      O19660   8.818   4.465   8.539
 6473WAT     H119661   8.863   4.377   8.527
 6473WAT     H219662   8.849   4.506   8.625
 6474WAT      O19663   0.436   6.557   7.881
 6474WAT     H119664   0.469   6.475   7.834
 6474WAT     H219665   0.338   6.568   7.863
 6475WAT      O19666   4.967   8.480   5.380
 6475WAT     H119667   4.886   8.497   5.323
 6475WAT     H219668   4.984   8.382   5.385
 6476WAT      O19669   0.624   6.121   5.487
 6476WAT     H119670   0.663   6.208   5.518
 6476WAT     H219671   0.697   6.054   5.474
 6477WAT      O19672   1.368   2.515   8.968
 6477WAT     H119673   1.370   2.614   8.959
 6477WAT     H219674   1.291   2.477   8.917
 6478WAT      O19675   2.699   5.824   9.032
 6478WAT     H119676   2.765   5.775   8.975
 6478WAT     H219677   2.606   5.801   9.004
 6479WAT      O19678   1.124   8.185   1.565
 6479WAT     H119679   1.112   8.186   1.466
 6479WAT     H219680   1.048   8.135   1.607
 6480WAT      O19681   0.886   0.093   5.901
 6480WAT     H119682   0.874   0.061   5.807
 6480WAT     H219683   0.892   0.015   5.963
 6481WAT      O19684   8.495   4.644   6.247
 6481WAT     H119685   8.424   4.590   6.202
 6481WAT     H219686   8.581   4.593   6.248
 6482WAT      O19687   2.613   1.046   5.978
 6482WAT     H119688   2.679   0.978   5.946
 6482WAT     H219689   2.659   1.110   6.040
 6483WAT      O19690   8.357   0.360   2.757
 6483WAT     H119691   8.257   0.367   2.754
 6483WAT     H219692   8.385   0.323   2.846
 6484WAT      O19693   5.775   0.692   1.272
 6484WAT     H119694   5.787   0.619   1.205
 6484WAT     H219695   5.862   0.740   1.285
 6485WAT      O19696   3.426   3.107   7.449
 6485WAT     H119697   3.519   3.144   7.448
 6485WAT     H219698   3.387   3.115   7.357
 6486WAT      O19699   3.651   4.722   9.104
 6486WAT     H119700   3.741   4.737   9.064
 6486WAT     H219701   3.661   4.694   9.199
 6487WAT      O19702   1.960   8.688   1.991
 6487WAT     H119703   2.009   8.618   2.043
 6487WAT     H219704   1.911   8.749   2.053
 6488WAT      O19705   1.363   6.536   7.336
 6488WAT     H119706   1.387   6.575   7.425
 6488WAT     H219707   1.446   6.511   7.287
 6489WAT      O19708   7.774   5.550   7.904
 6489WAT     H119709   7.789   5.624   7.969
 6489WAT     H219710   7.732   5.587   7.821
 6490WAT      O19711   4.855   7.238   1.711
 6490WAT     H119712   4.835   7.161   1.772
 6490WAT     H219713   4.884   7.204   1.622
 6491WAT      O19714   2.757   8.735   8.421
 6491WAT     H119715   2.852   8.744   8.393
 6491WAT     H219716   2.728   8.639   8.412
 6492WAT      O19717   5.853   8.929   4.850
 6492WAT     H119718   5.774   8.948   4.909
 6492WAT     H219719   5.937   8.939   4.903
 6493WAT      O19720   5.825   9.800   0.306
 6493WAT     H119721   5.788   9.716   0.347
 6493WAT     H219722   5.822   9.792   0.207
 6494WAT      O19723   7.832   7.332   4.172
 6494WAT     H119724   7.897   7.344   4.097
 6494WAT     H219725   7.878   7.285   4.248
 6495WAT      O19726   1.136   4.167   2.036
 6495WAT     H119727   1.210   4.177   1.970
 6495WAT     H219728   1.168   4.111   2.113
 6496WAT      O19729   8.419   5.759   5.088
 6496WAT     H119730   8.438   5.661   5.094
 6496WAT     H219731   8.469   5.806   5.161
 6497WAT      O19732   8.712   4.706   2.598
 6497WAT     H119733   8.767   4.694   2.681
 6497WAT     H219734   8.742   4.641   2.528
 6498WAT      O19735   2.309   4.992   4.436
 6498WAT     H119736   2.250   4.993   4.355
 6498WAT     H219737   2.399   5.028   4.413
 6499WAT      O19738   3.382   1.290   3.465
 6499WAT     H119739   3.429   1.374   3.435
 6499WAT     H219740   3.327   1.311   3.546
 6500WAT      O19741   9.080   4.045   6.521
 6500WAT     H119742   9.115   3.964   6.473
 6500WAT     H219743   9.027   4.016   6.601
 6501WAT      O19744   2.423   7.120   4.596
 6501WAT     H119745   2.420   7.105   4.498
 6501WAT     H219746   2.377   7.044   4.643
 6502WAT      O19747   7.637   1.285   5.454
 6502WAT     H119748   7.591   1.306   5.368
 6502WAT     H219749   7.637   1.186   5.469
 6503WAT      O19750   3.065   4.206   2.810
 6503WAT     H119751   2.971   4.182   2.832
 6503WAT     H219752   3.075   4.212   2.710
 6504WAT      O19753   2.656   8.968   5.287
 6504WAT     H119754   2.654   8.958   5.386
 6504WAT     H219755   2.732   9.028   5.261
 6505WAT      O19756   0.234   9.749   8.433
 6505WAT     H119757   0.275   9.746   8.342
 6505WAT     H219758   0.239   9.842   8.469
 6506WAT      O19759   3.740   4.545   7.713
 6506WAT     H119760   3.816   4.596   7.753
 6506WAT     H219761   3.770   4.499   7.630
 6507WAT      O19762   1.832   7.249   8.809
 6507WAT     H119763   1.817   7.245   8.710
 6507WAT     H219764   1.777   7.323   8.849
 6508WAT      O19765   2.177   9.373   1.019
 6508WAT     H119766   2.126   9.289   1.036
 6508WAT     H219767   2.274   9.352   1.009
 6509WAT      O19768   7.984   9.257   4.944
 6509WAT     H119769   7.963   9.160   4.957
 6509WAT     H219770   7.911   9.300   4.890
 6510WAT      O19771   7.181   6.759   8.497
 6510WAT     H119772   7.209   6.731   8.405
 6510WAT     H219773   7.159   6.857   8.498
 6511WAT      O19774   0.162   9.203   8.648
 6511WAT     H119775   0.141   9.256   8.566
 6511WAT     H219776   0.124   9.249   8.728
 6512WAT      O19777   9.391   5.169   3.238
 6512WAT     H119778   9.386   5.258   3.193
 6512WAT     H219779   9.372   5.096   3.172
 6513WAT      O19780   6.385   6.547   4.570
 6513WAT     H119781   6.374   6.451   4.595
 6513WAT     H219782   6.300   6.596   4.589
 6514WAT      O19783   8.490   1.212   5.931
 6514WAT     H119784   8.486   1.247   6.025
 6514WAT     H219785   8.575   1.243   5.888
 6515WAT      O19786   1.742   9.618   2.069
 6515WAT     H119787   1.809   9.564   2.121
 6515WAT     H219788   1.741   9.587   1.974
 6516WAT      O19789   9.230   7.821   7.140
 6516WAT     H119790   9.280   7.780   7.216
 6516WAT     H219791   9.200   7.913   7.166
 6517WAT      O19792   3.088   0.644   7.197
 6517WAT     H119793   3.067   0.547   7.188
 6517WAT     H219794   3.060   0.693   7.115
 6518WAT      O19795   2.011   2.732   5.266
 6518WAT     H119796   2.078   2.765   5.199
 6518WAT     H219797   1.952   2.808   5.294
 6519WAT      O19798   2.064   2.633   6.323
 6519WAT     H119799   2.050   2.630   6.422
 6519WAT     H219800   1.976   2.644   6.277
 6520WAT      O19801   6.224   3.202   1.010
 6520WAT     H119802   6.256   3.256   0.933
 6520WAT     H219803   6.274   3.115   1.012
 6521WAT      O19804   4.860   5.612   8.541
 6521WAT     H119805   4.847   5.515   8.521
 6521WAT     H219806   4.880   5.624   8.638
 6522WAT      O19807   2.482   6.119   7.998
 6522WAT     H119808   2.582   6.120   8.004
 6522WAT     H219809   2.443   6.164   8.078
 6523WAT      O19810   6.313   8.935   5.092
 6523WAT     H119811   6.379   8.913   5.163
 6523WAT     H219812   6.313   9.034   5.075
 6524WAT      O19813   0.037   4.393   7.107
 6524WAT     H119814   0.103   4.330   7.066
 6524WAT     H219815  -0.055   4.354   7.099
 6525WAT      O19816   9.783   6.714   4.097
 6525WAT     H119817   9.800   6.771   4.178
 6525WAT     H219818   9.853   6.643   4.091
 6526WAT      O19819   7.006   8.191   6.672
 6526WAT     H119820   7.048   8.124   6.611
 6526WAT     H219821   6.971   8.145   6.754
 6527WAT      O19822   6.278   5.652   7.517
 6527WAT     H119823   6.283   5.629   7.420
 6527WAT     H219824   6.198   5.710   7.533
 6528WAT      O19825   9.125   1.281   0.569
 6528WAT     H119826   9.174   1.238   0.645
 6528WAT     H219827   9.029   1.293   0.594
 6529WAT      O19828   5.608   1.576   7.919
 6529WAT     H119829   5.652   1.521   7.849
 6529WAT     H219830   5.655   1.665   7.925
 6530WAT      O19831   8.655   9.329   4.839
 6530WAT     H119832   8.619   9.402   4.896
 6530WAT     H219833   8.699   9.368   4.758
 6531WAT      O19834   6.337   6.932   5.681
 6531WAT     H119835   6.316   7.027   5.658
 6531WAT     H219836   6.431   6.926   5.715
 6532WAT      O19837   1.535   4.556   8.860
 6532WAT     H119838   1.529   4.649   8.826
 6532WAT     H219839   1.460   4.502   8.822
 6533WAT      O19840   8.337   8.171   9.707
 6533WAT     H119841   8.373   8.084   9.672
 6533WAT     H219842   8.357   8.244   9.642
 6534WAT      O19843   5.838   6.792   8.396
 6534WAT     H119844   5.775   6.750   8.331
 6534WAT     H219845   5.855   6.887   8.368
 6535WAT      O19846   3.621   7.953   1.117
 6535WAT     H119847   3.720   7.936   1.113
 6535WAT     H219848   3.576   7.905   1.041
 6536WAT      O19849   5.352   6.442   9.648
 6536WAT     H119850   5.262   6.437   9.693
 6536WAT     H219851   5.414   6.375   9.689
 6537WAT      O19852   3.379   7.182   3.672
 6537WAT     H119853   3.426   7.094   3.668
 6537WAT     H219854   3.357   7.204   3.767
 6538WAT      O19855   2.673   6.211   3.114
 6538WAT     H119856   2.584   6.191   3.155
 6538WAT     H219857   2.746   6.184   3.177
 6539WAT      O19858   4.462   1.570   6.564
 6539WAT     H119859   4.541   1.523   6.603
 6539WAT     H219860   4.425   1.515   6.489
 6540WAT      O19861   6.863   1.204   4.802
 6540WAT     H119862   6.827   1.297   4.815
 6540WAT     H219863   6.955   1.209   4.763
 6541WAT      O19864   6.352   2.438   6.080
 6541WAT     H119865   6.372   2.415   6.175
 6541WAT     H219866   6.437   2.459   6.032
 6542WAT      O19867   2.283   6.811   1.340
 6542WAT     H119868   2.218   6.807   1.264
 6542WAT     H219869   2.235   6.786   1.425
 6543WAT      O19870   2.389   8.231   1.218
 6543WAT     H119871   2.423   8.317   1.180
 6543WAT     H219872   2.424   8.154   1.164
 6544WAT      O19873   9.194   3.943   6.160
 6544WAT     H119874   9.096   3.954   6.178
 6544WAT     H219875   9.207   3.883   6.081
 6545WAT      O19876   7.502   1.575   0.584
 6545WAT     H119877   7.569   1.639   0.548
 6545WAT     H219878   7.464   1.520   0.510
 6546WAT      O19879   3.243   9.316   6.971
 6546WAT     H119880   3.209   9.308   7.064
 6546WAT     H219881   3.176   9.363   6.914
 6547WAT      O19882   0.783   5.833   4.941
 6547WAT     H119883   0.812   5.848   4.847
 6547WAT     H219884   0.858   5.791   4.993
 6548WAT      O19885   3.861   2.031   7.389
 6548WAT     H119886   3.858   2.013   7.291
 6548WAT     H219887   3.944   2.082   7.412
 6549WAT      O19888   0.431   1.394   2.373
 6549WAT     H119889   0.475   1.340   2.445
 6549WAT     H219890   0.383   1.472   2.415
 6550WAT      O19891   6.582   2.712   1.855
 6550WAT     H119892   6.555   2.780   1.786
 6550WAT     H219893   6.562   2.621   1.821
 6551WAT      O19894   6.261   7.063   4.859
 6551WAT     H119895   6.242   7.111   4.945
 6551WAT     H219896   6.356   7.033   4.857
 6552WAT      O19897   3.878   0.543   1.191
 6552WAT     H119898   3.838   0.466   1.142
 6552WAT     H219899   3.821   0.565   1.270
 6553WAT      O19900   7.274   2.304   7.134
 6553WAT     H119901   7.316   2.248   7.063
 6553WAT     H219902   7.174   2.298   7.127
 6554WAT      O19903   0.685   1.937   8.566
 6554WAT     H119904   0.684   1.998   8.488
 6554WAT     H219905   0.592   1.919   8.596
 6555WAT      O19906   4.710   6.954   3.337
 6555WAT     H119907   4.653   7.030   3.370
 6555WAT     H219908   4.797   6.991   3.304
 6556WAT      O19909   1.226   3.456   4.017
 6556WAT     H119910   1.234   3.392   4.094
 6556WAT     H219911   1.133   3.491   4.013
 6557WAT      O19912   3.344   1.855   9.834
 6557WAT     H119913   3.256   1.807   9.828
 6557WAT     H219914   3.412   1.795   9.874
 6558WAT      O19915   9.592   7.050   7.296
 6558WAT     H119916   9.670   7.003   7.338
 6558WAT     H219917   9.624   7.102   7.217
 6559WAT      O19918   2.325   9.208   8.613
 6559WAT     H119919   2.400   9.232   8.675
 6559WAT     H219920   2.243   9.189   8.667
 6560WAT      O19921   6.578   0.571   0.542
 6560WAT     H119922   6.530   0.611   0.621
 6560WAT     H219923   6.620   0.644   0.488
 6561WAT      O19924   2.263   5.351   4.185
 6561WAT     H119925   2.163   5.352   4.173
 6561WAT     H219926   2.291   5.430   4.240
 6562WAT      O19927   1.626   6.846   8.131
 6562WAT     H119928   1.579   6.885   8.210
 6562WAT     H219929   1.568   6.777   8.088
 6563WAT      O19930   7.588   1.842   3.484
 6563WAT     H119931   7.604   1.761   3.428
 6563WAT     H219932   7.526   1.819   3.559
 6564WAT      O19933   2.679   8.460   3.443
 6564WAT     H119934   2.581   8.453   3.424
 6564WAT     H219935   2.694   8.456   3.542
 6565WAT      O19936   0.926   7.547   7.438
 6565WAT     H119937   1.006   7.555   7.378
 6565WAT     H219938   0.956   7.524   7.530
 6566WAT      O19939   4.136   1.666   8.400
 6566WAT     H119940   4.200   1.590   8.392
 6566WAT     H219941   4.057   1.649   8.342
 6567WAT      O19942   8.632   2.239   4.573
 6567WAT     H119943   8.588   2.172   4.632
 6567WAT     H219944   8.625   2.209   4.477
 6568WAT      O19945   2.641   8.395   2.923
 6568WAT     H119946   2.581   8.408   2.843
 6568WAT     H219947   2.597   8.334   2.988
 6569WAT      O19948   1.630   2.740   4.503
 6569WAT     H119949   1.598   2.703   4.591
 6569WAT     H219950   1.727   2.764   4.510
 6570WAT      O19951   0.078   4.971   1.174
 6570WAT     H119952   0.010   4.976   1.247
 6570WAT     H219953   0.166   5.005   1.207
 6571WAT      O19954   5.020   7.920   4.842
 6571WAT     H119955   5.093   7.893   4.905
 6571WAT     H219956   4.998   7.842   4.783
 6572WAT      O19957   9.524   7.385   0.497
 6572WAT     H119958   9.619   7.374   0.523
 6572WAT     H219959   9.470   7.416   0.576
 6573WAT      O19960   6.724   9.298   8.837
 6573WAT     H119961   6.713   9.347   8.751
 6573WAT     H219962   6.668   9.215   8.835
 6574WAT      O19963   9.409   1.165   3.565
 6574WAT     H119964   9.410   1.079   3.515
 6574WAT     H219965   9.382   1.240   3.503
 6575WAT      O19966   1.153   2.157   7.154
 6575WAT     H119967   1.076   2.184   7.096
 6575WAT     H219968   1.196   2.075   7.115
 6576WAT      O19969   4.952   2.665   5.005
 6576WAT     H119970   5.002   2.618   5.078
 6576WAT     H219971   4.942   2.603   4.927
 6577WAT      O19972   4.109   2.202   0.605
 6577WAT     H119973   4.054   2.242   0.532
 6577WAT     H219974   4.063   2.215   0.693
 6578WAT      O19975   7.853   6.681   6.872
 6578WAT     H119976   7.806   6.629   6.943
 6578WAT     H219977   7.802   6.765   6.852
 6579WAT      O19978   7.470   4.370   2.881
 6579WAT     H119979   7.412   4.322   2.947
 6579WAT     H219980   7.547   4.413   2.929
 6580WAT      O19981   7.257   0.285   4.450
 6580WAT     H119982   7.356   0.273   4.445
 6580WAT     H219983   7.212   0.210   4.401
 6581WAT      O19984   1.400   0.601   6.152
 6581WAT     H119985   1.390   0.516   6.203
 6581WAT     H219986   1.336   0.669   6.187
 6582WAT      O19987   1.758   6.024   0.903
 6582WAT     H119988   1.690   5.967   0.858
 6582WAT     H219989   1.820   5.966   0.956
 6583WAT      O19990   9.417   6.858   6.471
 6583WAT     H119991   9.326   6.899   6.465
 6583WAT     H219992   9.459   6.883   6.559
 6584WAT      O19993   4.917   1.199   2.981
 6584WAT     H119994   4.944   1.288   3.017
 6584WAT     H219995   4.820   1.185   2.996
 6585WAT      O19996   7.236   5.548   8.039
 6585WAT     H119997   7.220   5.484   7.965
 6585WAT     H219998   7.202   5.510   8.125
 6586WAT      O19999   4.064   1.379   4.204
 6586WAT     H120000   4.158   1.397   4.235
 6586WAT     H220001   4.066   1.344   4.110
 6587WAT      O20002   7.900   9.351   9.723
 6587WAT     H120003   7.963   9.290   9.771
 6587WAT     H220004   7.834   9.297   9.671
 6588WAT      O20005   9.819   4.487   4.268
 6588WAT     H120006   9.794   4.548   4.343
 6588WAT     H220007   9.744   4.481   4.203
 6589WAT      O20008   7.686   0.257   4.024
 6589WAT     H120009   7.763   0.271   4.085
 6589WAT     H220010   7.601   0.284   4.069
 6590WAT      O20011   6.945   4.305   5.879
 6590WAT     H120012   6.898   4.225   5.918
 6590WAT     H220013   6.884   4.384   5.884
 6591WAT      O20014   6.613   5.231   5.395
 6591WAT     H120015   6.691   5.244   5.455
 6591WAT     H220016   6.622   5.291   5.315
 6592WAT      O20017   0.379   4.926   9.383
 6592WAT     H120018   0.308   4.874   9.335
 6592WAT     H220019   0.373   5.023   9.359
 6593WAT      O20020   8.016   2.831   6.076
 6593WAT     H120021   8.042   2.768   6.003
 6593WAT     H220022   7.917   2.839   6.081
 6594WAT      O20023   1.315   7.949   9.188
 6594WAT     H120024   1.356   8.000   9.112
 6594WAT     H220025   1.258   8.011   9.242
 6595WAT      O20026   3.951   6.797   0.723
 6595WAT     H120027   3.863   6.803   0.770
 6595WAT     H220028   3.937   6.801   0.624
 6596WAT      O20029   4.950   6.015   3.087
 6596WAT     H120030   4.956   6.097   3.143
 6596WAT     H220031   5.041   5.978   3.071
 6597WAT      O20032   4.079   7.913   3.541
 6597WAT     H120033   4.113   7.949   3.453
 6597WAT     H220034   4.014   7.839   3.523
 6598WAT      O20035   6.873   1.134   1.233
 6598WAT     H120036   6.917   1.107   1.148
 6598WAT     H220037   6.930   1.201   1.280
 6599WAT      O20038   5.827   3.865   5.930
 6599WAT     H120039   5.821   3.767   5.949
 6599WAT     H220040   5.809   3.881   5.832
 6600WAT      O20041   5.022   3.752   1.972
 6600WAT     H120042   5.016   3.657   1.944
 6600WAT     H220043   5.003   3.812   1.894
 6601WAT      O20044   1.808   0.139   0.534
 6601WAT     H120045   1.799   0.039   0.533
 6601WAT     H220046   1.899   0.165   0.504
 6602WAT      O20047   4.277   9.653   1.092
 6602WAT     H120048   4.262   9.629   0.996
 6602WAT     H220049   4.190   9.654   1.140
 6603WAT      O20050   5.300   6.984   0.387
 6603WAT     H120051   5.237   6.910   0.412
 6603WAT     H220052   5.384   6.975   0.441
 6604WAT      O20053   5.385   7.537   0.902
 6604WAT     H120054   5.339   7.477   0.836
 6604WAT     H220055   5.457   7.588   0.856
 6605WAT      O20056   8.642   9.213   8.745
 6605WAT     H120057   8.639   9.282   8.817
 6605WAT     H220058   8.553   9.209   8.698
 6606WAT      O20059   2.704   9.548   3.194
 6606WAT     H120060   2.606   9.538   3.179
 6606WAT     H220061   2.750   9.559   3.105
 6607WAT      O20062   9.035   5.237   5.392
 6607WAT     H120063   9.080   5.219   5.305
 6607WAT     H220064   9.094   5.206   5.467
 6608WAT      O20065   0.367   8.609   5.793
 6608WAT     H120066   0.437   8.670   5.831
 6608WAT     H220067   0.289   8.663   5.762
 6609WAT      O20068   1.191   0.479   9.262
 6609WAT     H120069   1.230   0.560   9.218
 6609WAT     H220070   1.092   0.477   9.246
 6610WAT      O20071   3.872   3.577   2.842
 6610WAT     H120072   3.930   3.575   2.924
 6610WAT     H220073   3.785   3.622   2.864
 6611WAT      O20074   8.466   1.695   5.163
 6611WAT     H120075   8.377   1.690   5.208
 6611WAT     H220076   8.463   1.763   5.090
 6612WAT      O20077   3.773   0.729   4.174
 6612WAT     H120078   3.868   0.703   4.195
 6612WAT     H220079   3.713   0.693   4.246
 6613WAT      O20080   6.856   1.086   5.526
 6613WAT     H120081   6.846   1.138   5.441
 6613WAT     H220082   6.767   1.081   5.572
 6614WAT      O20083   2.661   7.310   3.568
 6614WAT     H120084   2.750   7.271   3.590
 6614WAT     H220085   2.640   7.384   3.632
 6615WAT      O20086   7.521   1.084   1.313
 6615WAT     H120087   7.463   1.153   1.269
 6615WAT     H220088   7.569   1.031   1.242
 6616WAT      O20089   7.325   4.773   0.571
 6616WAT     H120090   7.300   4.775   0.474
 6616WAT     H220091   7.292   4.688   0.612
 6617WAT      O20092   3.100   6.004   3.986
 6617WAT     H120093   3.169   5.951   4.035
 6617WAT     H220094   3.072   6.083   4.041
 6618WAT      O20095   3.082   9.589   0.121
 6618WAT     H120096   3.057   9.547   0.208
 6618WAT     H220097   3.151   9.659   0.136
 6619WAT      O20098   8.525   5.496   1.855
 6619WAT     H120099   8.572   5.413   1.885
 6619WAT     H220100   8.592   5.567   1.835
 6620WAT      O20101   4.087   0.946   1.008
 6620WAT     H120102   4.160   1.013   0.988
 6620WAT     H220103   4.126   0.854   1.005
 6621WAT      O20104   0.963   2.774   6.857
 6621WAT     H120105   0.874   2.819   6.852
 6621WAT     H220106   1.006   2.794   6.945
 6622WAT      O20107   3.829   2.196   3.087
 6622WAT     H120108   3.869   2.268   3.031
 6622WAT     H220109   3.758   2.235   3.146
 6623WAT      O20110   1.718   5.119   3.890
 6623WAT     H120111   1.667   5.091   3.971
 6623WAT     H220112   1.804   5.068   3.885
 6624WAT      O20113   4.820   6.200   2.877
 6624WAT     H120114   4.723   6.206   2.854
 6624WAT     H220115   4.833   6.143   2.957
 6625WAT      O20116   2.393   2.034   7.017
 6625WAT     H120117   2.403   2.070   7.109
 6625WAT     H220118   2.481   2.034   6.971
 6626WAT      O20119   4.603   8.395   9.864
 6626WAT     H120120   4.667   8.403   9.788
 6626WAT     H220121   4.559   8.483   9.880
 6627WAT      O20122   4.651   8.302   4.433
 6627WAT     H120123   4.633   8.375   4.367
 6627WAT     H220124   4.664   8.342   4.524
 6628WAT      O20125   5.009   3.814   1.071
 6628WAT     H120126   4.917   3.779   1.089
 6628WAT     H220127   5.016   3.839   0.974
 6629WAT      O20128   0.230   4.972   7.670
 6629WAT     H120129   0.284   4.891   7.691
 6629WAT     H220130   0.241   5.040   7.743
 6630WAT      O20131   7.542   8.710   2.029
 6630WAT     H120132   7.609   8.782   2.009
 6630WAT     H220133   7.571   8.625   1.986
 6631WAT      O20134   6.854   7.382   0.292
 6631WAT     H120135   6.762   7.405   0.324
 6631WAT     H220136   6.851   7.362   0.194
 6632WAT      O20137   8.089   0.666   4.801
 6632WAT     H120138   8.063   0.748   4.852
 6632WAT     H220139   8.021   0.648   4.730
 6633WAT      O20140   8.943   6.380   7.823
 6633WAT     H120141   9.014   6.312   7.804
 6633WAT     H220142   8.973   6.469   7.790
 6634WAT      O20143   4.936   5.690   2.932
 6634WAT     H120144   4.971   5.599   2.910
 6634WAT     H220145   5.006   5.741   2.982
 6635WAT      O20146   8.807   4.887   4.812
 6635WAT     H120147   8.762   4.807   4.774
 6635WAT     H220148   8.823   4.873   4.910
 6636WAT      O20149   9.734   2.114   2.661
 6636WAT     H120150   9.703   2.196   2.708
 6636WAT     H220151   9.829   2.095   2.685
 6637WAT      O20152   5.478   1.859   2.271
 6637WAT     H120153   5.431   1.920   2.207
 6637WAT     H220154   5.544   1.803   2.222
 6638WAT      O20155   4.236   1.522   2.324
 6638WAT     H120156   4.263   1.433   2.288
 6638WAT     H220157   4.302   1.553   2.393
 6639WAT      O20158   4.783   3.201   3.949
 6639WAT     H120159   4.768   3.133   3.878
 6639WAT     H220160   4.781   3.157   4.039
 6640WAT      O20161   0.708   2.106   0.176
 6640WAT     H120162   0.771   2.048   0.125
 6640WAT     H220163   0.619   2.108   0.130
 6641WAT      O20164   8.957   0.609   0.003
 6641WAT     H120165   8.976   0.531   0.063
 6641WAT     H220166   8.954   0.578  -0.092
 6642WAT      O20167   5.961   8.312   1.880
 6642WAT     H120168   5.871   8.277   1.852
 6642WAT     H220169   5.958   8.412   1.881
 6643WAT      O20170   4.276   4.242   2.637
 6643WAT     H120171   4.310   4.287   2.719
 6643WAT     H220172   4.182   4.272   2.618
 6644WAT      O20173   0.296   0.952   3.731
 6644WAT     H120174   0.263   0.858   3.737
 6644WAT     H220175   0.250   1.008   3.800
 6645WAT      O20176   0.656   4.703   9.866
 6645WAT     H120177   0.648   4.797   9.832
 6645WAT     H220178   0.568   4.673   9.903
 6646WAT      O20179   5.360   1.570   5.138
 6646WAT     H120180   5.298   1.556   5.060
 6646WAT     H220181   5.376   1.668   5.150
 6647WAT      O20182   7.578   2.184   1.938
 6647WAT     H120183   7.554   2.163   2.033
 6647WAT     H220184   7.498   2.172   1.880
 6648WAT      O20185   1.079   4.254   3.370
 6648WAT     H120186   1.137   4.310   3.429
 6648WAT     H220187   0.996   4.229   3.419
 6649WAT      O20188   8.324   8.251   7.663
 6649WAT     H120189   8.392   8.178   7.663
 6649WAT     H220190   8.264   8.241   7.584
 6650WAT      O20191   9.577   6.807   5.447
 6650WAT     H120192   9.530   6.729   5.489
 6650WAT     H220193   9.572   6.886   5.508
 6651WAT      O20194   2.158   5.930   0.332
 6651WAT     H120195   2.204   5.923   0.421
 6651WAT     H220196   2.204   5.999   0.276
 6652WAT      O20197   8.708   7.898   1.485
 6652WAT     H120198   8.616   7.859   1.493
 6652WAT     H220199   8.702   7.998   1.485
 6653WAT      O20200   2.046   8.158   7.249
 6653WAT     H120201   2.129   8.109   7.225
 6653WAT     H220202   2.051   8.189   7.344
 6654WAT      O20203   4.922   3.444   4.186
 6654WAT     H120204   4.848   3.403   4.240
 6654WAT     H220205   5.002   3.384   4.189
 6655WAT      O20206   4.964   9.098   6.084
 6655WAT     H120207   5.034   9.168   6.073
 6655WAT     H220208   4.897   9.106   6.010
 6656WAT      O20209   6.864   0.747   9.163
 6656WAT     H120210   6.924   0.817   9.201
 6656WAT     H220211   6.825   0.692   9.237
 6657WAT      O20212   0.989   4.463   3.020
 6657WAT     H120213   1.081   4.502   3.028
 6657WAT     H220214   0.932   4.523   2.965
 6658WAT      O20215   6.675   4.602   1.523
 6658WAT     H120216   6.585   4.612   1.565
 6658WAT     H220217   6.687   4.509   1.490
 6659WAT      O20218   1.092   3.507   3.601
 6659WAT     H120219   1.035   3.506   3.519
 6659WAT     H220220   1.152   3.587   3.599
 6660WAT      O20221   7.499   6.860   8.460
 6660WAT     H120222   7.438   6.907   8.524
 6660WAT     H220223   7.502   6.762   8.481
 6661WAT      O20224   5.537   1.402   5.744
 6661WAT     H120225   5.512   1.308   5.721
 6661WAT     H220226   5.475   1.465   5.698
 6662WAT      O20227   4.649   1.372   1.588
 6662WAT     H120228   4.625   1.292   1.533
 6662WAT     H220229   4.567   1.426   1.606
 6663WAT      O20230   8.618   2.849   4.169
 6663WAT     H120231   8.537   2.842   4.111
 6663WAT     H220232   8.593   2.828   4.264
 6664WAT      O20233   4.643   5.585   1.235
 6664WAT     H120234   4.556   5.553   1.197
 6664WAT     H220235   4.626   5.631   1.322
 6665WAT      O20236   5.279   8.551   2.430
 6665WAT     H120237   5.251   8.476   2.370
 6665WAT     H220238   5.374   8.538   2.458
 6666WAT      O20239   9.419   4.093   8.744
 6666WAT     H120240   9.330   4.080   8.701
 6666WAT     H220241   9.486   4.032   8.702
 6667WAT      O20242   5.298   8.064   9.482
 6667WAT     H120243   5.394   8.085   9.502
 6667WAT     H220244   5.249   8.149   9.462
 6668WAT      O20245   5.036   6.272   3.154
 6668WAT     H120246   5.051   6.358   3.106
 6668WAT     H220247   5.083   6.273   3.242
 6669WAT      O20248   0.637   6.840   3.962
 6669WAT     H120249   0.651   6.893   4.045
 6669WAT     H220250   0.721   6.839   3.908
 6670WAT      O20251   6.430   4.284   0.025
 6670WAT     H120252   6.480   4.199   0.007
 6670WAT     H220253   6.449   4.315   0.118
 6671WAT      O20254   8.926   6.158   8.857
 6671WAT     H120255   8.936   6.234   8.794
 6671WAT     H220256   8.930   6.071   8.807
 6672WAT      O20257   6.769   4.396   6.799
 6672WAT     H120258   6.713   4.459   6.745
 6672WAT     H220259   6.776   4.430   6.893
 6673WAT      O20260   3.541   5.749   2.464
 6673WAT     H120261   3.586   5.684   2.403
 6673WAT     H220262   3.443   5.748   2.448
 6674WAT      O20263   7.307   6.967   2.947
 6674WAT     H120264   7.371   7.028   2.992
 6674WAT     H220265   7.328   6.961   2.850
 6675WAT      O20266   4.706   3.829   7.524
 6675WAT     H120267   4.630   3.867   7.575
 6675WAT     H220268   4.733   3.742   7.565
 6676WAT      O20269   5.084   1.760   3.004
 6676WAT     H120270   5.058   1.699   3.078
 6676WAT     H220271   5.003   1.781   2.948
 6677WAT      O20272   8.331   3.995   9.064
 6677WAT     H120273   8.379   4.032   8.984
 6677WAT     H220274   8.388   4.007   9.145
 6678WAT      O20275   7.244   8.620   3.072
 6678WAT     H120276   7.171   8.625   3.140
 6678WAT     H220277   7.317   8.561   3.107
 6679WAT      O20278   8.461   7.293   2.326
 6679WAT     H120279   8.384   7.278   2.263
 6679WAT     H220280   8.543   7.249   2.289
 6680WAT      O20281   8.320   4.285   1.586
 6680WAT     H120282   8.235   4.274   1.535
 6680WAT     H220283   8.336   4.382   1.604
 6681WAT      O20284   1.539   1.183   3.219
 6681WAT     H120285   1.636   1.183   3.197
 6681WAT     H220286   1.517   1.261   3.277
 6682WAT      O20287   8.405   7.038   4.975
 6682WAT     H120288   8.410   7.088   5.062
 6682WAT     H220289   8.496   7.033   4.935
 6683WAT      O20290   1.174   2.171   1.976
 6683WAT     H120291   1.101   2.238   1.991
 6683WAT     H220292   1.150   2.086   2.021
 6684WAT      O20293   4.660   1.827   3.802
 6684WAT     H120294   4.633   1.921   3.782
 6684WAT     H220295   4.744   1.827   3.856
 6685WAT      O20296   6.207   3.323   8.938
 6685WAT     H120297   6.115   3.336   8.974
 6685WAT     H220298   6.273   3.332   9.012
 6686WAT      O20299   8.952   6.369   4.255
 6686WAT     H120300   8.975   6.318   4.337
 6686WAT     H220301   9.024   6.358   4.187
 6687WAT      O20302   4.230   1.145   1.286
 6687WAT     H120303   4.215   1.052   1.319
 6687WAT     H220304   4.322   1.152   1.247
 6688WAT      O20305   9.678   7.744   8.001
 6688WAT     H120306   9.708   7.830   8.041
 6688WAT     H220307   9.755   7.700   7.955
 6689WAT      O20308   6.589   8.579   7.514
 6689WAT     H120309   6.632   8.575   7.423
 6689WAT     H220310   6.496   8.613   7.505
 6690WAT      O20311   5.531   6.101   6.387
 6690WAT     H120312   5.530   6.195   6.421
 6690WAT     H220313   5.540   6.101   6.288
 6691WAT      O20314   4.400   9.295   3.223
 6691WAT     H120315   4.486   9.245   3.240
 6691WAT     H220316   4.336   9.235   3.176
 6692WAT      O20317   9.567   1.189   0.097
 6692WAT     H120318   9.469   1.189   0.082
 6692WAT     H220319   9.590   1.251   0.172
 6693WAT      O20320   4.018   3.076   2.747
 6693WAT     H120321   3.949   3.087   2.676
 6693WAT     H220322   4.109   3.093   2.709
 6694WAT      O20323   5.993   6.712   3.076
 6694WAT     H120324   5.915   6.661   3.113
 6694WAT     H220325   5.967   6.756   2.991
 6695WAT      O20326   2.281   7.630   1.443
 6695WAT     H120327   2.226   7.608   1.524
 6695WAT     H220328   2.327   7.547   1.411
 6696WAT      O20329   5.978   5.901   6.627
 6696WAT     H120330   5.886   5.937   6.641
 6696WAT     H220331   5.974   5.801   6.622
 6697WAT      O20332   5.524   7.342   8.619
 6697WAT     H120333   5.571   7.271   8.566
 6697WAT     H220334   5.475   7.403   8.558
 6698WAT      O20335   0.061   6.379   6.756
 6698WAT     H120336   0.043   6.462   6.703
 6698WAT     H220337   0.078   6.303   6.693
 6699WAT      O20338   2.288   8.084   2.735
 6699WAT     H120339   2.248   8.158   2.681
 6699WAT     H220340   2.233   8.069   2.818
 6700WAT      O20341   4.914   9.560   2.269
 6700WAT     H120342   4.947   9.468   2.249
 6700WAT     H220343   4.937   9.584   2.363
 6701WAT      O20344   9.440   1.399   7.053
 6701WAT     H120345   9.362   1.460   7.066
 6701WAT     H220346   9.511   1.446   7.000
 6702WAT      O20347   1.592   1.277   2.276
 6702WAT     H120348   1.629   1.283   2.368
 6702WAT     H220349   1.588   1.181   2.248
 6703WAT      O20350   9.730   2.331   4.226
 6703WAT     H120351   9.687   2.378   4.149
 6703WAT     H220352   9.746   2.236   4.202
 6704WAT      O20353   0.518   3.855   5.657
 6704WAT     H120354   0.536   3.929   5.592
 6704WAT     H220355   0.531   3.767   5.611
 6705WAT      O20356   4.559   5.303   0.442
 6705WAT     H120357   4.609   5.388   0.460
 6705WAT     H220358   4.571   5.276   0.347
 6706WAT      O20359   9.041   6.551   3.367
 6706WAT     H120360   9.093   6.529   3.450
 6706WAT     H220361   9.084   6.507   3.288
 6707WAT      O20362   9.704   5.956   7.187
 6707WAT     H120363   9.679   6.042   7.142
 6707WAT     H220364   9.778   5.974   7.252
 6708WAT      O20365   1.816   3.313   1.276
 6708WAT     H120366   1.895   3.261   1.243
 6708WAT     H220367   1.749   3.251   1.316
 6709WAT      O20368   7.326   4.414   0.899
 6709WAT     H120369   7.271   4.468   0.962
 6709WAT     H220370   7.284   4.417   0.808
 6710WAT      O20371   6.165   4.598   1.932
 6710WAT     H120372   6.207   4.508   1.924
 6710WAT     H220373   6.225   4.667   1.890
 6711WAT      O20374   2.972   5.282   8.826
 6711WAT     H120375   3.036   5.213   8.860
 6711WAT     H220376   3.007   5.373   8.848
 6712WAT      O20377   9.816   0.585   2.254
 6712WAT     H120378   9.907   0.624   2.238
 6712WAT     H220379   9.747   0.652   2.227
 6713WAT      O20380   1.534   5.343   6.469
 6713WAT     H120381   1.436   5.350   6.447
 6713WAT     H220382   1.563   5.247   6.465
 6714WAT      O20383   9.519   0.755   8.155
 6714WAT     H120384   9.465   0.772   8.237
 6714WAT     H220385   9.539   0.841   8.110
 6715WAT      O20386   4.978   6.836   2.266
 6715WAT     H120387   5.007   6.885   2.184
 6715WAT     H220388   4.885   6.803   2.254
 6716WAT      O20389   0.921   1.608   9.657
 6716WAT     H120390   1.019   1.619   9.673
 6716WAT     H220391   0.908   1.553   9.574
 6717WAT      O20392   6.320   8.568   4.249
 6717WAT     H120393   6.260   8.550   4.172
 6717WAT     H220394   6.403   8.512   4.240
 6718WAT      O20395   6.461   2.962   2.347
 6718WAT     H120396   6.424   2.869   2.355
 6718WAT     H220397   6.555   2.963   2.382
 6719WAT      O20398   4.606   7.206   4.847
 6719WAT     H120399   4.659   7.242   4.770
 6719WAT     H220400   4.577   7.281   4.906
 6720WAT      O20401   8.231   6.479   8.749
 6720WAT     H120402   8.175   6.426   8.686
 6720WAT     H220403   8.226   6.576   8.725
 6721WAT      O20404   0.650   7.921   8.995
 6721WAT     H120405   0.661   7.845   9.059
 6721WAT     H220406   0.568   7.908   8.941
 6722WAT      O20407   2.104   9.684   6.574
 6722WAT     H120408   2.125   9.611   6.509
 6722WAT     H220409   2.188   9.731   6.600
 6723WAT      O20410   3.566   8.712   9.074
 6723WAT     H120411   3.593   8.772   9.148
 6723WAT     H220412   3.573   8.617   9.104
 6724WAT      O20413   4.053   9.261   4.975
 6724WAT     H120414   4.139   9.299   5.008
 6724WAT     H220415   3.997   9.233   5.054
 6725WAT      O20416   1.066   0.264   5.058
 6725WAT     H120417   1.030   0.254   4.965
 6725WAT     H220418   1.131   0.340   5.061
 6726WAT      O20419   5.611   0.749   0.197
 6726WAT     H120420   5.666   0.821   0.240
 6726WAT     H220421   5.526   0.739   0.248
 6727WAT      O20422   5.899   9.408   4.624
 6727WAT     H120423   5.837   9.370   4.555
 6727WAT     H220424   5.970   9.463   4.579
 6728WAT      O20425   3.719   2.093   8.430
 6728WAT     H120426   3.634   2.091   8.484
 6728WAT     H220427   3.729   2.182   8.387
 6729WAT      O20428   7.250   5.600   0.888
 6729WAT     H120429   7.302   5.579   0.805
 6729WAT     H220430   7.313   5.626   0.961
 6730WAT      O20431   3.261   5.172   6.917
 6730WAT     H120432   3.272   5.095   6.980
 6730WAT     H220433   3.176   5.160   6.865
 6731WAT      O20434   5.135   5.333   6.304
 6731WAT     H120435   5.176   5.296   6.387
 6731WAT     H220436   5.125   5.260   6.236
 6732WAT      O20437   7.875   7.168   7.669
 6732WAT     H120438   7.903   7.254   7.711
 6732WAT     H220439   7.946   7.099   7.683
 6733WAT      O20440   6.881   2.755   1.470
 6733WAT     H120441   6.827   2.680   1.432
 6733WAT     H220442   6.913   2.814   1.395
 6734WAT      O20443   2.934   8.134   4.517
 6734WAT     H120444   2.842   8.172   4.528
 6734WAT     H220445   2.980   8.180   4.441
 6735WAT      O20446   5.828   7.191   5.249
 6735WAT     H120447   5.855   7.185   5.153
 6735WAT     H220448   5.732   7.164   5.258
 6736WAT      O20449   9.273   2.532   7.410
 6736WAT     H120450   9.287   2.462   7.340
 6736WAT     H220451   9.202   2.501   7.474
 6737WAT      O20452   0.559   7.097   2.642
 6737WAT     H120453   0.623   7.083   2.566
 6737WAT     H220454   0.546   7.195   2.658
 6738WAT      O20455   1.916   7.468   3.823
 6738WAT     H120456   1.925   7.380   3.776
 6738WAT     H220457   1.917   7.542   3.756
 6739WAT      O20458   4.074   3.508   4.880
 6739WAT     H120459   3.984   3.472   4.854
 6739WAT     H220460   4.128   3.435   4.922
 6740WAT      O20461   9.819   2.942   3.429
 6740WAT     H120462   9.799   3.009   3.358
 6740WAT     H220463   9.737   2.886   3.445
 6741WAT      O20464   5.034   1.623   6.366
 6741WAT     H120465   5.011   1.550   6.302
 6741WAT     H220466   5.132   1.620   6.385
 6742WAT      O20467   5.003   0.632   8.697
 6742WAT     H120468   4.935   0.602   8.629
 6742WAT     H220469   5.067   0.558   8.714
 6743WAT      O20470   0.485   9.610   0.268
 6743WAT     H120471   0.417   9.681   0.285
 6743WAT     H220472   0.443   9.520   0.278
 6744WAT      O20473   9.528   6.784   7.247
 6744WAT     H120474   9.596   6.762   7.177
 6744WAT     H220475   9.544   6.877   7.281
 6745WAT      O20476   5.996   8.855   0.866
 6745WAT     H120477   6.014   8.939   0.816
 6745WAT     H220478   5.918   8.869   0.927
 6746WAT      O20479   8.093   9.139   1.885
 6746WAT     H120480   8.015   9.179   1.837
 6746WAT     H220481   8.178   9.173   1.844
 6747WAT      O20482   8.042   0.527   8.141
 6747WAT     H120483   8.051   0.534   8.240
 6747WAT     H220484   8.075   0.611   8.098
 6748WAT      O20485   0.098   3.069   0.904
 6748WAT     H120486   0.084   3.050   0.806
 6748WAT     H220487   0.153   2.996   0.944
 6749WAT      O20488   9.848   5.238   7.969
 6749WAT     H120489   9.890   5.298   8.037
 6749WAT     H220490   9.899   5.152   7.964
 6750WAT      O20491   9.079   7.186   7.652
 6750WAT     H120492   9.056   7.186   7.555
 6750WAT     H220493   9.172   7.221   7.664
 6751WAT      O20494   6.700   3.141   3.136
 6751WAT     H120495   6.640   3.208   3.179
 6751WAT     H220496   6.761   3.187   3.071
 6752WAT      O20497   8.542   0.187   6.939
 6752WAT     H120498   8.451   0.200   6.898
 6752WAT     H220499   8.612   0.212   6.872
 6753WAT      O20500   6.306   5.630   5.631
 6753WAT     H120501   6.231   5.621   5.698
 6753WAT     H220502   6.305   5.723   5.593
 6754WAT      O20503   9.655   2.781   6.687
 6754WAT     H120504   9.682   2.871   6.653
 6754WAT     H220505   9.650   2.784   6.787
 6755WAT      O20506   4.866   5.636   5.992
 6755WAT     H120507   4.832   5.730   5.993
 6755WAT     H220508   4.839   5.590   6.076
 6756WAT      O20509   7.783   9.831   1.094
 6756WAT     H120510   7.836   9.907   1.131
 6756WAT     H220511   7.824   9.799   1.009
 6757WAT      O20512   6.207   0.762   0.376
 6757WAT     H120513   6.166   0.778   0.466
 6757WAT     H220514   6.266   0.681   0.381
 6758WAT      O20515   1.422   8.135   8.999
 6758WAT     H120516   1.490   8.206   8.984
 6758WAT     H220517   1.334   8.178   9.021
 6759WAT      O20518   9.536   1.318   8.150
 6759WAT     H120519   9.456   1.312   8.091
 6759WAT     H220520   9.604   1.380   8.110
 6760WAT      O20521   5.284   0.107   4.478
 6760WAT     H120522   5.215   0.094   4.550
 6760WAT     H220523   5.253   0.178   4.416
 6761WAT      O20524   0.468   2.765   5.104
 6761WAT     H120525   0.477   2.791   5.008
 6761WAT     H220526   0.371   2.751   5.125
 6762WAT      O20527   6.144   4.098   6.836
 6762WAT     H120528   6.092   4.164   6.781
 6762WAT     H220529   6.081   4.041   6.887
 6763WAT      O20530   3.868   3.855   0.174
 6763WAT     H120531   3.887   3.758   0.192
 6763WAT     H220532   3.771   3.874   0.192
 6764WAT      O20533   5.499   3.358   7.664
 6764WAT     H120534   5.556   3.429   7.624
 6764WAT     H220535   5.451   3.309   7.592
 6765WAT      O20536   1.980   6.971   4.033
 6765WAT     H120537   1.889   7.012   4.031
 6765WAT     H220538   1.983   6.901   4.105
 6766WAT      O20539   6.898   9.693   8.778
 6766WAT     H120540   6.939   9.778   8.812
 6766WAT     H220541   6.884   9.699   8.680
 6767WAT      O20542   0.708   8.170   4.505
 6767WAT     H120543   0.787   8.120   4.470
 6767WAT     H220544   0.689   8.142   4.599
 6768WAT      O20545   7.412   9.809   6.777
 6768WAT     H120546   7.430   9.786   6.873
 6768WAT     H220547   7.370   9.900   6.772
 6769WAT      O20548   1.971   9.035   8.071
 6769WAT     H120549   1.988   9.075   7.981
 6769WAT     H220550   2.001   8.939   8.071
 6770WAT      O20551   4.581   5.060   1.738
 6770WAT     H120552   4.616   5.048   1.646
 6770WAT     H220553   4.657   5.069   1.802
 6771WAT      O20554   2.433   7.102   6.242
 6771WAT     H120555   2.413   7.044   6.321
 6771WAT     H220556   2.432   7.198   6.270
 6772WAT      O20557   8.812   2.850   3.583
 6772WAT     H120558   8.801   2.755   3.555
 6772WAT     H220559   8.799   2.856   3.682
 6773WAT      O20560   3.187   9.029   6.332
 6773WAT     H120561   3.200   9.099   6.403
 6773WAT     H220562   3.187   8.939   6.374
 6774WAT      O20563   4.315   6.500   0.036
 6774WAT     H120564   4.341   6.543  -0.050
 6774WAT     H220565   4.389   6.442   0.068
 6775WAT      O20566   0.213   6.273   5.342
 6775WAT     H120567   0.272   6.247   5.266
 6775WAT     H220568   0.167   6.360   5.321
 6776WAT      O20569   0.863   1.707   4.626
 6776WAT     H120570   0.895   1.796   4.657
 6776WAT     H220571   0.886   1.637   4.694
 6777WAT      O20572   0.338   0.942   5.367
 6777WAT     H120573   0.412   1.006   5.347
 6777WAT     H220574   0.374   0.849   5.369
 6778WAT      O20575   7.519   2.356   6.768
 6778WAT     H120576   7.580   2.423   6.811
 6778WAT     H220577   7.467   2.401   6.695
 6779WAT      O20578   3.820   6.130   0.162
 6779WAT     H120579   3.894   6.116   0.096
 6779WAT     H220580   3.847   6.091   0.251
 6780WAT      O20581   3.446   3.264   6.586
 6780WAT     H120582   3.409   3.357   6.582
 6780WAT     H220583   3.410   3.210   6.510
 6781WAT      O20584   7.357   2.017   1.816
 6781WAT     H120585   7.427   2.001   1.746
 6781WAT     H220586   7.270   1.979   1.785
 6782WAT      O20587   6.171   1.412   4.967
 6782WAT     H120588   6.261   1.387   4.933
 6782WAT     H220589   6.156   1.370   5.057
 6783WAT      O20590   8.370   5.927   2.185
 6783WAT     H120591   8.307   5.916   2.261
 6783WAT     H220592   8.357   6.017   2.144
 6784WAT      O20593   4.759   2.847   2.261
 6784WAT     H120594   4.728   2.765   2.310
 6784WAT     H220595   4.693   2.921   2.276
 6785WAT      O20596   6.753   0.293   1.595
 6785WAT     H120597   6.684   0.301   1.523
 6785WAT     H220598   6.749   0.374   1.654
 6786WAT      O20599   8.618   3.138   9.189
 6786WAT     H120600   8.565   3.208   9.238
 6786WAT     H220601   8.716   3.156   9.200
 6787WAT      O20602   8.324   1.355   8.915
 6787WAT     H120603   8.406   1.408   8.895
 6787WAT     H220604   8.246   1.395   8.867
 6788WAT      O20605   4.190   0.892   1.403
 6788WAT     H120606   4.285   0.868   1.380
 6788WAT     H220607   4.128   0.838   1.347
 6789WAT      O20608   8.417   2.172   1.976
 6789WAT     H120609   8.329   2.125   1.978
 6789WAT     H220610   8.459   2.167   2.066
 6790WAT      O20611   9.862   7.548   1.624
 6790WAT     H120612   9.826   7.618   1.686
 6790WAT     H220613   9.868   7.586   1.531
 6791WAT      O20614   3.138   8.519   5.877
 6791WAT     H120615   3.174   8.585   5.942
 6791WAT     H220616   3.087   8.567   5.805
 6792WAT      O20617   9.432   3.122   0.245
 6792WAT     H120618   9.351   3.159   0.200
 6792WAT     H220619   9.463   3.040   0.197
 6793WAT      O20620   5.639   5.312   2.380
 6793WAT     H120621   5.584   5.322   2.464
 6793WAT     H220622   5.735   5.330   2.401
 6794WAT      O20623   0.134   9.006   0.576
 6794WAT     H120624   0.137   8.950   0.658
 6794WAT     H220625   0.176   8.957   0.500
 6795WAT      O20626   2.858   3.569   8.833
 6795WAT     H120627   2.821   3.493   8.780
 6795WAT     H220628   2.958   3.569   8.826
 6796WAT      O20629   6.375   4.287   8.366
 6796WAT     H120630   6.375   4.288   8.466
 6796WAT     H220631   6.431   4.212   8.333
 6797WAT      O20632   7.775   2.031   6.546
 6797WAT     H120633   7.707   1.959   6.556
 6797WAT     H220634   7.729   2.118   6.528
 6798WAT      O20635   4.265   0.720   4.681
 6798WAT     H120636   4.331   0.665   4.732
 6798WAT     H220637   4.222   0.665   4.610
 6799WAT      O20638   9.774   6.438   4.394
 6799WAT     H120639   9.869   6.446   4.363
 6799WAT     H220640   9.715   6.495   4.337
 6800WAT      O20641   7.217   6.995   5.889
 6800WAT     H120642   7.291   7.020   5.826
 6800WAT     H220643   7.187   7.077   5.938
 6801WAT      O20644   9.417   1.895   5.026
 6801WAT     H120645   9.412   1.995   5.025
 6801WAT     H220646   9.325   1.857   5.016
 6802WAT      O20647   0.517   8.957   6.456
 6802WAT     H120648   0.501   8.909   6.542
 6802WAT     H220649   0.432   8.962   6.403
 6803WAT      O20650   6.200   5.021   4.453
 6803WAT     H120651   6.134   5.081   4.409
 6803WAT     H220652   6.175   5.007   4.549
 6804WAT      O20653   7.607   3.209   8.594
 6804WAT     H120654   7.532   3.187   8.531
 6804WAT     H220655   7.661   3.283   8.556
 6805WAT      O20656   1.262   0.496   5.836
 6805WAT     H120657   1.217   0.447   5.762
 6805WAT     H220658   1.193   0.540   5.894
 6806WAT      O20659   0.089   1.216   6.509
 6806WAT     H120660   0.045   1.262   6.586
 6806WAT     H220661   0.056   1.254   6.423
 6807WAT      O20662   0.998   5.631   2.056
 6807WAT     H120663   0.965   5.667   1.969
 6807WAT     H220664   1.086   5.674   2.078
 6808WAT      O20665   1.426   0.793   0.984
 6808WAT     H120666   1.398   0.888   1.000
 6808WAT     H220667   1.427   0.776   0.885
 6809WAT      O20668   5.434   8.672   1.053
 6809WAT     H120669   5.500   8.738   1.089
 6809WAT     H220670   5.426   8.595   1.116
 6810WAT      O20671   7.626   3.445   1.746
 6810WAT     H120672   7.598   3.418   1.838
 6810WAT     H220673   7.726   3.443   1.739
 6811WAT      O20674   1.887   7.027   9.066
 6811WAT     H120675   1.838   7.049   9.150
 6811WAT     H220676   1.823   6.990   8.999
 6812WAT      O20677   3.949   2.377   2.683
 6812WAT     H120678   3.885   2.434   2.733
 6812WAT     H220679   3.902   2.332   2.607
 6813WAT      O20680   5.406   2.536   3.075
 6813WAT     H120681   5.453   2.609   3.025
 6813WAT     H220682   5.460   2.509   3.154
 6814WAT      O20683   2.408   8.620   3.750
 6814WAT     H120684   2.464   8.661   3.822
 6814WAT     H220685   2.329   8.576   3.792
 6815WAT      O20686   6.330   2.775   7.436
 6815WAT     H120687   6.235   2.758   7.461
 6815WAT     H220688   6.343   2.759   7.338
 6816WAT      O20689   1.380   1.478   1.089
 6816WAT     H120690   1.385   1.575   1.062
 6816WAT     H220691   1.286   1.454   1.110
 6817WAT      O20692   7.856   5.902   4.167
 6817WAT     H120693   7.775   5.939   4.213
 6817WAT     H220694   7.913   5.978   4.135
 6818WAT      O20695   9.459   6.175   8.194
 6818WAT     H120696   9.376   6.203   8.242
 6818WAT     H220697   9.461   6.219   8.104
 6819WAT      O20698   7.847   7.100   6.777
 6819WAT     H120699   7.882   7.088   6.869
 6819WAT     H220700   7.772   7.036   6.760
 6820WAT      O20701   3.939   4.322   0.301
 6820WAT     H120702   3.963   4.412   0.338
 6820WAT     H220703   4.007   4.295   0.233
 6821WAT      O20704   2.309   8.135   0.976
 6821WAT     H120705   2.218   8.172   0.962
 6821WAT     H220706   2.336   8.081   0.896
 6822WAT      O20707   1.280   6.384   0.886
 6822WAT     H120708   1.214   6.310   0.894
 6822WAT     H220709   1.367   6.356   0.925
 6823WAT      O20710   7.222   0.706   7.762
 6823WAT     H120711   7.241   0.616   7.724
 6823WAT     H220712   7.221   0.774   7.689
 6824WAT      O20713   4.386   3.603   3.361
 6824WAT     H120714   4.296   3.647   3.359
 6824WAT     H220715   4.386   3.524   3.300
 6825WAT      O20716   7.095   9.169   0.698
 6825WAT     H120717   7.122   9.261   0.672
 6825WAT     H220718   7.066   9.168   0.794
 6826WAT      O20719   3.016   4.053   7.652
 6826WAT     H120720   2.950   4.016   7.587
 6826WAT     H220721   2.976   4.130   7.701
 6827WAT      O20722   1.261   5.412   5.510
 6827WAT     H120723   1.238   5.369   5.597
 6827WAT     H220724   1.359   5.401   5.493
 6828WAT      O20725   2.450   0.405   0.145
 6828WAT     H120726   2.422   0.358   0.061
 6828WAT     H220727   2.371   0.453   0.184
 6829WAT      O20728   1.400   0.242   8.618
 6829WAT     H120729   1.451   0.193   8.689
 6829WAT     H220730   1.305   0.254   8.647
 6830WAT      O20731   2.068   1.951   8.885
 6830WAT     H120732   2.114   1.879   8.936
 6830WAT     H220733   1.977   1.966   8.923
 6831WAT      O20734   4.641   1.342   9.215
 6831WAT     H120735   4.605   1.310   9.302
 6831WAT     H220736   4.679   1.264   9.164
 6832WAT      O20737   1.578   1.484   6.845
 6832WAT     H120738   1.504   1.550   6.832
 6832WAT     H220739   1.618   1.459   6.757
 6833WAT      O20740   0.834   7.660   6.112
 6833WAT     H120741   0.821   7.728   6.039
 6833WAT     H220742   0.747   7.617   6.133
 6834WAT      O20743   6.329   7.320   0.321
 6834WAT     H120744   6.312   7.224   0.343
 6834WAT     H220745   6.424   7.332   0.293
 6835WAT      O20746   2.794   0.906   0.721
 6835WAT     H120747   2.886   0.947   0.716
 6835WAT     H220748   2.793   0.821   0.670
 6836WAT      O20749   0.588   3.810   5.306
 6836WAT     H120750   0.623   3.743   5.372
 6836WAT     H220751   0.492   3.829   5.325
 6837WAT      O20752   1.384   1.728   2.131
 6837WAT     H120753   1.389   1.759   2.036
 6837WAT     H220754   1.435   1.791   2.189
 6838WAT      O20755   8.750   9.354   6.408
 6838WAT     H120756   8.688   9.291   6.456
 6838WAT     H220757   8.702   9.439   6.388
 6839WAT      O20758   2.476   5.124   6.570
 6839WAT     H120759   2.453   5.030   6.596
 6839WAT     H220760   2.425   5.149   6.488
 6840WAT      O20761   4.952   5.697   7.149
 6840WAT     H120762   4.890   5.730   7.078
 6840WAT     H220763   5.001   5.617   7.115
 6841WAT      O20764   3.744   3.156   0.459
 6841WAT     H120765   3.833   3.141   0.416
 6841WAT     H220766   3.757   3.195   0.550
 6842WAT      O20767   6.862   5.578   4.063
 6842WAT     H120768   6.908   5.633   4.133
 6842WAT     H220769   6.786   5.528   4.105
 6843WAT      O20770   7.028   4.403   8.076
 6843WAT     H120771   7.043   4.462   7.996
 6843WAT     H220772   6.938   4.423   8.115
 6844WAT      O20773   5.553   0.795   6.020
 6844WAT     H120774   5.522   0.888   6.040
 6844WAT     H220775   5.485   0.730   6.054
 6845WAT      O20776   2.968   2.401   7.554
 6845WAT     H120777   2.955   2.303   7.559
 6845WAT     H220778   3.042   2.422   7.490
 6846WAT      O20779   2.076   5.113   8.874
 6846WAT     H120780   2.111   5.097   8.966
 6846WAT     H220781   2.112   5.044   8.811
 6847WAT      O20782   7.329   6.702   3.283
 6847WAT     H120783   7.389   6.780   3.294
 6847WAT     H220784   7.328   6.673   3.187
 6848WAT      O20785   7.778   9.742   5.869
 6848WAT     H120786   7.848   9.699   5.811
 6848WAT     H220787   7.726   9.670   5.916
 6849WAT      O20788   4.346   7.041   3.975
 6849WAT     H120789   4.337   6.999   4.065
 6849WAT     H220790   4.261   7.028   3.923
 6850WAT      O20791   0.143   4.692   3.629
 6850WAT     H120792   0.183   4.692   3.537
 6850WAT     H220793   0.062   4.751   3.629
 6851WAT      O20794   1.746   7.514   5.348
 6851WAT     H120795   1.649   7.518   5.370
 6851WAT     H220796   1.761   7.553   5.257
 6852WAT      O20797   4.895   8.094   0.090
 6852WAT     H120798   4.925   8.004   0.061
 6852WAT     H220799   4.969   8.160   0.076
 6853WAT      O20800   3.635   5.679   7.229
 6853WAT     H120801   3.612   5.755   7.168
 6853WAT     H220802   3.653   5.597   7.174
 6854WAT      O20803   1.510   3.007   4.831
 6854WAT     H120804   1.531   3.031   4.736
 6854WAT     H220805   1.455   2.923   4.832
 6855WAT      O20806   3.538   7.779   9.352
 6855WAT     H120807   3.516   7.717   9.427
 6855WAT     H220808   3.471   7.854   9.351
 6856WAT      O20809   5.044   2.466   5.761
 6856WAT     H120810   4.945   2.483   5.761
 6856WAT     H220811   5.061   2.368   5.769
 6857WAT      O20812   6.536   9.547   5.434
 6857WAT     H120813   6.476   9.485   5.484
 6857WAT     H220814   6.570   9.502   5.351
 6858WAT      O20815   0.863   6.237   4.064
 6858WAT     H120816   0.809   6.195   3.991
 6858WAT     H220817   0.955   6.257   4.030
 6859WAT      O20818   3.606   0.260   3.934
 6859WAT     H120819   3.655   0.343   3.908
 6859WAT     H220820   3.650   0.219   4.014
 6860WAT      O20821   6.807   5.958   3.902
 6860WAT     H120822   6.787   5.951   4.000
 6860WAT     H220823   6.848   5.873   3.870
 6861WAT      O20824   8.192   2.892   4.669
 6861WAT     H120825   8.263   2.934   4.725
 6861WAT     H220826   8.186   2.794   4.691
 6862WAT      O20827   8.430   2.611   1.345
 6862WAT     H120828   8.332   2.593   1.339
 6862WAT     H220829   8.470   2.557   1.419
 6863WAT      O20830   3.203   4.676   4.314
 6863WAT     H120831   3.248   4.726   4.240
 6863WAT     H220832   3.157   4.595   4.277
 6864WAT      O20833   1.699   5.942   8.885
 6864WAT     H120834   1.775   5.937   8.950
 6864WAT     H220835   1.734   5.931   8.792
 6865WAT      O20836   7.196   2.291   5.601
 6865WAT     H120837   7.217   2.386   5.624
 6865WAT     H220838   7.140   2.287   5.519
 6866WAT      O20839   0.260   1.750   6.848
 6866WAT     H120840   0.281   1.848   6.837
 6866WAT     H220841   0.223   1.734   6.940
 6867WAT      O20842   8.320   1.691   3.239
 6867WAT     H120843   8.357   1.675   3.330
 6867WAT     H220844   8.220   1.684   3.241
 6868WAT      O20845   5.746   5.379   1.304
 6868WAT     H120846   5.826   5.384   1.245
 6868WAT     H220847   5.775   5.357   1.398
 6869WAT      O20848   7.896   9.403   0.312
 6869WAT     H120849   7.805   9.445   0.308
 6869WAT     H220850   7.941   9.414   0.223
 6870WAT      O20851   6.017   9.209   1.522
 6870WAT     H120852   6.075   9.235   1.599
 6870WAT     H220853   6.056   9.246   1.437
 6871WAT      O20854   1.434   3.910   8.843
 6871WAT     H120855   1.533   3.911   8.852
 6871WAT     H220856   1.397   3.828   8.887
 6872WAT      O20857   9.811   4.133   4.692
 6872WAT     H120858   9.878   4.207   4.683
 6872WAT     H220859   9.757   4.126   4.609
 6873WAT      O20860   3.083   5.586   6.217
 6873WAT     H120861   3.107   5.585   6.315
 6873WAT     H220862   3.016   5.658   6.200
 6874WAT      O20863   3.275   5.979   6.970
 6874WAT     H120864   3.285   5.957   6.873
 6874WAT     H220865   3.359   5.956   7.019
 6875WAT      O20866   6.664   8.026   3.102
 6875WAT     H120867   6.591   8.084   3.065
 6875WAT     H220868   6.701   8.068   3.184
 6876WAT      O20869   0.419   8.360   5.909
 6876WAT     H120870   0.426   8.455   5.878
 6876WAT     H220871   0.348   8.354   5.979
 6877WAT      O20872   8.161   7.189   2.634
 6877WAT     H120873   8.248   7.181   2.586
 6877WAT     H220874   8.157   7.276   2.684
 6878WAT      O20875   4.268   0.927   4.343
 6878WAT     H120876   4.339   0.987   4.307
 6878WAT     H220877   4.193   0.983   4.380
 6879WAT      O20878   0.011   5.493   1.479
 6879WAT     H120879   0.024   5.410   1.425
 6879WAT     H220880  -0.067   5.544   1.442
 6880WAT      O20881   6.215   9.006   2.862
 6880WAT     H120882   6.287   9.021   2.795
 6880WAT     H220883   6.243   9.043   2.950
 6881WAT      O20884   7.312   0.156   9.612
 6881WAT     H120885   7.368   0.235   9.585
 6881WAT     H220886   7.305   0.152   9.712
 6882WAT      O20887   0.647   9.087   0.892
 6882WAT     H120888   0.638   9.024   0.969
 6882WAT     H220889   0.563   9.086   0.838
 6883WAT      O20890   5.507   5.493   9.589
 6883WAT     H120891   5.455   5.494   9.503
 6883WAT     H220892   5.467   5.559   9.652
 6884WAT      O20893   7.601   0.848   0.343
 6884WAT     H120894   7.641   0.924   0.395
 6884WAT     H220895   7.502   0.858   0.340
 6885WAT      O20896   4.148   8.310   2.666
 6885WAT     H120897   4.048   8.310   2.660
 6885WAT     H220898   4.179   8.392   2.714
 6886WAT      O20899   9.626   3.121   7.258
 6886WAT     H120900   9.698   3.061   7.295
 6886WAT     H220901   9.566   3.150   7.333
 6887WAT      O20902   1.554   3.555   7.033
 6887WAT     H120903   1.501   3.471   7.031
 6887WAT     H220904   1.564   3.586   7.128
 6888WAT      O20905   0.604   7.425   8.418
 6888WAT     H120906   0.638   7.511   8.455
 6888WAT     H220907   0.546   7.380   8.486
 6889WAT      O20908   7.011   1.967   8.469
 6889WAT     H120909   7.101   1.953   8.509
 6889WAT     H220910   7.015   2.046   8.407
 6890WAT      O20911   5.448   6.130   2.324
 6890WAT     H120912   5.513   6.078   2.269
 6890WAT     H220913   5.362   6.140   2.274
 6891WAT      O20914   8.611   9.340   2.273
 6891WAT     H120915   8.666   9.263   2.240
 6891WAT     H220916   8.672   9.414   2.304
 6892WAT      O20917   9.824   7.672   8.619
 6892WAT     H120918   9.888   7.596   8.609
 6892WAT     H220919   9.754   7.649   8.686
 6893WAT      O20920   9.110   0.286   1.304
 6893WAT     H120921   9.031   0.252   1.355
 6893WAT     H220922   9.093   0.379   1.273
 6894WAT      O20923   5.092   1.696   1.931
 6894WAT     H120924   5.186   1.664   1.939
 6894WAT     H220925   5.087   1.769   1.863
 6895WAT      O20926   8.483   8.197   4.479
 6895WAT     H120927   8.529   8.167   4.396
 6895WAT     H220928   8.537   8.171   4.559
 6896WAT      O20929   0.270   8.414   3.370
 6896WAT     H120930   0.213   8.495   3.384
 6896WAT     H220931   0.350   8.419   3.429
 6897WAT      O20932   3.187   8.956   9.128
 6897WAT     H120933   3.207   9.052   9.106
 6897WAT     H220934   3.143   8.952   9.218
 6898WAT      O20935   5.121   1.719   7.683
 6898WAT     H120936   5.108   1.658   7.761
 6898WAT     H220937   5.106   1.814   7.712
 6899WAT      O20938   2.483   0.918   6.507
 6899WAT     H120939   2.469   0.931   6.605
 6899WAT     H220940   2.540   0.992   6.472
 6900WAT      O20941   2.722   5.517   0.620
 6900WAT     H120942   2.633   5.495   0.661
 6900WAT     H220943   2.736   5.616   0.621
 6901WAT      O20944   5.944   3.403   9.611
 6901WAT     H120945   5.902   3.359   9.691
 6901WAT     H220946   6.023   3.456   9.641
 6902WAT      O20947   1.692   2.771   4.969
 6902WAT     H120948   1.638   2.722   4.900
 6902WAT     H220949   1.751   2.707   5.017
 6903WAT      O20950   6.278   0.897   9.759
 6903WAT     H120951   6.258   0.918   9.855
 6903WAT     H220952   6.253   0.974   9.702
 6904WAT      O20953   3.496   2.096   6.791
 6904WAT     H120954   3.560   2.167   6.819
 6904WAT     H220955   3.502   2.082   6.692
 6905WAT      O20956   0.552   0.569   9.150
 6905WAT     H120957   0.597   0.540   9.065
 6905WAT     H220958   0.511   0.660   9.137
 6906WAT      O20959   5.813   3.524   6.686
 6906WAT     H120960   5.715   3.519   6.703
 6906WAT     H220961   5.860   3.557   6.768
 6907WAT      O20962   1.077   4.403   7.593
 6907WAT     H120963   1.085   4.502   7.600
 6907WAT     H220964   1.077   4.376   7.497
 6908WAT      O20965   2.326   3.974   3.343
 6908WAT     H120966   2.285   4.063   3.364
 6908WAT     H220967   2.254   3.909   3.319
 6909WAT      O20968   8.975   3.429   5.167
 6909WAT     H120969   8.906   3.369   5.126
 6909WAT     H220970   9.059   3.378   5.182
 6910WAT      O20971   7.886   1.352   2.493
 6910WAT     H120972   7.801   1.304   2.516
 6910WAT     H220973   7.873   1.405   2.410
 6911WAT      O20974   8.548   0.638   4.091
 6911WAT     H120975   8.479   0.705   4.122
 6911WAT     H220976   8.513   0.546   4.104
 6912WAT      O20977   5.166   5.590   7.867
 6912WAT     H120978   5.225   5.635   7.800
 6912WAT     H220979   5.143   5.498   7.834
 6913WAT      O20980   4.205   4.634   3.837
 6913WAT     H120981   4.302   4.633   3.862
 6913WAT     H220982   4.163   4.719   3.868
 6914WAT      O20983   3.416   1.846   6.435
 6914WAT     H120984   3.435   1.777   6.505
 6914WAT     H220985   3.468   1.823   6.352
 6915WAT      O20986   1.870   4.179   1.903
 6915WAT     H120987   1.944   4.207   1.840
 6915WAT     H220988   1.863   4.245   1.977
 6916WAT      O20989   2.536   5.576   4.771
 6916WAT     H120990   2.634   5.576   4.752
 6916WAT     H220991   2.510   5.664   4.811
 6917WAT      O20992   3.156   4.143   3.842
 6917WAT     H120993   3.173   4.172   3.936
 6917WAT     H220994   3.063   4.168   3.816
 6918WAT      O20995   3.618   1.636   3.616
 6918WAT     H120996   3.714   1.661   3.602
 6918WAT     H220997   3.611   1.575   3.694
 6919WAT      O20998   1.407   8.966   2.270
 6919WAT     H120999   1.316   9.000   2.246
 6919WAT     H221000   1.438   8.903   2.200
 6920WAT      O21001   2.354   8.526   6.947
 6920WAT     H121002   2.437   8.473   6.962
 6920WAT     H221003   2.348   8.599   7.015
 6921WAT      O21004   7.684   2.502   5.350
 6921WAT     H121005   7.694   2.588   5.299
 6921WAT     H221006   7.687   2.521   5.448
 6922WAT      O21007   7.924   2.459   6.095
 6922WAT     H121008   7.978   2.515   6.032
 6922WAT     H221009   7.896   2.374   6.049
 6923WAT      O21010   6.859   1.925   0.800
 6923WAT     H121011   6.799   1.844   0.803
 6923WAT     H221012   6.919   1.924   0.880
 6924WAT      O21013   1.616   7.041   7.226
 6924WAT     H121014   1.688   7.014   7.290
 6924WAT     H221015   1.527   7.014   7.263
 6925WAT      O21016   2.496   7.078   3.578
 6925WAT     H121017   2.585   7.118   3.553
 6925WAT     H221018   2.462   7.121   3.661
 6926WAT      O21019   4.451   1.244   1.119
 6926WAT     H121020   4.511   1.303   1.172
 6926WAT     H221021   4.505   1.168   1.081
 6927WAT      O21022   2.880   7.390   5.379
 6927WAT     H121023   2.929   7.345   5.453
 6927WAT     H221024   2.932   7.470   5.349
 6928WAT      O21025   1.104   3.564   2.087
 6928WAT     H121026   1.173   3.549   2.157
 6928WAT     H221027   1.091   3.662   2.072
 6929WAT      O21028   3.096   3.485   7.993
 6929WAT     H121029   3.085   3.490   7.894
 6929WAT     H221030   3.112   3.577   8.029
 6930WAT      O21031   5.007   1.712   8.109
 6930WAT     H121032   4.961   1.795   8.078
 6930WAT     H221033   5.045   1.664   8.030
 6931WAT      O21034   4.311   6.807   2.556
 6931WAT     H121035   4.348   6.722   2.519
 6931WAT     H221036   4.231   6.787   2.613
 6932WAT      O21037   9.801   8.910   3.968
 6932WAT     H121038   9.846   8.880   3.883
 6932WAT     H221039   9.817   9.007   3.982
 6933WAT      O21040   7.163   4.174   4.394
 6933WAT     H121041   7.220   4.214   4.322
 6933WAT     H221042   7.138   4.245   4.460
 6934WAT      O21043   6.725   9.597   2.015
 6934WAT     H121044   6.628   9.601   1.994
 6934WAT     H221045   6.745   9.513   2.066
 6935WAT      O21046   5.797   0.300   5.975
 6935WAT     H121047   5.851   0.370   5.928
 6935WAT     H221048   5.840   0.211   5.963
 6936WAT      O21049   0.580   2.657   9.849
 6936WAT     H121050   0.644   2.686   9.778
 6936WAT     H221051   0.487   2.682   9.822
 6937WAT      O21052   3.542   8.423   4.293
 6937WAT     H121053   3.455   8.419   4.342
 6937WAT     H221054   3.573   8.330   4.272
 6938WAT      O21055   7.615   4.468   2.582
 6938WAT     H121056   7.573   4.380   2.601
 6938WAT     H221057   7.714   4.459   2.582
 6939WAT      O21058   9.605   8.190   3.547
 6939WAT     H121059   9.511   8.159   3.534
 6939WAT     H221060   9.648   8.135   3.619
 6940WAT      O21061   4.951   0.950   7.527
 6940WAT     H121062   4.865   0.908   7.500
 6940WAT     H221063   4.991   0.898   7.603
 6941WAT      O21064   1.295   5.101   8.133
 6941WAT     H121065   1.278   5.034   8.061
 6941WAT     H221066   1.353   5.060   8.204
 6942WAT      O21067   6.922   9.065   4.449
 6942WAT     H121068   7.005   9.014   4.426
 6942WAT     H221069   6.944   9.132   4.521
 6943WAT      O21070   9.278   8.527   6.496
 6943WAT     H121071   9.352   8.580   6.454
 6943WAT     H221072   9.284   8.432   6.467
 6944WAT      O21073   0.569   8.141   6.569
 6944WAT     H121074   0.536   8.047   6.567
 6944WAT     H221075   0.619   8.160   6.485
 6945WAT      O21076   8.232   0.695   3.336
 6945WAT     H121077   8.210   0.753   3.257
 6945WAT     H221078   8.158   0.629   3.351
 6946WAT      O21079   9.347   2.616   4.632
 6946WAT     H121080   9.439   2.652   4.646
 6946WAT     H221081   9.353   2.531   4.579
 6947WAT      O21082   8.450   0.686   0.055
 6947WAT     H121083   8.438   0.656   0.150
 6947WAT     H221084   8.488   0.778   0.054
 6948WAT      O21085   5.136   0.972   1.014
 6948WAT     H121086   5.138   1.069   0.988
 6948WAT     H221087   5.190   0.958   1.097
 6949WAT      O21088   6.146   6.677   7.527
 6949WAT     H121089   6.182   6.760   7.484
 6949WAT     H221090   6.055   6.656   7.490
 6950WAT      O21091   2.942   5.460   9.843
 6950WAT     H121092   2.847   5.468   9.815
 6950WAT     H221093   2.995   5.537   9.808
 6951WAT      O21094   4.626   0.696   7.583
 6951WAT     H121095   4.685   0.733   7.655
 6951WAT     H221096   4.651   0.737   7.496
 6952WAT      O21097   6.883   1.397   3.440
 6952WAT     H121098   6.892   1.469   3.509
 6952WAT     H221099   6.936   1.317   3.467
 6953WAT      O21100   2.615   1.673   5.354
 6953WAT     H121101   2.534   1.616   5.356
 6953WAT     H221102   2.607   1.745   5.423
 6954WAT      O21103   3.602   3.625   7.301
 6954WAT     H121104   3.621   3.716   7.262
 6954WAT     H221105   3.686   3.572   7.303
 6955WAT      O21106   0.598   4.635   2.003
 6955WAT     H121107   0.629   4.663   1.912
 6955WAT     H221108   0.509   4.676   2.022
 6956WAT      O21109   3.751   6.180   2.573
 6956WAT     H121110   3.747   6.108   2.503
 6956WAT     H221111   3.844   6.189   2.607
 6957WAT      O21112   1.099   9.391   9.634
 6957WAT     H121113   1.170   9.461   9.634
 6957WAT     H221114   1.010   9.433   9.619
 6958WAT      O21115   3.944   3.590   3.932
 6958WAT     H121116   4.003   3.510   3.919
 6958WAT     H221117   3.848   3.562   3.933
 6959WAT      O21118   6.237   5.626   3.971
 6959WAT     H121119   6.190   5.538   3.969
 6959WAT     H221120   6.317   5.620   4.031
 6960WAT      O21121   5.933   0.310   5.263
 6960WAT     H121122   6.019   0.329   5.309
 6960WAT     H221123   5.949   0.252   5.183
 6961WAT      O21124   2.922   2.286   7.920
 6961WAT     H121125   3.004   2.310   7.868
 6961WAT     H221126   2.889   2.367   7.969
 6962WAT      O21127   7.934   0.948   6.713
 6962WAT     H121128   7.945   0.929   6.811
 6962WAT     H221129   8.000   0.894   6.661
 6963WAT      O21130   1.472   5.844   5.219
 6963WAT     H121131   1.380   5.860   5.256
 6963WAT     H221132   1.465   5.821   5.122
 6964WAT      O21133   2.224   5.300   2.546
 6964WAT     H121134   2.296   5.370   2.544
 6964WAT     H221135   2.261   5.215   2.582
 6965WAT      O21136   6.994   6.260   1.191
 6965WAT     H121137   6.952   6.205   1.263
 6965WAT     H221138   6.927   6.325   1.155
 6966WAT      O21139   7.193   7.233   6.231
 6966WAT     H121140   7.193   7.260   6.135
 6966WAT     H221141   7.128   7.159   6.245
 6967WAT      O21142   3.884   1.855   6.155
 6967WAT     H121143   3.965   1.841   6.212
 6967WAT     H221144   3.889   1.945   6.112
 6968WAT      O21145   9.611   8.819   8.292
 6968WAT     H121146   9.640   8.904   8.337
 6968WAT     H221147   9.514   8.802   8.312
 6969WAT      O21148   5.127   2.072   8.268
 6969WAT     H121149   5.156   2.041   8.178
 6969WAT     H221150   5.169   2.160   8.288
 6970WAT      O21151   4.822   0.269   5.552
 6970WAT     H121152   4.871   0.354   5.572
 6970WAT     H221153   4.885   0.192   5.561
 6971WAT      O21154   9.203   3.366   7.028
 6971WAT     H121155   9.295   3.374   7.066
 6971WAT     H221156   9.163   3.457   7.019
 6972WAT      O21157   7.288   3.763   6.873
 6972WAT     H121158   7.388   3.756   6.873
 6972WAT     H221159   7.247   3.673   6.861
 6973WAT      O21160   5.150   7.124   5.486
 6973WAT     H121161   5.057   7.110   5.454
 6973WAT     H221162   5.189   7.035   5.513
 6974WAT      O21163   7.239   0.777   6.860
 6974WAT     H121164   7.177   0.838   6.812
 6974WAT     H221165   7.272   0.821   6.943
 6975WAT      O21166   4.655   6.554   7.733
 6975WAT     H121167   4.735   6.567   7.792
 6975WAT     H221168   4.634   6.640   7.685
 6976WAT      O21169   2.476   8.495   6.457
 6976WAT     H121170   2.540   8.418   6.463
 6976WAT     H221171   2.406   8.486   6.528
 6977WAT      O21172   3.198   2.596   1.278
 6977WAT     H121173   3.168   2.651   1.200
 6977WAT     H221174   3.298   2.599   1.284
 6978WAT      O21175   0.759   8.774   3.652
 6978WAT     H121176   0.824   8.850   3.654
 6978WAT     H221177   0.697   8.782   3.731
 6979WAT      O21178   0.734   3.590   4.358
 6979WAT     H121179   0.712   3.506   4.309
 6979WAT     H221180   0.786   3.651   4.298
 6980WAT      O21181   8.671   7.416   9.277
 6980WAT     H121182   8.770   7.401   9.274
 6980WAT     H221183   8.647   7.469   9.358
 6981WAT      O21184   5.210   1.272   9.164
 6981WAT     H121185   5.177   1.181   9.140
 6981WAT     H221186   5.171   1.299   9.252
 6982WAT      O21187   9.243   1.049   8.000
 6982WAT     H121188   9.239   1.021   8.096
 6982WAT     H221189   9.238   0.968   7.942
 6983WAT      O21190   2.718   4.140   9.523
 6983WAT     H121191   2.749   4.088   9.444
 6983WAT     H221192   2.700   4.078   9.599
 6984WAT      O21193   5.313   6.982   2.208
 6984WAT     H121194   5.254   6.958   2.131
 6984WAT     H221195   5.376   7.055   2.180
 6985WAT      O21196   9.306   8.818   8.962
 6985WAT     H121197   9.206   8.820   8.960
 6985WAT     H221198   9.339   8.740   8.908
 6986WAT      O21199   0.718   4.642   5.965
 6986WAT     H121200   0.719   4.742   5.964
 6986WAT     H221201   0.745   4.607   5.875
 6987WAT      O21202   6.018   6.497   6.676
 6987WAT     H121203   6.010   6.556   6.596
 6987WAT     H221204   5.993   6.403   6.651
 6988WAT      O21205   1.009   5.010   4.152
 6988WAT     H121206   1.097   4.963   4.165
 6988WAT     H221207   0.935   4.944   4.155
 6989WAT      O21208   0.763   1.606   0.466
 6989WAT     H121209   0.755   1.690   0.412
 6989WAT     H221210   0.709   1.534   0.423
 6990WAT      O21211   5.721   8.105   9.866
 6990WAT     H121212   5.638   8.134   9.913
 6990WAT     H221213   5.713   8.009   9.840
 6991WAT      O21214   4.606   8.795   0.160
 6991WAT     H121215   4.552   8.855   0.219
 6991WAT     H221216   4.551   8.766   0.082
 6992WAT      O21217   0.687   3.351   4.228
 6992WAT     H121218   0.645   3.274   4.276
 6992WAT     H221219   0.668   3.344   4.130
 6993WAT      O21220   4.752   9.173   6.527
 6993WAT     H121221   4.791   9.180   6.619
 6993WAT     H221222   4.818   9.128   6.466
 6994WAT      O21223   3.653   4.763   6.708
 6994WAT     H121224   3.614   4.719   6.627
 6994WAT     H221225   3.669   4.695   6.779
 6995WAT      O21226   6.250   1.874   8.214
 6995WAT     H121227   6.187   1.797   8.218
 6995WAT     H221228   6.295   1.876   8.125
 6996WAT      O21229   4.696   1.443   7.646
 6996WAT     H121230   4.758   1.452   7.568
 6996WAT     H221231   4.656   1.351   7.646
 6997WAT      O21232   8.504   6.669   1.913
 6997WAT     H121233   8.538   6.586   1.869
 6997WAT     H221234   8.574   6.740   1.910
 6998WAT      O21235   0.779   4.761   8.791
 6998WAT     H121236   0.728   4.826   8.735
 6998WAT     H221237   0.724   4.679   8.806
 6999WAT      O21238   2.176   7.782   0.784
 6999WAT     H121239   2.094   7.780   0.842
 6999WAT     H221240   2.157   7.837   0.703
 7000WAT      O21241   4.012   7.430   2.373
 7000WAT     H121242   4.034   7.453   2.278
 7000WAT     H221243   4.023   7.332   2.388
 7001WAT      O21244   3.821   1.226   1.578
 7001WAT     H121245   3.839   1.275   1.663
 7001WAT     H221246   3.898   1.165   1.558
 7002WAT      O21247   4.853   7.709   3.360
 7002WAT     H121248   4.823   7.804   3.347
 7002WAT     H221249   4.953   7.705   3.354
 7003WAT      O21250   5.072   8.193   9.773
 7003WAT     H121251   5.025   8.182   9.685
 7003WAT     H221252   5.110   8.105   9.801
 7004WAT      O21253   2.622   4.038   8.872
 7004WAT     H121254   2.615   4.097   8.953
 7004WAT     H221255   2.701   3.978   8.881
 7005WAT      O21256   5.339   3.044   6.368
 7005WAT     H121257   5.364   2.948   6.383
 7005WAT     H221258   5.398   3.103   6.424
 7006WAT      O21259   2.111   4.205   0.320
 7006WAT     H121260   2.055   4.151   0.257
 7006WAT     H221261   2.052   4.263   0.375
 7007WAT      O21262   0.955   1.704   5.154
 7007WAT     H121263   1.034   1.649   5.181
 7007WAT     H221264   0.986   1.782   5.099
 7008WAT      O21265   1.241   4.262   4.858
 7008WAT     H121266   1.202   4.209   4.782
 7008WAT     H221267   1.332   4.227   4.879
 7009WAT      O21268   2.621   1.626   2.623
 7009WAT     H121269   2.565   1.615   2.541
 7009WAT     H221270   2.646   1.722   2.634
 7010WAT      O21271   7.977   2.391   4.002
 7010WAT     H121272   8.007   2.474   3.953
 7010WAT     H221273   7.987   2.405   4.100
 7011WAT      O21274   2.745   5.222   6.079
 7011WAT     H121275   2.799   5.174   6.148
 7011WAT     H221276   2.663   5.169   6.057
 7012WAT      O21277   0.420   4.837   2.695
 7012WAT     H121278   0.495   4.776   2.671
 7012WAT     H221279   0.457   4.927   2.718
 7013WAT      O21280   0.475   5.052   8.902
 7013WAT     H121281   0.410   5.110   8.852
 7013WAT     H221282   0.550   5.107   8.937
 7014WAT      O21283   8.168   0.938   3.694
 7014WAT     H121284   8.132   1.029   3.715
 7014WAT     H221285   8.097   0.883   3.651
 7015WAT      O21286   5.504   3.108   1.819
 7015WAT     H121287   5.576   3.058   1.770
 7015WAT     H221288   5.468   3.051   1.893
 7016WAT      O21289   8.607   6.438   2.063
 7016WAT     H121290   8.575   6.441   1.968
 7016WAT     H221291   8.563   6.511   2.115
 7017WAT      O21292   2.872   5.329   8.194
 7017WAT     H121293   2.933   5.255   8.165
 7017WAT     H221294   2.777   5.300   8.183
 7018WAT      O21295   2.503   9.233   5.409
 7018WAT     H121296   2.403   9.232   5.413
 7018WAT     H221297   2.533   9.195   5.321
 7019WAT      O21298   7.656   2.205   6.227
 7019WAT     H121299   7.718   2.126   6.224
 7019WAT     H221300   7.633   2.226   6.322
 7020WAT      O21301   3.743   2.494   9.277
 7020WAT     H121302   3.668   2.486   9.343
 7020WAT     H221303   3.718   2.448   9.192
 7021WAT      O21304   9.702   4.637   4.467
 7021WAT     H121305   9.609   4.673   4.461
 7021WAT     H221306   9.710   4.576   4.546
 7022WAT      O21307   1.199   7.621   8.954
 7022WAT     H121308   1.227   7.716   8.944
 7022WAT     H221309   1.101   7.613   8.938
 7023WAT      O21310   2.246   7.741   8.058
 7023WAT     H121311   2.217   7.674   7.990
 7023WAT     H221312   2.346   7.750   8.055
 7024WAT      O21313   2.216   8.704   3.513
 7024WAT     H121314   2.220   8.627   3.577
 7024WAT     H221315   2.296   8.762   3.526
 7025WAT      O21316   1.666   3.801   5.409
 7025WAT     H121317   1.616   3.868   5.464
 7025WAT     H221318   1.764   3.818   5.416
 7026WAT      O21319   3.059   5.096   6.775
 7026WAT     H121320   3.034   5.002   6.751
 7026WAT     H221321   3.117   5.134   6.704
 7027WAT      O21322   5.131   6.620   6.539
 7027WAT     H121323   5.083   6.660   6.461
 7027WAT     H221324   5.149   6.692   6.607
 7028WAT      O21325   7.640   0.588   1.037
 7028WAT     H121326   7.737   0.595   1.015
 7028WAT     H221327   7.591   0.546   0.960
 7029WAT      O21328   2.744   9.219   8.710
 7029WAT     H121329   2.823   9.256   8.759
 7029WAT     H221330   2.758   9.121   8.694
 7030WAT      O21331   7.515   3.512   6.738
 7030WAT     H121332   7.495   3.604   6.771
 7030WAT     H221333   7.549   3.516   6.645
 7031WAT      O21334   0.607   7.623   4.835
 7031WAT     H121335   0.602   7.715   4.795
 7031WAT     H221336   0.623   7.631   4.934
 7032WAT      O21337   2.213   1.984   2.183
 7032WAT     H121338   2.157   2.059   2.147
 7032WAT     H221339   2.263   2.015   2.263
 7033WAT      O21340   0.617   6.631   3.645
 7033WAT     H121341   0.632   6.728   3.667
 7033WAT     H221342   0.519   6.614   3.637
 7034WAT      O21343   3.719   6.033   2.853
 7034WAT     H121344   3.688   6.126   2.873
 7034WAT     H221345   3.653   5.988   2.793
 7035WAT      O21346   1.571   8.652   9.059
 7035WAT     H121347   1.655   8.599   9.071
 7035WAT     H221348   1.493   8.597   9.086
 7036WAT      O21349   7.392   7.756   8.009
 7036WAT     H121350   7.479   7.730   8.051
 7036WAT     H221351   7.331   7.792   8.079
 7037WAT      O21352   6.097   0.200   5.052
 7037WAT     H121353   6.149   0.134   5.106
 7037WAT     H221354   6.056   0.154   4.973
 7038WAT      O21355   9.084   5.563   6.137
 7038WAT     H121356   9.055   5.567   6.042
 7038WAT     H221357   9.098   5.656   6.171
 7039WAT      O21358   4.857   1.261   8.799
 7039WAT     H121359   4.779   1.206   8.771
 7039WAT     H221360   4.935   1.201   8.816
 7040WAT      O21361   9.370   7.762   0.289
 7040WAT     H121362   9.380   7.786   0.193
 7040WAT     H221363   9.287   7.803   0.326
 7041WAT      O21364   2.597   4.477   4.541
 7041WAT     H121365   2.573   4.573   4.526
 7041WAT     H221366   2.532   4.437   4.606
 7042WAT      O21367   6.247   0.100   6.561
 7042WAT     H121368   6.239   0.032   6.634
 7042WAT     H221369   6.286   0.057   6.479
 7043WAT      O21370   3.430   5.374   3.666
 7043WAT     H121371   3.331   5.360   3.664
 7043WAT     H221372   3.454   5.434   3.742
 7044WAT      O21373   8.838   8.609   2.179
 7044WAT     H121374   8.866   8.658   2.262
 7044WAT     H221375   8.917   8.567   2.137
 7045WAT      O21376   6.774   3.610   5.633
 7045WAT     H121377   6.740   3.673   5.563
 7045WAT     H221378   6.703   3.543   5.655
 7046WAT      O21379   0.460   3.380   6.306
 7046WAT     H121380   0.428   3.449   6.241
 7046WAT     H221381   0.411   3.294   6.291
 7047WAT      O21382   9.464   5.381   3.910
 7047WAT     H121383   9.423   5.425   3.990
 7047WAT     H221384   9.554   5.421   3.892
 7048WAT      O21385   5.041   6.390   7.236
 7048WAT     H121386   5.070   6.362   7.144
 7048WAT     H221387   5.079   6.479   7.258
 7049WAT      O21388   4.277   0.515   3.014
 7049WAT     H121389   4.251   0.506   3.110
 7049WAT     H221390   4.299   0.610   2.994
 7050WAT      O21391   1.022   5.456   6.446
 7050WAT     H121392   0.941   5.491   6.400
 7050WAT     H221393   1.014   5.473   6.545
 7051WAT      O21394   4.334   9.508   3.372
 7051WAT     H121395   4.251   9.548   3.333
 7051WAT     H221396   4.378   9.450   3.304
 7052WAT      O21397   3.572   1.421   0.597
 7052WAT     H121398   3.655   1.379   0.635
 7052WAT     H221399   3.519   1.462   0.671
 7053WAT      O21400   5.566   7.614   1.469
 7053WAT     H121401   5.467   7.604   1.453
 7053WAT     H221402   5.616   7.571   1.395
 7054WAT      O21403   0.099   5.610   6.374
 7054WAT     H121404   0.082   5.669   6.453
 7054WAT     H221405   0.046   5.525   6.383
 7055WAT      O21406   1.287   4.712   0.139
 7055WAT     H121407   1.283   4.677   0.045
 7055WAT     H221408   1.222   4.662   0.196
 7056WAT      O21409   3.329   1.903   3.193
 7056WAT     H121410   3.328   2.002   3.200
 7056WAT     H221411   3.414   1.867   3.233
 7057WAT      O21412   2.142   1.088   1.648
 7057WAT     H121413   2.191   1.166   1.686
 7057WAT     H221414   2.085   1.118   1.572
 7058WAT      O21415   3.295   9.590   8.772
 7058WAT     H121416   3.280   9.614   8.676
 7058WAT     H221417   3.326   9.671   8.822
 7059WAT      O21418   9.782   9.533   4.056
 7059WAT     H121419   9.794   9.532   4.156
 7059WAT     H221420   9.871   9.519   4.012
 7060WAT      O21421   9.770   6.095   9.609
 7060WAT     H121422   9.676   6.072   9.582
 7060WAT     H221423   9.779   6.087   9.708
 7061WAT      O21424   6.892   3.569   1.987
 7061WAT     H121425   6.925   3.586   2.080
 7061WAT     H221426   6.798   3.600   1.979
 7062WAT      O21427   7.894   7.288   3.282
 7062WAT     H121428   7.946   7.203   3.284
 7062WAT     H221429   7.806   7.273   3.237
 7063WAT      O21430   4.754   4.229   2.731
 7063WAT     H121431   4.770   4.282   2.648
 7063WAT     H221432   4.656   4.223   2.749
 7064WAT      O21433   2.790   2.489   8.130
 7064WAT     H121434   2.761   2.580   8.099
 7064WAT     H221435   2.732   2.460   8.206
 7065WAT      O21436   0.735   5.960   2.113
 7065WAT     H121437   0.733   5.860   2.125
 7065WAT     H221438   0.799   5.983   2.040
 7066WAT      O21439   0.387   9.076   5.287
 7066WAT     H121440   0.337   9.062   5.373
 7066WAT     H221441   0.454   9.150   5.299
 7067WAT      O21442   1.095   7.636   0.455
 7067WAT     H121443   1.032   7.647   0.378
 7067WAT     H221444   1.167   7.705   0.450
 7068WAT      O21445   3.426   2.647   1.734
 7068WAT     H121446   3.522   2.677   1.742
 7068WAT     H221447   3.381   2.700   1.662
 7069WAT      O21448   7.949   3.798   6.278
 7069WAT     H121449   7.940   3.896   6.261
 7069WAT     H221450   7.916   3.777   6.370
 7070WAT      O21451   7.651   6.625   7.522
 7070WAT     H121452   7.608   6.577   7.599
 7070WAT     H221453   7.679   6.716   7.551
 7071WAT      O21454   9.392   3.219   9.282
 7071WAT     H121455   9.452   3.244   9.359
 7071WAT     H221456   9.302   3.260   9.295
 7072WAT      O21457   1.727   1.955   3.748
 7072WAT     H121458   1.666   1.876   3.742
 7072WAT     H221459   1.750   1.986   3.656
 7073WAT      O21460   7.958   7.178   1.514
 7073WAT     H121461   7.905   7.140   1.439
 7073WAT     H221462   8.001   7.104   1.566
 7074WAT      O21463   6.931   5.712   3.840
 7074WAT     H121464   6.920   5.665   3.928
 7074WAT     H221465   7.018   5.684   3.799
 7075WAT      O21466   6.887   2.277   8.489
 7075WAT     H121467   6.820   2.239   8.426
 7075WAT     H221468   6.934   2.354   8.445
 7076WAT      O21469   4.849   9.829   0.565
 7076WAT     H121470   4.901   9.829   0.479
 7076WAT     H221471   4.913   9.829   0.642
 7077WAT      O21472   0.097   5.027   9.137
 7077WAT     H121473   0.121   5.114   9.180
 7077WAT     H221474   0.002   5.004   9.157
 7078WAT      O21475   5.399   0.576   2.713
 7078WAT     H121476   5.410   0.659   2.767
 7078WAT     H221477   5.462   0.505   2.746
 7079WAT      O21478   7.459   8.699   3.522
 7079WAT     H121479   7.532   8.706   3.455
 7079WAT     H221480   7.381   8.651   3.482
 7080WAT      O21481   0.223   8.285   2.679
 7080WAT     H121482   0.130   8.252   2.667
 7080WAT     H221483   0.233   8.374   2.634
 7081WAT      O21484   9.766   1.608   0.820
 7081WAT     H121485   9.716   1.618   0.734
 7081WAT     H221486   9.727   1.670   0.888
 7082WAT      O21487   2.321   8.587   9.536
 7082WAT     H121488   2.391   8.588   9.608
 7082WAT     H221489   2.344   8.654   9.466
 7083WAT      O21490   0.398   0.799   9.297
 7083WAT     H121491   0.363   0.889   9.325
 7083WAT     H221492   0.486   0.811   9.250
 7084WAT      O21493   7.891   5.998   9.487
 7084WAT     H121494   7.883   5.945   9.572
 7084WAT     H221495   7.883   5.936   9.409
 7085WAT      O21496   5.479   5.283   4.266
 7085WAT     H121497   5.455   5.373   4.230
 7085WAT     H221498   5.424   5.213   4.221
 7086WAT      O21499   5.001   9.776   7.812
 7086WAT     H121500   5.084   9.729   7.784
 7086WAT     H221501   5.025   9.864   7.853
 7087WAT      O21502   8.286   8.327   8.758
 7087WAT     H121503   8.301   8.267   8.837
 7087WAT     H221504   8.229   8.404   8.786
 7088WAT      O21505   7.185   0.694   6.263
 7088WAT     H121506   7.247   0.768   6.287
 7088WAT     H221507   7.189   0.623   6.334
 7089WAT      O21508   4.082   8.211   6.806
 7089WAT     H121509   4.102   8.138   6.871
 7089WAT     H221510   4.168   8.244   6.766
 7090WAT      O21511   1.930   0.834   7.081
 7090WAT     H121512   2.004   0.844   7.148
 7090WAT     H221513   1.968   0.805   6.993
 7091WAT      O21514   7.205   2.884   7.826
 7091WAT     H121515   7.291   2.926   7.799
 7091WAT     H221516   7.131   2.915   7.765
 7092WAT      O21517   3.868   7.996   5.326
 7092WAT     H121518   3.878   8.080   5.273
 7092WAT     H221519   3.802   7.936   5.282
 7093WAT      O21520   6.894   2.600   2.862
 7093WAT     H121521   6.958   2.536   2.905
 7093WAT     H221522   6.927   2.624   2.771
 7094WAT      O21523   9.183   2.683   7.898
 7094WAT     H121524   9.135   2.733   7.970
 7094WAT     H221525   9.125   2.677   7.817
 7095WAT      O21526   1.873   7.101   9.761
 7095WAT     H121527   1.919   7.122   9.847
 7095WAT     H221528   1.936   7.054   9.699
 7096WAT      O21529   0.140   1.036   1.276
 7096WAT     H121530   0.229   1.080   1.283
 7096WAT     H221531   0.099   1.058   1.187
 7097WAT      O21532   7.887   5.746   2.468
 7097WAT     H121533   7.930   5.808   2.534
 7097WAT     H221534   7.877   5.656   2.510
 7098WAT      O21535   1.700   1.160   7.665
 7098WAT     H121536   1.769   1.232   7.669
 7098WAT     H221537   1.735   1.078   7.710
 7099WAT      O21538   0.423   6.991   8.841
 7099WAT     H121539   0.412   7.030   8.932
 7099WAT     H221540   0.376   7.049   8.774
 7100WAT      O21541   2.918   7.019   2.031
 7100WAT     H121542   2.995   6.979   1.981
 7100WAT     H221543   2.841   6.956   2.030
 7101WAT      O21544   1.464   2.484   4.084
 7101WAT     H121545   1.518   2.424   4.143
 7101WAT     H221546   1.370   2.488   4.117
 7102WAT      O21547   6.839   6.856   4.343
 7102WAT     H121548   6.789   6.781   4.387
 7102WAT     H221549   6.933   6.827   4.324
 7103WAT      O21550   7.049   7.871   3.490
 7103WAT     H121551   7.109   7.791   3.479
 7103WAT     H221552   6.966   7.844   3.540
 7104WAT      O21553   8.155   1.922   2.997
 7104WAT     H121554   8.076   1.961   2.949
 7104WAT     H221555   8.173   1.976   3.079
 7105WAT      O21556   0.471   7.331   8.182
 7105WAT     H121557   0.485   7.409   8.121
 7105WAT     H221558   0.530   7.341   8.263
 7106WAT      O21559   9.031   5.488   9.795
 7106WAT     H121560   8.990   5.441   9.873
 7106WAT     H221561   8.964   5.551   9.755
 7107WAT      O21562   1.530   2.327   9.466
 7107WAT     H121563   1.521   2.407   9.406
 7107WAT     H221564   1.626   2.314   9.490
 7108WAT      O21565   2.602   4.325   1.344
 7108WAT     H121566   2.640   4.340   1.253
 7108WAT     H221567   2.502   4.319   1.338
 7109WAT      O21568   8.690   2.576   6.573
 7109WAT     H121569   8.712   2.674   6.578
 7109WAT     H221570   8.641   2.549   6.657
 7110WAT      O21571   3.345   5.627   5.323
 7110WAT     H121572   3.291   5.543   5.326
 7110WAT     H221573   3.296   5.697   5.271
 7111WAT      O21574   5.678   0.930   2.031
 7111WAT     H121575   5.693   0.899   2.124
 7111WAT     H221576   5.708   0.859   1.967
 7112WAT      O21577   6.994   2.949   3.590
 7112WAT     H121578   6.954   3.038   3.613
 7112WAT     H221579   6.955   2.878   3.649
 7113WAT      O21580   3.569   2.762   9.067
 7113WAT     H121581   3.469   2.753   9.069
 7113WAT     H221582   3.600   2.805   9.153
 7114WAT      O21583   3.346   0.008   5.367
 7114WAT     H121584   3.332   0.046   5.458
 7114WAT     H221585   3.367  -0.089   5.374
 7115WAT      O21586   5.207   9.258   6.038
 7115WAT     H121587   5.287   9.198   6.038
 7115WAT     H221588   5.201   9.306   5.951
 7116WAT      O21589   0.157   2.801   8.338
 7116WAT     H121590   0.090   2.763   8.275
 7116WAT     H221591   0.193   2.887   8.302
 7117WAT      O21592   7.156   4.973   6.351
 7117WAT     H121593   7.102   5.055   6.331
 7117WAT     H221594   7.096   4.903   6.391
 7118WAT      O21595   1.517   5.382   3.200
 7118WAT     H121596   1.539   5.340   3.288
 7118WAT     H221597   1.590   5.445   3.173
 7119WAT      O21598   4.267   7.201   1.804
 7119WAT     H121599   4.180   7.225   1.761
 7119WAT     H221600   4.250   7.169   1.898
 7120WAT      O21601   8.037   4.532   7.338
 7120WAT     H121602   8.099   4.491   7.271
 7120WAT     H221603   8.035   4.631   7.326
 7121WAT      O21604   1.400   6.670   7.047
 7121WAT     H121605   1.328   6.667   7.117
 7121WAT     H221606   1.360   6.651   6.957
 7122WAT      O21607   8.582   2.729   5.388
 7122WAT     H121608   8.616   2.753   5.297
 7122WAT     H221609   8.561   2.632   5.392
 7123WAT      O21610   9.505   4.052   5.626
 7123WAT     H121611   9.416   4.024   5.662
 7123WAT     H221612   9.561   3.971   5.608
 7124WAT      O21613   6.310   5.922   7.739
 7124WAT     H121614   6.334   6.019   7.754
 7124WAT     H221615   6.387   5.865   7.767
 7125WAT      O21616   4.645   2.010   2.377
 7125WAT     H121617   4.659   2.104   2.409
 7125WAT     H221618   4.555   1.979   2.406
 7126WAT      O21619   1.500   9.079   8.712
 7126WAT     H121620   1.455   9.102   8.799
 7126WAT     H221621   1.444   9.013   8.662
 7127WAT      O21622   6.972   6.184   0.895
 7127WAT     H121623   6.974   6.259   0.829
 7127WAT     H221624   7.027   6.208   0.975
 7128WAT      O21625   4.172   2.443   6.842
 7128WAT     H121626   4.214   2.520   6.890
 7128WAT     H221627   4.236   2.408   6.774
 7129WAT      O21628   3.743   2.187   3.981
 7129WAT     H121629   3.643   2.183   3.972
 7129WAT     H221630   3.767   2.201   4.076
 7130WAT      O21631   2.062   6.431   9.778
 7130WAT     H121632   2.070   6.501   9.849
 7130WAT     H221633   2.124   6.355   9.800
 7131WAT      O21634   7.725   2.697   2.930
 7131WAT     H121635   7.774   2.782   2.947
 7131WAT     H221636   7.769   2.622   2.981
 7132WAT      O21637   8.432   3.297   8.054
 7132WAT     H121638   8.527   3.317   8.030
 7132WAT     H221639   8.386   3.381   8.082
 7133WAT      O21640   7.570   6.566   9.573
 7133WAT     H121641   7.633   6.492   9.552
 7133WAT     H221642   7.614   6.632   9.633
 7134WAT      O21643   2.759   7.416   2.989
 7134WAT     H121644   2.852   7.445   3.014
 7134WAT     H221645   2.742   7.325   3.025
 7135WAT      O21646   3.660   9.362   7.864
 7135WAT     H121647   3.636   9.456   7.888
 7135WAT     H221648   3.760   9.351   7.866
 7136WAT      O21649   5.472   0.399   9.099
 7136WAT     H121650   5.467   0.494   9.132
 7136WAT     H221651   5.462   0.397   9.000
 7137WAT      O21652   2.972   7.179   2.258
 7137WAT     H121653   2.956   7.112   2.185
 7137WAT     H221654   2.997   7.132   2.342
 7138WAT      O21655   9.745   0.084   1.684
 7138WAT     H121656   9.722   0.094   1.588
 7138WAT     H221657   9.837   0.047   1.693
 7139WAT      O21658   2.923   0.942   6.870
 7139WAT     H121659   2.967   0.853   6.855
 7139WAT     H221660   2.986   1.003   6.918
 7140WAT      O21661   0.289   7.053   3.386
 7140WAT     H121662   0.276   7.048   3.287
 7140WAT     H221663   0.376   7.009   3.410
 7141WAT      O21664   6.599   6.672   8.016
 7141WAT     H121665   6.689   6.712   7.995
 7141WAT     H221666   6.611   6.597   8.081
 7142WAT      O21667   5.820   7.784   6.747
 7142WAT     H121668   5.815   7.688   6.774
 7142WAT     H221669   5.871   7.835   6.816
 7143WAT      O21670   1.442   6.256   2.430
 7143WAT     H121671   1.498   6.326   2.475
 7143WAT     H221672   1.354   6.250   2.476
 7144WAT      O21673   7.405   8.745   2.907
 7144WAT     H121674   7.359   8.701   2.985
 7144WAT     H221675   7.483   8.798   2.940
 7145WAT      O21676   7.769   2.193   2.782
 7145WAT     H121677   7.674   2.203   2.814
 7145WAT     H221678   7.808   2.283   2.766
 7146WAT      O21679   0.917   0.365   0.348
 7146WAT     H121680   0.875   0.445   0.391
 7146WAT     H221681   1.014   0.382   0.334
 7147WAT      O21682   2.807   0.763   0.032
 7147WAT     H121683   2.710   0.757   0.057
 7147WAT     H221684   2.820   0.731  -0.062
 7148WAT      O21685   7.010   7.364   2.165
 7148WAT     H121686   6.933   7.303   2.149
 7148WAT     H221687   7.075   7.357   2.089
 7149WAT      O21688   3.386   5.236   1.256
 7149WAT     H121689   3.472   5.252   1.304
 7149WAT     H221690   3.320   5.308   1.280
 7150WAT      O21691   2.770   8.221   0.908
 7150WAT     H121692   2.750   8.168   0.990
 7150WAT     H221693   2.774   8.160   0.829
 7151WAT      O21694   5.757   9.810   6.516
 7151WAT     H121695   5.809   9.852   6.590
 7151WAT     H221696   5.812   9.810   6.433
 7152WAT      O21697   0.408   7.133   7.007
 7152WAT     H121698   0.375   7.215   6.961
 7152WAT     H221699   0.377   7.135   7.103
 7153WAT      O21700   8.591   4.468   9.008
 7153WAT     H121701   8.506   4.426   9.038
 7153WAT     H221702   8.661   4.398   8.995
 7154WAT      O21703   9.115   2.708   4.698
 7154WAT     H121704   9.208   2.674   4.690
 7154WAT     H221705   9.105   2.792   4.644
 7155WAT      O21706   8.075   2.583   5.875
 7155WAT     H121707   8.142   2.518   5.911
 7155WAT     H221708   8.123   2.660   5.832
 7156WAT      O21709   5.622   7.114   7.763
 7156WAT     H121710   5.560   7.191   7.779
 7156WAT     H221711   5.588   7.032   7.809
 7157WAT      O21712   1.474   5.779   8.867
 7157WAT     H121713   1.552   5.841   8.863
 7157WAT     H221714   1.436   5.767   8.775
 7158WAT      O21715   4.784   8.317   6.837
 7158WAT     H121716   4.863   8.308   6.897
 7158WAT     H221717   4.750   8.411   6.841
 7159WAT      O21718   4.515   9.032   6.474
 7159WAT     H121719   4.463   9.049   6.558
 7159WAT     H221720   4.608   9.064   6.486
 7160WAT      O21721   2.644   3.495   5.405
 7160WAT     H121722   2.619   3.473   5.311
 7160WAT     H221723   2.600   3.430   5.467
 7161WAT      O21724   1.268   7.003   8.612
 7161WAT     H121725   1.171   7.022   8.598
 7161WAT     H221726   1.315   7.085   8.643
 7162WAT      O21727   0.844   8.906   8.539
 7162WAT     H121728   0.748   8.914   8.565
 7162WAT     H221729   0.877   8.994   8.505
 7163WAT      O21730   1.112   5.563   9.138
 7163WAT     H121731   1.040   5.517   9.190
 7163WAT     H221732   1.072   5.626   9.072
 7164WAT      O21733   7.463   2.482   5.189
 7164WAT     H121734   7.392   2.538   5.233
 7164WAT     H221735   7.524   2.445   5.258
 7165WAT      O21736   2.693   3.756   5.927
 7165WAT     H121737   2.593   3.752   5.924
 7165WAT     H221738   2.730   3.721   5.842
 7166WAT      O21739   4.384   1.771   7.957
 7166WAT     H121740   4.457   1.715   7.917
 7166WAT     H221741   4.312   1.786   7.889
 7167WAT      O21742   0.889   6.640   3.373
 7167WAT     H121743   0.954   6.632   3.298
 7167WAT     H221744   0.815   6.703   3.348
 7168WAT      O21745   9.109   2.338   9.501
 7168WAT     H121746   9.042   2.269   9.526
 7168WAT     H221747   9.200   2.308   9.528
 7169WAT      O21748   6.533   1.066   1.293
 7169WAT     H121749   6.576   0.981   1.261
 7169WAT     H221750   6.582   1.100   1.373
 7170WAT      O21751   4.752   0.723   8.039
 7170WAT     H121752   4.744   0.634   8.085
 7170WAT     H221753   4.841   0.763   8.060
 7171WAT      O21754   6.771   6.489   5.495
 7171WAT     H121755   6.685   6.493   5.443
 7171WAT     H221756   6.838   6.551   5.454
 7172WAT      O21757   1.464   6.649   3.652
 7172WAT     H121758   1.488   6.564   3.699
 7172WAT     H221759   1.480   6.727   3.713
 7173WAT      O21760   8.696   0.169   7.567
 7173WAT     H121761   8.773   0.146   7.507
 7173WAT     H221762   8.689   0.268   7.576
 7174WAT      O21763   6.420   4.013   0.536
 7174WAT     H121764   6.509   3.984   0.570
 7174WAT     H221765   6.412   4.113   0.544
 7175WAT      O21766   2.522   0.265   2.246
 7175WAT     H121767   2.506   0.361   2.271
 7175WAT     H221768   2.553   0.259   2.152
 7176WAT      O21769   2.656   8.359   4.379
 7176WAT     H121770   2.561   8.384   4.394
 7176WAT     H221771   2.691   8.407   4.299
 7177WAT      O21772   4.979   9.405   1.542
 7177WAT     H121773   4.925   9.435   1.621
 7177WAT     H221774   4.953   9.458   1.462
 7178WAT      O21775   0.417   3.304   4.569
 7178WAT     H121776   0.375   3.372   4.629
 7178WAT     H221777   0.514   3.326   4.556
 7179WAT      O21778   5.154   2.641   6.228
 7179WAT     H121779   5.186   2.685   6.313
 7179WAT     H221780   5.064   2.602   6.242
 7180WAT      O21781   0.344   6.123   1.805
 7180WAT     H121782   0.410   6.093   1.874
 7180WAT     H221783   0.288   6.045   1.776
 7181WAT      O21784   8.521   6.705   4.768
 7181WAT     H121785   8.523   6.611   4.802
 7181WAT     H221786   8.613   6.733   4.742
 7182WAT      O21787   4.055   7.254   0.505
 7182WAT     H121788   4.142   7.302   0.496
 7182WAT     H221789   4.001   7.295   0.578
 7183WAT      O21790   0.518   7.961   7.489
 7183WAT     H121791   0.616   7.944   7.500
 7183WAT     H221792   0.489   8.035   7.550
 7184WAT      O21793   2.486   6.855   1.089
 7184WAT     H121794   2.494   6.792   1.012
 7184WAT     H221795   2.576   6.865   1.133
 7185WAT      O21796   5.869   9.473   1.749
 7185WAT     H121797   5.824   9.557   1.779
 7185WAT     H221798   5.954   9.461   1.800
 7186WAT      O21799   3.705   5.233   3.211
 7186WAT     H121800   3.665   5.260   3.298
 7186WAT     H221801   3.673   5.141   3.187
 7187WAT      O21802   8.703   4.922   2.412
 7187WAT     H121803   8.792   4.953   2.378
 7187WAT     H221804   8.715   4.838   2.465
 7188WAT      O21805   4.704   1.921   9.802
 7188WAT     H121806   4.609   1.914   9.831
 7188WAT     H221807   4.707   1.935   9.703
 7189WAT      O21808   6.418   6.104   7.101
 7189WAT     H121809   6.497   6.160   7.074
 7189WAT     H221810   6.335   6.159   7.095
 7190WAT      O21811   7.778   4.312   9.798
 7190WAT     H121812   7.741   4.301   9.706
 7190WAT     H221813   7.845   4.240   9.816
 7191WAT      O21814   0.096   5.739   2.603
 7191WAT     H121815   0.020   5.748   2.668
 7191WAT     H221816   0.153   5.820   2.608
 7192WAT      O21817   0.580   2.611   8.864
 7192WAT     H121818   0.544   2.686   8.808
 7192WAT     H221819   0.506   2.573   8.920
 7193WAT      O21820   2.554   4.646   8.648
 7193WAT     H121821   2.623   4.574   8.661
 7193WAT     H221822   2.582   4.705   8.572
 7194WAT      O21823   3.934   4.119   0.482
 7194WAT     H121824   4.007   4.067   0.437
 7194WAT     H221825   3.917   4.203   0.432
 7195WAT      O21826   0.245   7.554   1.323
 7195WAT     H121827   0.262   7.588   1.230
 7195WAT     H221828   0.149   7.526   1.330
 7196WAT      O21829   0.239   7.455   8.910
 7196WAT     H121830   0.303   7.413   8.974
 7196WAT     H221831   0.173   7.387   8.879
 7197WAT      O21832   8.028   8.577   8.311
 7197WAT     H121833   7.997   8.496   8.261
 7197WAT     H221834   8.080   8.549   8.391
 7198WAT      O21835   9.492   3.432   6.740
 7198WAT     H121836   9.541   3.500   6.794
 7198WAT     H221837   9.526   3.340   6.763
 7199WAT      O21838   2.033   0.293   2.645
 7199WAT     H121839   1.972   0.231   2.695
 7199WAT     H221840   1.989   0.382   2.634
 7200WAT      O21841   8.927   2.528   4.594
 7200WAT     H121842   8.857   2.592   4.625
 7200WAT     H221843   9.017   2.570   4.602
 7201WAT      O21844   2.362   3.891   6.151
 7201WAT     H121845   2.448   3.910   6.199
 7201WAT     H221846   2.377   3.821   6.082
 7202WAT      O21847   0.753   3.986   7.006
 7202WAT     H121848   0.788   4.042   7.081
 7202WAT     H221849   0.793   4.017   6.920
 7203WAT      O21850   5.686   0.812   3.946
 7203WAT     H121851   5.748   0.752   3.998
 7203WAT     H221852   5.662   0.767   3.860
 7204WAT      O21853   8.646   5.587   6.798
 7204WAT     H121854   8.733   5.622   6.834
 7204WAT     H221855   8.659   5.493   6.765
 7205WAT      O21856   4.042   7.458   7.345
 7205WAT     H121857   3.955   7.497   7.312
 7205WAT     H221858   4.027   7.362   7.370
 7206WAT      O21859   2.754   2.522   7.832
 7206WAT     H121860   2.818   2.595   7.856
 7206WAT     H221861   2.682   2.558   7.773
 7207WAT      O21862   7.991   8.991   8.329
 7207WAT     H121863   7.919   9.037   8.276
 7207WAT     H221864   7.949   8.920   8.387
 7208WAT      O21865   1.013   6.519   6.263
 7208WAT     H121866   0.963   6.599   6.296
 7208WAT     H221867   1.110   6.541   6.255
 7209WAT      O21868   8.396   0.586   0.294
 7209WAT     H121869   8.409   0.495   0.333
 7209WAT     H221870   8.412   0.655   0.364
 7210WAT      O21871   5.651   7.054   4.335
 7210WAT     H121872   5.663   7.153   4.341
 7210WAT     H221873   5.737   7.009   4.357
 7211WAT      O21874   8.488   2.661   5.956
 7211WAT     H121875   8.503   2.592   6.026
 7211WAT     H221876   8.451   2.744   5.998
 7212WAT      O21877   2.114   2.730   3.934
 7212WAT     H121878   2.021   2.695   3.931
 7212WAT     H221879   2.178   2.657   3.907
 7213WAT      O21880   0.963   8.529   8.955
 7213WAT     H121881   1.003   8.613   8.993
 7213WAT     H221882   0.897   8.492   9.020
 7214WAT      O21883   7.198   9.669   3.587
 7214WAT     H121884   7.125   9.685   3.654
 7214WAT     H221885   7.172   9.707   3.499
 7215WAT      O21886   6.447   4.765   8.085
 7215WAT     H121887   6.544   4.785   8.071
 7215WAT     H221888   6.438   4.682   8.139
 7216WAT      O21889   9.484   0.082   7.496
 7216WAT     H121890   9.497   0.124   7.406
 7216WAT     H221891   9.469   0.154   7.564
 7217WAT      O21892   7.030   5.012   5.725
 7217WAT     H121893   7.034   4.929   5.781
 7217WAT     H221894   6.964   4.999   5.650
 7218WAT      O21895   2.532   0.579   1.467
 7218WAT     H121896   2.477   0.583   1.551
 7218WAT     H221897   2.494   0.643   1.400
 7219WAT      O21898   2.809   3.344   3.859
 7219WAT     H121899   2.799   3.385   3.769
 7219WAT     H221900   2.719   3.331   3.901
 7220WAT      O21901   0.975   8.693   8.147
 7220WAT     H121902   1.041   8.743   8.203
 7220WAT     H221903   0.885   8.737   8.156
 7221WAT      O21904   2.433   9.018   7.756
 7221WAT     H121905   2.404   9.108   7.726
 7221WAT     H221906   2.514   9.026   7.813
 7222WAT      O21907   4.510   0.910   8.326
 7222WAT     H121908   4.497   0.811   8.325
 7222WAT     H221909   4.544   0.940   8.237
 7223WAT      O21910   2.844   3.496   7.568
 7223WAT     H121911   2.885   3.441   7.495
 7223WAT     H221912   2.746   3.506   7.552
 7224WAT      O21913   5.673   7.396   5.968
 7224WAT     H121914   5.648   7.426   5.877
 7224WAT     H221915   5.727   7.312   5.962
 7225WAT      O21916   9.460   6.711   9.696
 7225WAT     H121917   9.477   6.645   9.623
 7225WAT     H221918   9.434   6.662   9.779
 7226WAT      O21919   3.170   0.918   6.580
 7226WAT     H121920   3.126   0.983   6.642
 7226WAT     H221921   3.165   0.953   6.487
 7227WAT      O21922   2.642   4.016   9.736
 7227WAT     H121923   2.592   3.929   9.743
 7227WAT     H221924   2.673   4.045   9.826
 7228WAT      O21925   8.475   1.766   0.184
 7228WAT     H121926   8.401   1.714   0.142
 7228WAT     H221927   8.550   1.777   0.119
 7229WAT      O21928   5.031   9.369   6.553
 7229WAT     H121929   5.080   9.298   6.504
 7229WAT     H221930   4.965   9.327   6.615
 7230WAT      O21931   4.892   6.498   7.869
 7230WAT     H121932   4.819   6.458   7.924
 7230WAT     H221933   4.945   6.561   7.927
 7231WAT      O21934   4.161   2.774   8.317
 7231WAT     H121935   4.207   2.862   8.329
 7231WAT     H221936   4.141   2.735   8.407
 7232WAT      O21937   2.455   3.529   0.695
 7232WAT     H121938   2.464   3.572   0.605
 7232WAT     H221939   2.449   3.430   0.684
 7233WAT      O21940   7.186   4.548   2.620
 7233WAT     H121941   7.198   4.587   2.529
 7233WAT     H221942   7.254   4.587   2.682
 7234WAT      O21943   3.105   5.928   8.739
 7234WAT     H121944   3.063   6.014   8.711
 7234WAT     H221945   3.061   5.896   8.823
 7235WAT      O21946   6.459   9.714   6.688
 7235WAT     H121947   6.524   9.640   6.707
 7235WAT     H221948   6.489   9.765   6.607
 7236WAT      O21949   6.529   1.356   7.837
 7236WAT     H121950   6.466   1.283   7.808
 7236WAT     H221951   6.586   1.383   7.759
 7237WAT      O21952   8.262   0.405   5.522
 7237WAT     H121953   8.211   0.448   5.447
 7237WAT     H221954   8.360   0.418   5.509
 7238WAT      O21955   2.237   4.016   5.355
 7238WAT     H121956   2.336   4.000   5.358
 7238WAT     H221957   2.208   4.029   5.260
 7239WAT      O21958   4.235   3.095   4.749
 7239WAT     H121959   4.175   3.113   4.670
 7239WAT     H221960   4.212   3.006   4.788
 7240WAT      O21961   8.378   3.245   6.773
 7240WAT     H121962   8.387   3.164   6.716
 7240WAT     H221963   8.349   3.322   6.717
 7241WAT      O21964   7.775   0.096   2.268
 7241WAT     H121965   7.831   0.166   2.223
 7241WAT     H221966   7.681   0.102   2.237
 7242WAT      O21967   5.141   2.575   4.624
 7242WAT     H121968   5.113   2.671   4.628
 7242WAT     H221969   5.241   2.570   4.616
 7243WAT      O21970   2.991   3.325   7.395
 7243WAT     H121971   3.001   3.228   7.371
 7243WAT     H221972   3.052   3.380   7.338
 7244WAT      O21973   7.886   2.653   0.975
 7244WAT     H121974   7.876   2.741   1.021
 7244WAT     H221975   7.840   2.656   0.886
 7245WAT      O21976   1.441   2.987   4.015
 7245WAT     H121977   1.386   2.906   4.036
 7245WAT     H221978   1.535   2.973   4.044
 7246WAT      O21979   3.879   7.645   2.510
 7246WAT     H121980   3.945   7.594   2.455
 7246WAT     H221981   3.787   7.631   2.474
 7247WAT      O21982   2.735   6.435   2.799
 7247WAT     H121983   2.814   6.459   2.743
 7247WAT     H221984   2.697   6.517   2.843
 7248WAT      O21985   8.140   0.092   4.315
 7248WAT     H121986   8.191   0.014   4.351
 7248WAT     H221987   8.107   0.149   4.390
 7249WAT      O21988   1.050   8.042   8.455
 7249WAT     H121989   1.060   8.126   8.509
 7249WAT     H221990   1.135   8.023   8.406
 7250WAT      O21991   5.890   4.497   0.185
 7250WAT     H121992   5.849   4.444   0.260
 7250WAT     H221993   5.845   4.474   0.099
 7251WAT      O21994   1.417   1.826   1.888
 7251WAT     H121995   1.478   1.901   1.910
 7251WAT     H221996   1.458   1.769   1.817
 7252WAT      O21997   4.294   0.355   9.018
 7252WAT     H121998   4.236   0.419   8.967
 7252WAT     H221999   4.239   0.307   9.086
 7253WAT      O22000   7.227   6.050   1.387
 7253WAT     H122001   7.272   6.140   1.393
 7253WAT     H222002   7.287   5.986   1.338
 7254WAT      O22003   2.886   1.824   1.092
 7254WAT     H122004   2.972   1.872   1.078
 7254WAT     H222005   2.848   1.797   1.003
 7255WAT      O22006   6.204   4.802   8.480
 7255WAT     H122007   6.285   4.860   8.480
 7255WAT     H222008   6.124   4.857   8.455
 7256WAT      O22009   5.837   2.555   5.129
 7256WAT     H122010   5.811   2.577   5.035
 7256WAT     H222011   5.789   2.473   5.158
 7257WAT      O22012   2.163   4.047   5.076
 7257WAT     H122013   2.065   4.023   5.073
 7257WAT     H222014   2.216   3.974   5.032
 7258WAT      O22015   8.851   5.955   5.444
 7258WAT     H122016   8.932   5.915   5.488
 7258WAT     H222017   8.796   5.882   5.403
 7259WAT      O22018   1.513   3.618   6.601
 7259WAT     H122019   1.527   3.683   6.675
 7259WAT     H222020   1.415   3.604   6.587
 7260WAT      O22021   4.358   2.262   7.978
 7260WAT     H122022   4.450   2.292   8.005
 7260WAT     H222023   4.290   2.316   8.028
 7261WAT      O22024   8.181   3.169   8.978
 7261WAT     H122025   8.152   3.078   8.950
 7261WAT     H222026   8.243   3.207   8.909
 7262WAT      O22027   1.732   4.437   8.654
 7262WAT     H122028   1.707   4.386   8.736
 7262WAT     H222029   1.698   4.530   8.660
 7263WAT      O22030   2.872   6.360   0.866
 7263WAT     H122031   2.939   6.362   0.940
 7263WAT     H222032   2.918   6.344   0.779
 7264WAT      O22033   6.943   4.956   1.201
 7264WAT     H122034   6.889   4.984   1.281
 7264WAT     H222035   6.917   4.863   1.174
 7265WAT      O22036   2.562   8.334   6.834
 7265WAT     H122037   2.639   8.299   6.887
 7265WAT     H222038   2.596   8.394   6.761
 7266WAT      O22039   6.667   5.796   0.815
 7266WAT     H122040   6.614   5.872   0.851
 7266WAT     H222041   6.764   5.810   0.836
 7267WAT      O22042   7.471   4.879   1.829
 7267WAT     H122043   7.503   4.804   1.773
 7267WAT     H222044   7.478   4.965   1.778
 7268WAT      O22045   1.119   3.163   5.089
 7268WAT     H122046   1.119   3.259   5.060
 7268WAT     H222047   1.211   3.125   5.078
 7269WAT      O22048   2.345   1.739   2.108
 7269WAT     H122049   2.363   1.703   2.200
 7269WAT     H222050   2.297   1.826   2.115
 7270WAT      O22051   3.223   6.746   1.027
 7270WAT     H122052   3.221   6.646   1.022
 7270WAT     H222053   3.300   6.776   1.082
 7271WAT      O22054   0.838   5.706   3.717
 7271WAT     H122055   0.858   5.611   3.742
 7271WAT     H222056   0.863   5.767   3.793
 7272WAT      O22057   5.580   7.796   9.470
 7272WAT     H122058   5.548   7.743   9.548
 7272WAT     H222059   5.679   7.809   9.477
 7273WAT      O22060   0.564   4.897   6.154
 7273WAT     H122061   0.632   4.918   6.083
 7273WAT     H222062   0.582   4.807   6.192
 7274WAT      O22063   9.639   4.843   2.807
 7274WAT     H122064   9.585   4.789   2.743
 7274WAT     H222065   9.734   4.812   2.804
 7275WAT      O22066   2.535   5.480   9.276
 7275WAT     H122067   2.588   5.397   9.260
 7275WAT     H222068   2.463   5.488   9.206
 7276WAT      O22069   1.523   3.656   7.283
 7276WAT     H122070   1.436   3.703   7.297
 7276WAT     H222071   1.595   3.703   7.334
 7277WAT      O22072   2.119   5.111   5.958
 7277WAT     H122073   2.121   5.076   5.865
 7277WAT     H222074   2.027   5.146   5.979
 7278WAT      O22075   7.725   0.847   1.350
 7278WAT     H122076   7.732   0.748   1.364
 7278WAT     H222077   7.685   0.865   1.259
 7279WAT      O22078   6.773   0.132   0.324
 7279WAT     H122079   6.751   0.222   0.362
 7279WAT     H222080   6.690   0.092   0.285
 7280WAT      O22081   0.738   9.503   7.471
 7280WAT     H122082   0.828   9.545   7.457
 7280WAT     H222083   0.695   9.484   7.383
 7281WAT      O22084   4.832   8.904   2.050
 7281WAT     H122085   4.909   8.966   2.036
 7281WAT     H222086   4.857   8.812   2.021
 7282WAT      O22087   3.267   7.750   6.726
 7282WAT     H122088   3.340   7.815   6.707
 7282WAT     H222089   3.199   7.793   6.786
 7283WAT      O22090   9.684   1.724   6.422
 7283WAT     H122091   9.778   1.745   6.449
 7283WAT     H222092   9.663   1.629   6.443
 7284WAT      O22093   2.763   5.814   1.674
 7284WAT     H122094   2.845   5.869   1.662
 7284WAT     H222095   2.787   5.727   1.717
 7285WAT      O22096   8.934   6.404   1.579
 7285WAT     H122097   9.014   6.446   1.622
 7285WAT     H222098   8.922   6.443   1.488
 7286WAT      O22099   8.321   3.232   1.917
 7286WAT     H122100   8.379   3.227   1.998
 7286WAT     H222101   8.236   3.280   1.941
 7287WAT      O22102   2.048   8.299   2.861
 7287WAT     H122103   2.119   8.357   2.821
 7287WAT     H222104   1.965   8.304   2.806
 7288WAT      O22105   9.116   6.356   5.098
 7288WAT     H122106   9.073   6.439   5.133
 7288WAT     H222107   9.105   6.352   4.999
 7289WAT      O22108   2.774   7.145   2.515
 7289WAT     H122109   2.873   7.134   2.527
 7289WAT     H222110   2.750   7.242   2.519
 7290WAT      O22111   5.306   6.040   9.061
 7290WAT     H122112   5.251   5.956   9.062
 7290WAT     H222113   5.403   6.016   9.068
 7291WAT      O22114   6.526   5.274   0.924
 7291WAT     H122115   6.460   5.246   0.993
 7291WAT     H222116   6.478   5.310   0.844
 7292WAT      O22117   2.013   8.888   8.460
 7292WAT     H122118   1.955   8.923   8.386
 7292WAT     H222119   2.041   8.794   8.438
 7293WAT      O22120   7.528   4.391   1.380
 7293WAT     H122121   7.551   4.485   1.354
 7293WAT     H222122   7.505   4.338   1.299
 7294WAT      O22123   7.789   9.146   7.370
 7294WAT     H122124   7.728   9.082   7.417
 7294WAT     H222125   7.824   9.104   7.287
 7295WAT      O22126   2.027   8.601   3.328
 7295WAT     H122127   2.104   8.623   3.387
 7295WAT     H222128   1.985   8.686   3.295
 7296WAT      O22129   5.776   8.767   8.648
 7296WAT     H122130   5.800   8.852   8.601
 7296WAT     H222131   5.831   8.692   8.610
 7297WAT      O22132   2.725   2.140   6.374
 7297WAT     H122133   2.638   2.163   6.329
 7297WAT     H222134   2.794   2.121   6.304
 7298WAT      O22135   1.239   2.024   2.304
 7298WAT     H122136   1.193   1.988   2.222
 7298WAT     H222137   1.329   1.982   2.312
 7299WAT      O22138   5.644   4.356   9.368
 7299WAT     H122139   5.589   4.376   9.449
 7299WAT     H222140   5.675   4.261   9.371
 7300WAT      O22141   9.659   1.321   6.673
 7300WAT     H122142   9.643   1.227   6.643
 7300WAT     H222143   9.722   1.321   6.751
 7301WAT      O22144   3.639   9.625   6.689
 7301WAT     H122145   3.648   9.635   6.589
 7301WAT     H222146   3.567   9.558   6.709
 7302WAT      O22147   2.871   5.335   3.063
 7302WAT     H122148   2.967   5.330   3.089
 7302WAT     H222149   2.819   5.382   3.135
 7303WAT      O22150   3.746   4.599   5.227
 7303WAT     H122151   3.790   4.657   5.158
 7303WAT     H222152   3.816   4.551   5.280
 7304WAT      O22153   6.573   1.989   2.286
 7304WAT     H122154   6.565   1.898   2.244
 7304WAT     H222155   6.495   2.045   2.259
 7305WAT      O22156   4.822   1.846   0.588
 7305WAT     H122157   4.816   1.795   0.502
 7305WAT     H222158   4.802   1.786   0.665
 7306WAT      O22159   7.032   5.118   4.023
 7306WAT     H122160   6.966   5.142   4.095
 7306WAT     H222161   7.123   5.147   4.051
 7307WAT      O22162   6.394   0.985   6.045
 7307WAT     H122163   6.472   1.006   6.105
 7307WAT     H222164   6.366   0.890   6.059
 7308WAT      O22165   2.173   3.992   4.323
 7308WAT     H122166   2.235   3.992   4.244
 7308WAT     H222167   2.129   3.903   4.331
 7309WAT      O22168   1.558   5.519   8.067
 7309WAT     H122169   1.630   5.552   8.129
 7309WAT     H222170   1.483   5.480   8.121
 7310WAT      O22171   8.269   7.322   6.987
 7310WAT     H122172   8.314   7.389   6.928
 7310WAT     H222173   8.323   7.238   6.990
 7311WAT      O22174   6.527   2.233   4.125
 7311WAT     H122175   6.449   2.280   4.167
 7311WAT     H222176   6.522   2.135   4.147
 7312WAT      O22177   0.698   9.822   4.482
 7312WAT     H122178   0.621   9.869   4.437
 7312WAT     H222179   0.712   9.733   4.438
 7313WAT      O22180   2.447   9.703   9.694
 7313WAT     H122181   2.505   9.696   9.775
 7313WAT     H222182   2.443   9.798   9.664
 7314WAT      O22183   3.306   0.426   6.836
 7314WAT     H122184   3.305   0.335   6.795
 7314WAT     H222185   3.320   0.494   6.764
 7315WAT      O22186   3.279   7.344   3.073
 7315WAT     H122187   3.227   7.259   3.082
 7315WAT     H222188   3.371   7.331   3.110
 7316WAT      O22189   0.199   4.262   4.683
 7316WAT     H122190   0.297   4.258   4.663
 7316WAT     H222191   0.168   4.357   4.681
 7317WAT      O22192   2.183   3.521   2.636
 7317WAT     H122193   2.226   3.433   2.659
 7317WAT     H222194   2.203   3.587   2.709
 7318WAT      O22195   4.418   4.662   2.187
 7318WAT     H122196   4.443   4.576   2.141
 7318WAT     H222197   4.366   4.641   2.270
 7319WAT      O22198   1.051   8.067   6.179
 7319WAT     H122199   1.093   7.983   6.146
 7319WAT     H222200   1.063   8.139   6.111
 7320WAT      O22201   8.470   5.525   2.242
 7320WAT     H122202   8.500   5.595   2.177
 7320WAT     H222203   8.549   5.489   2.291
 7321WAT      O22204   5.389   2.987   4.221
 7321WAT     H122205   5.431   2.896   4.222
 7321WAT     H222206   5.297   2.980   4.183
 7322WAT      O22207   5.818   3.121   3.883
 7322WAT     H122208   5.754   3.056   3.843
 7322WAT     H222209   5.909   3.080   3.888
 7323WAT      O22210   1.886   9.686   3.048
 7323WAT     H122211   1.817   9.613   3.050
 7323WAT     H222212   1.957   9.667   3.115
 7324WAT      O22213   1.563   5.766   5.640
 7324WAT     H122214   1.602   5.726   5.557
 7324WAT     H222215   1.634   5.816   5.689
 7325WAT      O22216   7.514   2.315   6.018
 7325WAT     H122217   7.587   2.309   5.949
 7325WAT     H222218   7.543   2.266   6.100
 7326WAT      O22219   4.201   3.419   2.707
 7326WAT     H122220   4.201   3.430   2.608
 7326WAT     H222221   4.128   3.356   2.733
 7327WAT      O22222   2.011   2.225   3.511
 7327WAT     H122223   2.002   2.324   3.526
 7327WAT     H222224   2.056   2.208   3.423
 7328WAT      O22225   0.297   4.503   8.777
 7328WAT     H122226   0.318   4.430   8.711
 7328WAT     H222227   0.199   4.518   8.781
 7329WAT      O22228   4.769   9.754   1.880
 7329WAT     H122229   4.675   9.725   1.896
 7329WAT     H222230   4.825   9.674   1.860
 7330WAT      O22231   1.265   7.398   3.386
 7330WAT     H122232   1.269   7.298   3.384
 7330WAT     H222233   1.303   7.435   3.302
 7331WAT      O22234   5.540   1.150   7.345
 7331WAT     H122235   5.597   1.226   7.376
 7331WAT     H222236   5.550   1.139   7.246
 7332WAT      O22237   5.885   6.229   2.169
 7332WAT     H122238   5.846   6.145   2.131
 7332WAT     H222239   5.864   6.306   2.109
 7333WAT      O22240   2.593   5.965   1.907
 7333WAT     H122241   2.577   5.990   1.812
 7333WAT     H222242   2.632   6.043   1.956
 7334WAT      O22243   7.110   7.574   7.212
 7334WAT     H122244   7.060   7.655   7.183
 7334WAT     H222245   7.153   7.531   7.133
 7335WAT      O22246   7.959   6.847   5.071
 7335WAT     H122247   7.976   6.845   5.169
 7335WAT     H222248   7.869   6.807   5.052
 7336WAT      O22249   6.847   2.180   5.517
 7336WAT     H122250   6.913   2.204   5.445
 7336WAT     H222251   6.844   2.253   5.585
 7337WAT      O22252   5.942   5.047   3.586
 7337WAT     H122253   5.904   5.139   3.598
 7337WAT     H222254   5.869   4.983   3.561
 7338WAT      O22255   1.982   8.310   6.675
 7338WAT     H122256   2.015   8.270   6.761
 7338WAT     H222257   1.902   8.367   6.694
 7339WAT      O22258   3.825   2.151   9.508
 7339WAT     H122259   3.787   2.107   9.426
 7339WAT     H222260   3.900   2.211   9.482
 7340WAT      O22261   6.147   0.889   6.560
 7340WAT     H122262   6.055   0.866   6.592
 7340WAT     H222263   6.195   0.805   6.536
 7341WAT      O22264   7.262   7.673   5.327
 7341WAT     H122265   7.207   7.655   5.409
 7341WAT     H222266   7.359   7.666   5.350
 7342WAT      O22267   5.001   7.979   5.815
 7342WAT     H122268   4.983   8.001   5.910
 7342WAT     H222269   5.072   7.909   5.809
 7343WAT      O22270   2.387   0.812   1.314
 7343WAT     H122271   2.332   0.790   1.395
 7343WAT     H222272   2.344   0.887   1.264
 7344WAT      O22273   0.139   8.589   0.303
 7344WAT     H122274   0.222   8.570   0.250
 7344WAT     H222275   0.059   8.561   0.250
 7345WAT      O22276   2.417   8.832   1.154
 7345WAT     H122277   2.372   8.919   1.172
 7345WAT     H222278   2.515   8.840   1.173
 7346WAT      O22279   6.226   8.789   3.284
 7346WAT     H122280   6.307   8.823   3.236
 7346WAT     H222281   6.255   8.729   3.359
 7347WAT      O22282   4.116   1.277   9.763
 7347WAT     H122283   4.184   1.331   9.814
 7347WAT     H222284   4.136   1.282   9.665
 7348WAT      O22285   2.153   2.648   8.066
 7348WAT     H122286   2.247   2.618   8.083
 7348WAT     H222287   2.148   2.691   7.976
 7349WAT      O22288   7.907   9.316   1.777
 7349WAT     H122289   7.952   9.383   1.719
 7349WAT     H222290   7.848   9.363   1.843
 7350WAT      O22291   3.458   2.527   5.765
 7350WAT     H122292   3.404   2.496   5.687
 7350WAT     H222293   3.527   2.458   5.787
 7351WAT      O22294   4.972   6.491   7.614
 7351WAT     H122295   4.962   6.478   7.713
 7351WAT     H222296   5.033   6.569   7.597
 7352WAT      O22297   7.006   7.882   6.316
 7352WAT     H122298   6.913   7.864   6.349
 7352WAT     H222299   7.026   7.821   6.240
 7353WAT      O22300   9.047   7.676   0.108
 7353WAT     H122301   9.095   7.764   0.115
 7353WAT     H222302   9.063   7.637   0.018
 7354WAT      O22303   2.958   0.098   2.069
 7354WAT     H122304   3.017   0.101   1.988
 7354WAT     H222305   2.904   0.182   2.073
 7355WAT      O22306   0.768   8.206   2.779
 7355WAT     H122307   0.715   8.122   2.767
 7355WAT     H222308   0.749   8.245   2.869
 7356WAT      O22309   1.556   9.193   5.958
 7356WAT     H122310   1.500   9.131   6.012
 7356WAT     H222311   1.649   9.195   5.995
 7357WAT      O22312   8.858   8.564   5.839
 7357WAT     H122313   8.865   8.466   5.857
 7357WAT     H222314   8.812   8.609   5.915
 7358WAT      O22315   5.982   1.904   7.265
 7358WAT     H122316   5.985   1.893   7.364
 7358WAT     H222317   6.075   1.919   7.230
 7359WAT      O22318   3.321   1.514   6.372
 7359WAT     H122319   3.267   1.574   6.432
 7359WAT     H222320   3.417   1.516   6.401
 7360WAT      O22321   0.380   2.079   0.947
 7360WAT     H122322   0.380   2.097   0.849
 7360WAT     H222323   0.415   2.159   0.996
 7361WAT      O22324   8.967   1.463   3.108
 7361WAT     H122325   8.966   1.393   3.179
 7361WAT     H222326   8.873   1.484   3.081
 7362WAT      O22327   5.372   3.086   6.813
 7362WAT     H122328   5.340   3.179   6.831
 7362WAT     H222329   5.420   3.050   6.893
 7363WAT      O22330   8.888   6.809   0.505
 7363WAT     H122331   8.950   6.802   0.427
 7363WAT     H222332   8.838   6.723   0.516
 7364WAT      O22333   6.121   5.742   2.272
 7364WAT     H122334   6.147   5.657   2.227
 7364WAT     H222335   6.203   5.787   2.308
 7365WAT      O22336   1.366   7.058   2.478
 7365WAT     H122337   1.409   7.145   2.502
 7365WAT     H222338   1.378   6.993   2.553
 7366WAT      O22339   2.428   2.029   5.026
 7366WAT     H122340   2.451   1.985   4.939
 7366WAT     H222341   2.334   2.063   5.022
 7367WAT      O22342   1.757   6.353   4.156
 7367WAT     H122343   1.717   6.289   4.090
 7367WAT     H222344   1.801   6.301   4.230
 7368WAT      O22345   4.804   2.005   5.377
 7368WAT     H122346   4.798   2.003   5.277
 7368WAT     H222347   4.855   2.086   5.406
 7369WAT      O22348   8.573   1.196   7.732
 7369WAT     H122349   8.605   1.101   7.730
 7369WAT     H222350   8.477   1.199   7.706
 7370WAT      O22351   8.784   7.032   8.333
 7370WAT     H122352   8.696   7.006   8.294
 7370WAT     H222353   8.816   7.117   8.291
 7371WAT      O22354   1.147   5.365   4.305
 7371WAT     H122355   1.130   5.444   4.247
 7371WAT     H222356   1.067   5.305   4.303
 7372WAT      O22357   9.397   2.869   4.340
 7372WAT     H122358   9.462   2.843   4.269
 7372WAT     H222359   9.321   2.804   4.342
 7373WAT      O22360   9.747   2.331   6.087
 7373WAT     H122361   9.754   2.249   6.144
 7373WAT     H222362   9.659   2.332   6.040
 7374WAT      O22363   7.596   8.344   5.853
 7374WAT     H122364   7.549   8.257   5.864
 7374WAT     H222365   7.551   8.415   5.906
 7375WAT      O22366   2.262   5.132   8.279
 7375WAT     H122367   2.182   5.073   8.290
 7375WAT     H222368   2.328   5.112   8.351
 7376WAT      O22369   5.133   2.750   5.362
 7376WAT     H122370   5.133   2.834   5.307
 7376WAT     H222371   5.113   2.672   5.303
 7377WAT      O22372   5.596   5.912   2.214
 7377WAT     H122373   5.666   5.870   2.272
 7377WAT     H222374   5.515   5.854   2.213
 7378WAT      O22375   1.487   0.770   4.216
 7378WAT     H122376   1.549   0.799   4.143
 7378WAT     H222377   1.422   0.703   4.179
 7379WAT      O22378   3.549   1.360   7.608
 7379WAT     H122379   3.614   1.318   7.671
 7379WAT     H222380   3.543   1.305   7.525
 7380WAT      O22381   7.071   8.852   4.178
 7380WAT     H122382   7.004   8.854   4.104
 7380WAT     H222383   7.025   8.826   4.263
 7381WAT      O22384   7.765   0.085   0.385
 7381WAT     H122385   7.718   0.003   0.416
 7381WAT     H222386   7.732   0.110   0.294
 7382WAT      O22387   3.297   0.511   5.431
 7382WAT     H122388   3.261   0.604   5.423
 7382WAT     H222389   3.373   0.510   5.496
 7383WAT      O22390   5.337   5.613   3.588
 7383WAT     H122391   5.365   5.707   3.569
 7383WAT     H222392   5.413   5.563   3.628
 7384WAT      O22393   0.806   4.658   3.430
 7384WAT     H122394   0.819   4.564   3.462
 7384WAT     H222395   0.889   4.688   3.383
 7385WAT      O22396   5.280   3.552   5.495
 7385WAT     H122397   5.292   3.498   5.412
 7385WAT     H222398   5.194   3.526   5.539
 7386WAT      O22399   5.397   0.934   2.258
 7386WAT     H122400   5.426   1.024   2.224
 7386WAT     H222401   5.361   0.945   2.351
 7387WAT      O22402   9.819   6.442   2.279
 7387WAT     H122403   9.799   6.517   2.342
 7387WAT     H222404   9.859   6.479   2.195
 7388WAT      O22405   3.421   1.528   5.592
 7388WAT     H122406   3.348   1.487   5.646
 7388WAT     H222407   3.382   1.577   5.514
 7389WAT      O22408   6.345   8.736   4.849
 7389WAT     H122409   6.357   8.813   4.912
 7389WAT     H222410   6.435   8.699   4.826
 7390WAT      O22411   5.487   7.531   9.835
 7390WAT     H122412   5.449   7.448   9.793
 7390WAT     H222413   5.510   7.512   9.931
 7391WAT      O22414   8.818   9.211   8.138
 7391WAT     H122415   8.734   9.255   8.169
 7391WAT     H222416   8.801   9.164   8.051
 7392WAT      O22417   8.877   5.362   0.081
 7392WAT     H122418   8.780   5.383   0.085
 7392WAT     H222419   8.909   5.332   0.172
 7393WAT      O22420   1.920   5.831   7.979
 7393WAT     H122421   1.923   5.753   7.917
 7393WAT     H222422   1.827   5.869   7.980
 7394WAT      O22423   9.066   9.397   8.235
 7394WAT     H122424   9.001   9.322   8.222
 7394WAT     H222425   9.104   9.393   8.328
 7395WAT      O22426   6.241   2.932   4.779
 7395WAT     H122427   6.313   3.000   4.791
 7395WAT     H222428   6.171   2.968   4.717
 7396WAT      O22429   4.745   6.458   6.087
 7396WAT     H122430   4.807   6.534   6.069
 7396WAT     H222431   4.785   6.397   6.155
 7397WAT      O22432   8.963   3.719   3.022
 7397WAT     H122433   8.963   3.703   2.924
 7397WAT     H222434   8.945   3.633   3.070
 7398WAT      O22435   9.255   4.043   5.769
 7398WAT     H122436   9.157   4.060   5.778
 7398WAT     H222437   9.304   4.101   5.835
 7399WAT      O22438   6.634   0.642   4.420
 7399WAT     H122439   6.568   0.585   4.374
 7399WAT     H222440   6.727   0.619   4.390
 7400WAT      O22441   2.834   7.426   8.032
 7400WAT     H122442   2.815   7.521   8.055
 7400WAT     H222443   2.757   7.369   8.060
 7401WAT      O22444   7.092   2.384   2.561
 7401WAT     H122445   7.161   2.416   2.626
 7401WAT     H222446   7.012   2.444   2.564
 7402WAT      O22447   5.111   5.497   2.818
 7402WAT     H122448   5.173   5.456   2.885
 7402WAT     H222449   5.154   5.497   2.728
 7403WAT      O22450   4.975   3.164   9.319
 7403WAT     H122451   4.904   3.099   9.293
 7403WAT     H222452   4.933   3.243   9.364
 7404WAT      O22453   4.926   1.991   4.733
 7404WAT     H122454   4.835   1.957   4.753
 7404WAT     H222455   4.935   2.085   4.765
 7405WAT      O22456   5.573   4.271   9.751
 7405WAT     H122457   5.562   4.316   9.663
 7405WAT     H222458   5.496   4.210   9.768
 7406WAT      O22459   0.300   8.810   1.585
 7406WAT     H122460   0.213   8.780   1.546
 7406WAT     H222461   0.283   8.857   1.671
 7407WAT      O22462   7.348   7.213   9.276
 7407WAT     H122463   7.380   7.237   9.184
 7407WAT     H222464   7.290   7.286   9.311
 7408WAT      O22465   1.342   8.886   8.584
 7408WAT     H122466   1.245   8.891   8.608
 7408WAT     H222467   1.360   8.801   8.534
 7409WAT      O22468   6.070   7.998   1.029
 7409WAT     H122469   6.047   8.048   1.112
 7409WAT     H222470   6.164   7.965   1.034
 7410WAT      O22471   1.532   4.921   7.766
 7410WAT     H122472   1.541   5.012   7.725
 7410WAT     H222473   1.586   4.918   7.851
 7411WAT      O22474   4.152   3.652   9.091
 7411WAT     H122475   4.126   3.695   9.177
 7411WAT     H222476   4.217   3.578   9.110
 7412WAT      O22477   3.935   0.761   4.917
 7412WAT     H122478   4.033   0.782   4.916
 7412WAT     H222479   3.883   0.845   4.935
 7413WAT      O22480   6.719   0.759   0.409
 7413WAT     H122481   6.767   0.830   0.461
 7413WAT     H222482   6.677   0.800   0.328
 7414WAT      O22483   0.628   3.232   8.453
 7414WAT     H122484   0.689   3.303   8.418
 7414WAT     H222485   0.652   3.210   8.547
 7415WAT      O22486   6.084   1.275   5.486
 7415WAT     H122487   6.007   1.237   5.538
 7415WAT     H222488   6.128   1.347   5.539
 7416WAT      O22489   6.322   9.109   5.806
 7416WAT     H122490   6.360   9.119   5.715
 7416WAT     H222491   6.312   9.011   5.827
 7417WAT      O22492   7.017   3.030   9.150
 7417WAT     H122493   6.976   3.114   9.114
 7417WAT     H222494   7.019   2.960   9.077
 7418WAT      O22495   5.220   3.146   1.977
 7418WAT     H122496   5.257   3.211   1.911
 7418WAT     H222497   5.265   3.159   2.065
 7419WAT      O22498   0.801   9.470   1.738
 7419WAT     H122499   0.820   9.495   1.643
 7419WAT     H222500   0.832   9.544   1.798
 7420WAT      O22501   3.036   3.299   1.200
 7420WAT     H122502   3.029   3.372   1.131
 7420WAT     H222503   3.132   3.284   1.222
 7421WAT      O22504   7.624   6.126   6.722
 7421WAT     H122505   7.564   6.116   6.643
 7421WAT     H222506   7.591   6.200   6.780
 7422WAT      O22507   0.765   0.310   0.939
 7422WAT     H122508   0.770   0.392   0.995
 7422WAT     H222509   0.854   0.264   0.939
 7423WAT      O22510   6.672   8.703   3.602
 7423WAT     H122511   6.596   8.708   3.667
 7423WAT     H222512   6.688   8.607   3.577
 7424WAT      O22513   6.211   7.277   8.385
 7424WAT     H122514   6.137   7.215   8.359
 7424WAT     H222515   6.223   7.276   8.484
 7425WAT      O22516   4.865   4.201   2.972
 7425WAT     H122517   4.812   4.214   2.888
 7425WAT     H222518   4.870   4.103   2.993
 7426WAT      O22519   9.548   5.968   1.299
 7426WAT     H122520   9.614   5.912   1.249
 7426WAT     H222521   9.573   5.970   1.396
 7427WAT      O22522   3.538   1.079   1.170
 7427WAT     H122523   3.537   1.005   1.102
 7427WAT     H222524   3.623   1.131   1.161
 7428WAT      O22525   3.294   3.492   6.636
 7428WAT     H122526   3.266   3.568   6.578
 7428WAT     H222527   3.335   3.527   6.720
 7429WAT      O22528   5.876   8.983   8.516
 7429WAT     H122529   5.953   9.006   8.456
 7429WAT     H222530   5.805   9.053   8.507
 7430WAT      O22531   2.772   0.063   6.207
 7430WAT     H122532   2.740   0.155   6.187
 7430WAT     H222533   2.707   0.017   6.268
 7431WAT      O22534   5.978   5.560   7.647
 7431WAT     H122535   6.072   5.526   7.641
 7431WAT     H222536   5.966   5.608   7.734
 7432WAT      O22537   5.107   7.524   8.179
 7432WAT     H122538   5.166   7.446   8.198
 7432WAT     H222539   5.042   7.536   8.255
 7433WAT      O22540   8.734   7.772   1.253
 7433WAT     H122541   8.747   7.826   1.336
 7433WAT     H222542   8.732   7.675   1.277
 7434WAT      O22543   7.368   8.910   4.910
 7434WAT     H122544   7.324   8.917   4.821
 7434WAT     H222545   7.432   8.833   4.909
 7435WAT      O22546   3.536   4.134   5.597
 7435WAT     H122547   3.579   4.051   5.631
 7435WAT     H222548   3.518   4.196   5.674
 7436WAT      O22549   6.738   9.259   0.796
 7436WAT     H122550   6.752   9.214   0.708
 7436WAT     H222551   6.746   9.191   0.869
 7437WAT      O22552   1.180   0.261   2.130
 7437WAT     H122553   1.250   0.317   2.173
 7437WAT     H222554   1.188   0.167   2.162
 7438WAT      O22555   8.363   3.994   1.627
 7438WAT     H122556   8.362   4.092   1.606
 7438WAT     H222557   8.391   3.943   1.546
 7439WAT      O22558   5.282   9.117   1.045
 7439WAT     H122559   5.213   9.053   1.012
 7439WAT     H222560   5.324   9.080   1.128
 7440WAT      O22561   0.567   6.137   9.436
 7440WAT     H122562   0.618   6.111   9.519
 7440WAT     H222563   0.583   6.069   9.365
 7441WAT      O22564   2.862   4.690   0.135
 7441WAT     H122565   2.866   4.593   0.159
 7441WAT     H222566   2.767   4.719   0.126
 7442WAT      O22567   7.603   0.317   1.951
 7442WAT     H122568   7.578   0.260   2.030
 7442WAT     H222569   7.520   0.353   1.909
 7443WAT      O22570   3.519   7.132   7.103
 7443WAT     H122571   3.450   7.098   7.168
 7443WAT     H222572   3.487   7.115   7.010
 7444WAT      O22573   3.782   2.378   5.358
 7444WAT     H122574   3.813   2.284   5.370
 7444WAT     H222575   3.847   2.428   5.300
 7445WAT      O22576   0.076   7.762   6.166
 7445WAT     H122577   0.037   7.713   6.089
 7445WAT     H222578   0.107   7.852   6.136
 7446WAT      O22579   3.418   5.586   3.335
 7446WAT     H122580   3.324   5.552   3.323
 7446WAT     H222581   3.441   5.647   3.259
 7447WAT      O22582   8.216   6.777   7.966
 7447WAT     H122583   8.142   6.837   7.995
 7447WAT     H222584   8.240   6.797   7.871
 7448WAT      O22585   3.995   2.221   1.097
 7448WAT     H122586   4.044   2.189   1.178
 7448WAT     H222587   3.911   2.169   1.086
 7449WAT      O22588   0.509   9.061   3.369
 7449WAT     H122589   0.501   9.137   3.434
 7449WAT     H222590   0.497   8.974   3.418
 7450WAT      O22591   6.281   4.990   5.945
 7450WAT     H122592   6.225   4.912   5.973
 7450WAT     H222593   6.236   5.037   5.869
 7451WAT      O22594   8.228   1.125   9.862
 7451WAT     H122595   8.200   1.210   9.908
 7451WAT     H222596   8.153   1.093   9.804
 7452WAT      O22597   6.426   5.533   2.430
 7452WAT     H122598   6.465   5.443   2.450
 7452WAT     H222599   6.364   5.560   2.503
 7453WAT      O22600   9.742   7.868   9.752
 7453WAT     H122601   9.695   7.956   9.754
 7453WAT     H222602   9.799   7.859   9.833
 7454WAT      O22603   8.483   7.076   4.580
 7454WAT     H122604   8.417   7.016   4.624
 7454WAT     H222605   8.442   7.116   4.497
 7455WAT      O22606   2.425   1.555   8.889
 7455WAT     H122607   2.434   1.601   8.977
 7455WAT     H222608   2.341   1.586   8.844
 7456WAT      O22609   5.723   2.638   6.418
 7456WAT     H122610   5.648   2.572   6.421
 7456WAT     H222611   5.777   2.624   6.336
 7457WAT      O22612   4.265   4.698   4.290
 7457WAT     H122613   4.330   4.754   4.238
 7457WAT     H222614   4.206   4.649   4.226
 7458WAT      O22615   7.090   7.727   6.832
 7458WAT     H122616   7.004   7.713   6.784
 7458WAT     H222617   7.160   7.757   6.767
 7459WAT      O22618   2.283   8.630   4.799
 7459WAT     H122619   2.266   8.615   4.702
 7459WAT     H222620   2.201   8.667   4.842
 7460WAT      O22621   0.998   7.955   7.701
 7460WAT     H122622   1.045   7.920   7.782
 7460WAT     H222623   1.066   7.977   7.631
 7461WAT      O22624   9.042   8.200   9.476
 7461WAT     H122625   9.048   8.299   9.487
 7461WAT     H222626   9.007   8.159   9.560
 7462WAT      O22627   9.513   3.912   1.624
 7462WAT     H122628   9.517   3.812   1.628
 7462WAT     H222629   9.444   3.945   1.689
 7463WAT      O22630   0.643   1.169   6.980
 7463WAT     H122631   0.642   1.085   6.926
 7463WAT     H222632   0.615   1.149   7.074
 7464WAT      O22633   1.165   0.606   4.481
 7464WAT     H122634   1.214   0.689   4.455
 7464WAT     H222635   1.229   0.531   4.494
 7465WAT      O22636   9.253   4.464   6.306
 7465WAT     H122637   9.335   4.430   6.353
 7465WAT     H222638   9.171   4.437   6.357
 7466WAT      O22639   0.662   6.539   7.410
 7466WAT     H122640   0.728   6.517   7.338
 7466WAT     H222641   0.582   6.584   7.370
 7467WAT      O22642   1.306   4.869   6.123
 7467WAT     H122643   1.237   4.798   6.133
 7467WAT     H222644   1.317   4.918   6.210
 7468WAT      O22645   2.597   2.549   1.428
 7468WAT     H122646   2.551   2.558   1.516
 7468WAT     H222647   2.576   2.459   1.389
 7469WAT      O22648   0.047   0.992   5.381
 7469WAT     H122649   0.006   1.018   5.468
 7469WAT     H222650   0.144   0.972   5.394
 7470WAT      O22651   2.140   7.627   9.196
 7470WAT     H122652   2.082   7.589   9.123
 7470WAT     H222653   2.185   7.551   9.245
 7471WAT      O22654   8.202   9.552   9.111
 7471WAT     H122655   8.275   9.597   9.060
 7471WAT     H222656   8.214   9.453   9.108
 7472WAT      O22657   5.541   6.721   0.386
 7472WAT     H122658   5.468   6.698   0.451
 7472WAT     H222659   5.624   6.745   0.436
 7473WAT      O22660   9.654   8.376   1.076
 7473WAT     H122661   9.588   8.308   1.045
 7473WAT     H222662   9.663   8.371   1.176
 7474WAT      O22663   9.498   9.081   3.848
 7474WAT     H122664   9.543   9.116   3.929
 7474WAT     H222665   9.538   9.122   3.766
 7475WAT      O22666   7.656   1.003   6.727
 7475WAT     H122667   7.608   0.951   6.797
 7475WAT     H222668   7.748   0.964   6.714
 7476WAT      O22669   1.314   4.272   3.880
 7476WAT     H122670   1.251   4.265   3.802
 7476WAT     H222671   1.403   4.303   3.849
 7477WAT      O22672   6.557   3.683   6.988
 7477WAT     H122673   6.503   3.693   6.905
 7477WAT     H222674   6.589   3.773   7.019
 7478WAT      O22675   2.343   4.994   3.124
 7478WAT     H122676   2.259   4.958   3.083
 7478WAT     H222677   2.396   5.043   3.054
 7479WAT      O22678   4.425   8.469   8.418
 7479WAT     H122679   4.364   8.403   8.462
 7479WAT     H222680   4.405   8.472   8.320
 7480WAT      O22681   3.830   1.251   5.675
 7480WAT     H122682   3.817   1.157   5.706
 7480WAT     H222683   3.788   1.314   5.739
 7481WAT      O22684   8.105   7.012   7.704
 7481WAT     H122685   8.036   6.958   7.753
 7481WAT     H222686   8.171   6.951   7.662
 7482WAT      O22687   4.814   9.425   9.700
 7482WAT     H122688   4.829   9.327   9.688
 7482WAT     H222689   4.901   9.469   9.724
 7483WAT      O22690   5.486   9.069   3.862
 7483WAT     H122691   5.498   9.146   3.924
 7483WAT     H222692   5.563   9.007   3.870
 7484WAT      O22693   2.559   3.671   8.572
 7484WAT     H122694   2.628   3.629   8.513
 7484WAT     H222695   2.508   3.740   8.521
 7485WAT      O22696   2.826   6.240   7.726
 7485WAT     H122697   2.738   6.266   7.685
 7485WAT     H222698   2.854   6.311   7.791
 7486WAT      O22699   6.210   0.117   6.891
 7486WAT     H122700   6.193   0.026   6.855
 7486WAT     H222701   6.142   0.181   6.855
 7487WAT      O22702   4.402   1.125   4.181
 7487WAT     H122703   4.446   1.105   4.093
 7487WAT     H222704   4.373   1.221   4.182
 7488WAT      O22705   5.126   8.791   7.828
 7488WAT     H122706   5.109   8.882   7.789
 7488WAT     H222707   5.052   8.729   7.801
 7489WAT      O22708   6.821   3.906   5.624
 7489WAT     H122709   6.793   4.000   5.606
 7489WAT     H222710   6.794   3.848   5.546
 7490WAT      O22711   7.696   7.536   9.550
 7490WAT     H122712   7.596   7.534   9.550
 7490WAT     H222713   7.729   7.570   9.462
 7491WAT      O22714   0.307   9.411   6.718
 7491WAT     H122715   0.283   9.335   6.778
 7491WAT     H222716   0.282   9.498   6.761
 7492WAT      O22717   6.268   4.630   3.154
 7492WAT     H122718   6.358   4.663   3.183
 7492WAT     H222719   6.212   4.707   3.125
 7493WAT      O22720   8.564   4.601   0.120
 7493WAT     H122721   8.599   4.671   0.182
 7493WAT     H222722   8.491   4.640   0.064
 7494WAT      O22723   0.284   7.181   8.662
 7494WAT     H122724   0.227   7.245   8.714
 7494WAT     H222725   0.230   7.144   8.586
 7495WAT      O22726   1.988   3.347   2.945
 7495WAT     H122727   1.998   3.295   3.029
 7495WAT     H222728   1.981   3.284   2.867
 7496WAT      O22729   8.308   2.344   6.591
 7496WAT     H122730   8.365   2.265   6.613
 7496WAT     H222731   8.366   2.425   6.581
 7497WAT      O22732   0.065   8.033   1.976
 7497WAT     H122733   0.067   8.121   1.928
 7497WAT     H222734   0.101   7.962   1.916
 7498WAT      O22735   9.250   6.531   8.164
 7498WAT     H122736   9.202   6.618   8.174
 7498WAT     H222737   9.340   6.537   8.208
 7499WAT      O22738   0.056   3.851   8.933
 7499WAT     H122739   0.093   3.846   9.025
 7499WAT     H222740   0.130   3.861   8.867
 7500WAT      O22741   2.405   3.456   7.311
 7500WAT     H122742   2.444   3.388   7.249
 7500WAT     H222743   2.416   3.547   7.271
 7501WAT      O22744   0.287   5.359   9.616
 7501WAT     H122745   0.270   5.457   9.607
 7501WAT     H222746   0.201   5.312   9.634
 7502WAT      O22747   9.878   0.834   9.510
 7502WAT     H122748   9.921   0.914   9.552
 7502WAT     H222749   9.784   0.826   9.541
 7503WAT      O22750   6.836   1.982   0.341
 7503WAT     H122751   6.935   1.969   0.336
 7503WAT     H222752   6.792   1.928   0.269
 7504WAT      O22753   0.095   6.513   7.305
 7504WAT     H122754  -0.001   6.488   7.289
 7504WAT     H222755   0.122   6.586   7.242
 7505WAT      O22756   5.916   5.765   4.357
 7505WAT     H122757   5.928   5.863   4.365
 7505WAT     H222758   5.951   5.720   4.439
 7506WAT      O22759   6.747   9.392   1.365
 7506WAT     H122760   6.808   9.339   1.305
 7506WAT     H222761   6.802   9.437   1.435
 7507WAT      O22762   6.443   0.745   0.724
 7507WAT     H122763   6.357   0.695   0.713
 7507WAT     H222764   6.455   0.807   0.647
 7508WAT      O22765   1.932   4.887   3.511
 7508WAT     H122766   1.939   4.987   3.506
 7508WAT     H222767   2.021   4.847   3.492
 7509WAT      O22768   4.651   8.048   4.668
 7509WAT     H122769   4.714   8.115   4.706
 7509WAT     H222770   4.588   8.016   4.740
 7510WAT      O22771   2.260   4.775   2.016
 7510WAT     H122772   2.204   4.818   1.945
 7510WAT     H222773   2.299   4.845   2.075
 7511WAT      O22774   5.252   1.692   0.647
 7511WAT     H122775   5.180   1.663   0.710
 7511WAT     H222776   5.217   1.687   0.553
 7512WAT      O22777   1.701   6.706   7.215
 7512WAT     H122778   1.677   6.740   7.124
 7512WAT     H222779   1.796   6.730   7.234
 7513WAT      O22780   7.185   7.890   8.172
 7513WAT     H122781   7.177   7.806   8.226
 7513WAT     H222782   7.099   7.942   8.180
 7514WAT      O22783   3.319   1.613   6.750
 7514WAT     H122784   3.266   1.619   6.666
 7514WAT     H222785   3.267   1.655   6.825
 7515WAT      O22786   6.329   9.254   9.894
 7515WAT     H122787   6.280   9.272   9.809
 7515WAT     H222788   6.388   9.332   9.915
 7516WAT      O22789   2.891   8.918   0.856
 7516WAT     H122790   2.939   9.004   0.844
 7516WAT     H222791   2.802   8.935   0.898
 7517WAT      O22792   0.788   8.704   4.161
 7517WAT     H122793   0.812   8.657   4.245
 7517WAT     H222794   0.693   8.735   4.165
 7518WAT      O22795   1.125   9.110   3.531
 7518WAT     H122796   1.159   9.117   3.437
 7518WAT     H222797   1.178   9.171   3.590
 7519WAT      O22798   3.039   1.792   4.948
 7519WAT     H122799   3.117   1.786   4.885
 7519WAT     H222800   2.958   1.754   4.904
 7520WAT      O22801   0.982   9.289   7.069
 7520WAT     H122802   0.913   9.248   7.009
 7520WAT     H222803   1.036   9.218   7.113
 7521WAT      O22804   3.475   9.545   1.176
 7521WAT     H122805   3.554   9.580   1.225
 7521WAT     H222806   3.440   9.464   1.223
 7522WAT      O22807   5.240   9.133   9.402
 7522WAT     H122808   5.155   9.184   9.389
 7522WAT     H222809   5.313   9.175   9.348
 7523WAT      O22810   5.010   8.125   1.452
 7523WAT     H122811   5.097   8.152   1.491
 7523WAT     H222812   4.972   8.201   1.399
 7524WAT      O22813   1.800   7.990   2.393
 7524WAT     H122814   1.751   8.070   2.427
 7524WAT     H222815   1.755   7.907   2.424
 7525WAT      O22816   0.785   9.359   3.035
 7525WAT     H122817   0.848   9.357   3.113
 7525WAT     H222818   0.693   9.382   3.067
 7526WAT      O22819   6.117   0.699   8.777
 7526WAT     H122820   6.154   0.780   8.823
 7526WAT     H222821   6.173   0.620   8.801
 7527WAT      O22822   9.687   9.311   9.300
 7527WAT     H122823   9.634   9.268   9.372
 7527WAT     H222824   9.643   9.296   9.211
 7528WAT      O22825   0.548   6.693   9.205
 7528WAT     H122826   0.542   6.593   9.208
 7528WAT     H222827   0.624   6.720   9.146
 7529WAT      O22828   6.562   9.366   1.150
 7529WAT     H122829   6.500   9.442   1.168
 7529WAT     H222830   6.647   9.379   1.201
 7530WAT      O22831   9.600   9.145   5.614
 7530WAT     H122832   9.598   9.167   5.517
 7530WAT     H222833   9.695   9.146   5.646
 7531WAT      O22834   6.460   0.927   5.208
 7531WAT     H122835   6.422   0.865   5.139
 7531WAT     H222836   6.526   0.878   5.265
 7532WAT      O22837   4.532   1.503   6.250
 7532WAT     H122838   4.455   1.550   6.208
 7532WAT     H222839   4.605   1.568   6.270
 7533WAT      O22840   2.558   2.285   0.896
 7533WAT     H122841   2.618   2.321   0.825
 7533WAT     H222842   2.567   2.185   0.899
 7534WAT      O22843   4.456   3.924   9.197
 7534WAT     H122844   4.373   3.975   9.218
 7534WAT     H222845   4.503   3.967   9.120
 7535WAT      O22846   3.479   4.120   1.116
 7535WAT     H122847   3.499   4.193   1.181
 7535WAT     H222848   3.563   4.096   1.066
 7536WAT      O22849   1.158   3.402   4.980
 7536WAT     H122850   1.062   3.423   4.998
 7536WAT     H222851   1.176   3.410   4.882
 7537WAT      O22852   6.571   9.140   6.014
 7537WAT     H122853   6.481   9.150   5.971
 7537WAT     H222854   6.586   9.045   6.039
 7538WAT      O22855   8.825   6.573   4.414
 7538WAT     H122856   8.891   6.508   4.375
 7538WAT     H222857   8.870   6.661   4.427
 7539WAT      O22858   8.274   2.614   9.612
 7539WAT     H122859   8.234   2.523   9.623
 7539WAT     H222860   8.239   2.674   9.683
 7540WAT      O22861   4.206   2.697   3.990
 7540WAT     H122862   4.288   2.674   4.042
 7540WAT     H222863   4.215   2.663   3.896
 7541WAT      O22864   9.137   2.433   6.801
 7541WAT     H122865   9.226   2.387   6.795
 7541WAT     H222866   9.091   2.428   6.712
 7542WAT      O22867   1.451   7.134   3.657
 7542WAT     H122868   1.443   7.173   3.566
 7542WAT     H222869   1.361   7.112   3.693
 7543WAT      O22870   8.242   3.260   5.976
 7543WAT     H122871   8.298   3.226   5.901
 7543WAT     H222872   8.212   3.184   6.033
 7544WAT      O22873   6.541   2.156   2.708
 7544WAT     H122874   6.540   2.254   2.691
 7544WAT     H222875   6.547   2.139   2.806
 7545WAT      O22876   3.212   2.270   6.622
 7545WAT     H122877   3.214   2.178   6.585
 7545WAT     H222878   3.301   2.314   6.607
 7546WAT      O22879   4.495   2.422   9.802
 7546WAT     H122880   4.413   2.473   9.778
 7546WAT     H222881   4.470   2.338   9.850
 7547WAT      O22882   4.757   5.791   6.971
 7547WAT     H122883   4.735   5.832   6.882
 7547WAT     H222884   4.676   5.789   7.028
 7548WAT      O22885   1.260   1.725   3.039
 7548WAT     H122886   1.272   1.669   2.957
 7548WAT     H222887   1.339   1.785   3.049
 7549WAT      O22888   4.491   1.818   3.520
 7549WAT     H122889   4.502   1.781   3.612
 7549WAT     H222890   4.556   1.892   3.505
 7550WAT      O22891   1.471   5.236   9.052
 7550WAT     H122892   1.547   5.245   8.987
 7550WAT     H222893   1.491   5.163   9.117
 7551WAT      O22894   8.601   7.884   3.038
 7551WAT     H122895   8.650   7.969   3.015
 7551WAT     H222896   8.604   7.870   3.137
 7552WAT      O22897   3.269   7.355   8.148
 7552WAT     H122898   3.300   7.264   8.175
 7552WAT     H222899   3.261   7.359   8.048
 7553WAT      O22900   7.778   1.088   3.254
 7553WAT     H122901   7.871   1.072   3.221
 7553WAT     H222902   7.732   1.154   3.194
 7554WAT      O22903   3.098   7.327   5.118
 7554WAT     H122904   3.080   7.416   5.160
 7554WAT     H222905   3.147   7.269   5.182
 7555WAT      O22906   4.665   7.135   7.394
 7555WAT     H122907   4.661   7.070   7.319
 7555WAT     H222908   4.722   7.098   7.467
 7556WAT      O22909   1.089   1.051   0.055
 7556WAT     H122910   1.145   1.133   0.056
 7556WAT     H222911   1.148   0.970   0.049
 7557WAT      O22912   6.447   2.466   0.891
 7557WAT     H122913   6.351   2.442   0.905
 7557WAT     H222914   6.503   2.414   0.956
 7558WAT      O22915   7.887   7.007   4.626
 7558WAT     H122916   7.793   7.032   4.650
 7558WAT     H222917   7.887   6.921   4.575
 7559WAT      O22918   0.693   2.334   0.293
 7559WAT     H122919   0.740   2.251   0.263
 7559WAT     H222920   0.726   2.360   0.384
 7560WAT      O22921   7.056   0.907   9.252
 7560WAT     H122922   7.026   0.960   9.331
 7560WAT     H222923   7.121   0.961   9.199
 7561WAT      O22924   5.365   0.770   0.450
 7561WAT     H122925   5.354   0.688   0.506
 7561WAT     H222926   5.276   0.813   0.436
 7562WAT      O22927   3.581   5.955   3.545
 7562WAT     H122928   3.666   5.942   3.495
 7562WAT     H222929   3.602   5.991   3.636
 7563WAT      O22930   1.514   7.853   7.789
 7563WAT     H122931   1.613   7.848   7.771
 7563WAT     H222932   1.498   7.884   7.882
 7564WAT      O22933   2.713   1.935   3.186
 7564WAT     H122934   2.637   1.978   3.138
 7564WAT     H222935   2.799   1.965   3.145
 7565WAT      O22936   3.953   1.693   4.622
 7565WAT     H122937   3.897   1.772   4.648
 7565WAT     H222938   3.928   1.664   4.530
 7566WAT      O22939   2.681   5.516   0.343
 7566WAT     H122940   2.702   5.492   0.438
 7566WAT     H222941   2.586   5.546   0.336
 7567WAT      O22942   2.103   5.291   5.483
 7567WAT     H122943   2.179   5.315   5.543
 7567WAT     H222944   2.126   5.209   5.430
 7568WAT      O22945   1.424   1.710   0.947
 7568WAT     H122946   1.374   1.790   0.979
 7568WAT     H222947   1.485   1.736   0.872
 7569WAT      O22948   1.621   9.413   3.701
 7569WAT     H122949   1.629   9.502   3.656
 7569WAT     H222950   1.630   9.341   3.633
 7570WAT      O22951   6.084   9.671   9.229
 7570WAT     H122952   6.042   9.737   9.290
 7570WAT     H222953   6.183   9.686   9.226
 7571WAT      O22954   7.376   7.201   3.834
 7571WAT     H122955   7.383   7.299   3.815
 7571WAT     H222956   7.304   7.161   3.777
 7572WAT      O22957   5.374   0.567   9.761
 7572WAT     H122958   5.397   0.562   9.663
 7572WAT     H222959   5.458   0.569   9.815
 7573WAT      O22960   9.735   0.350   1.812
 7573WAT     H122961   9.792   0.420   1.768
 7573WAT     H222962   9.734   0.268   1.756
 7574WAT      O22963   6.169   2.273   6.002
 7574WAT     H122964   6.228   2.348   6.032
 7574WAT     H222965   6.154   2.280   5.903
 7575WAT      O22966   3.145   0.215   2.302
 7575WAT     H122967   3.108   0.302   2.269
 7575WAT     H222968   3.078   0.142   2.286
 7576WAT      O22969   5.428   7.934   8.034
 7576WAT     H122970   5.351   7.871   8.045
 7576WAT     H222971   5.493   7.920   8.108
 7577WAT      O22972   2.121   0.475   0.160
 7577WAT     H122973   2.132   0.379   0.185
 7577WAT     H222974   2.079   0.524   0.236
 7578WAT      O22975   7.997   9.625   5.743
 7578WAT     H122976   8.032   9.613   5.836
 7578WAT     H222977   7.947   9.542   5.715
 7579WAT      O22978   7.199   5.944   4.535
 7579WAT     H122979   7.149   5.988   4.609
 7579WAT     H222980   7.184   5.845   4.538
 7580WAT      O22981   1.580   4.887   4.480
 7580WAT     H122982   1.496   4.940   4.482
 7580WAT     H222983   1.559   4.790   4.469
 7581WAT      O22984   7.584   8.231   3.652
 7581WAT     H122985   7.666   8.182   3.683
 7581WAT     H222986   7.583   8.322   3.693
 7582WAT      O22987   1.774   9.723   4.244
 7582WAT     H122988   1.823   9.768   4.319
 7582WAT     H222989   1.796   9.626   4.242
 7583WAT      O22990   9.352   2.390   4.474
 7583WAT     H122991   9.438   2.340   4.469
 7583WAT     H222992   9.282   2.330   4.515
 7584WAT      O22993   7.516   2.384   7.960
 7584WAT     H122994   7.590   2.373   7.894
 7584WAT     H222995   7.470   2.471   7.944
 7585WAT      O22996   9.507   9.203   1.031
 7585WAT     H122997   9.591   9.255   1.012
 7585WAT     H222998   9.491   9.200   1.129
 7586WAT      O22999   7.271   0.422   8.666
 7586WAT     H123000   7.353   0.395   8.717
 7586WAT     H223001   7.262   0.522   8.668
 7587WAT      O23002   8.960   1.032   2.160
 7587WAT     H123003   8.912   0.944   2.160
 7587WAT     H223004   9.057   1.017   2.142
 7588WAT      O23005   4.997   1.741   0.182
 7588WAT     H123006   5.044   1.815   0.232
 7588WAT     H223007   5.051   1.657   0.191
 7589WAT      O23008   4.698   2.378   3.847
 7589WAT     H123009   4.640   2.349   3.924
 7589WAT     H223010   4.678   2.473   3.824
 7590WAT      O23011   1.228   9.779   3.129
 7590WAT     H123012   1.302   9.840   3.156
 7590WAT     H223013   1.149   9.833   3.099
 7591WAT      O23014   2.247   1.831   7.383
 7591WAT     H123015   2.236   1.746   7.331
 7591WAT     H223016   2.202   1.906   7.334
 7592WAT      O23017   0.512   3.076   9.009
 7592WAT     H123018   0.465   2.988   8.996
 7592WAT     H223019   0.610   3.059   9.021
 7593WAT      O23020   8.465   6.005   7.479
 7593WAT     H123021   8.453   5.922   7.425
 7593WAT     H223022   8.553   6.046   7.457
 7594WAT      O23023   5.224   9.030   4.216
 7594WAT     H123024   5.233   9.098   4.143
 7594WAT     H223025   5.139   8.978   4.202
 7595WAT      O23026   3.158   7.127   3.158
 7595WAT     H123027   3.118   7.036   3.157
 7595WAT     H223028   3.179   7.154   3.252
 7596WAT      O23029   7.345   0.232   9.122
 7596WAT     H123030   7.296   0.167   9.179
 7596WAT     H223031   7.414   0.280   9.177
 7597WAT      O23032   3.768   8.919   0.267
 7597WAT     H123033   3.856   8.925   0.220
 7597WAT     H223034   3.777   8.861   0.348
 7598WAT      O23035   4.015   2.616   3.027
 7598WAT     H123036   4.029   2.613   3.126
 7598WAT     H223037   4.040   2.527   2.987
 7599WAT      O23038   6.429   4.577   1.636
 7599WAT     H123039   6.390   4.573   1.544
 7599WAT     H223040   6.455   4.484   1.664
 7600WAT      O23041   1.415   2.521   9.257
 7600WAT     H123042   1.321   2.531   9.286
 7600WAT     H223043   1.418   2.503   9.158
 7601WAT      O23044   4.150   1.686   3.600
 7601WAT     H123045   4.173   1.781   3.622
 7601WAT     H223046   4.203   1.655   3.522
 7602WAT      O23047   2.668   2.839   6.878
 7602WAT     H123048   2.760   2.878   6.872
 7602WAT     H223049   2.601   2.907   6.848
 7603WAT      O23050   3.990   7.292   6.315
 7603WAT     H123051   4.064   7.359   6.327
 7603WAT     H223052   3.905   7.331   6.349
 7604WAT      O23053   9.767   2.492   6.855
 7604WAT     H123054   9.855   2.523   6.818
 7604WAT     H223055   9.695   2.507   6.787
 7605WAT      O23056   5.153   6.214   0.349
 7605WAT     H123057   5.152   6.302   0.302
 7605WAT     H223058   5.154   6.229   0.448
 7606WAT      O23059   7.577   7.184   2.726
 7606WAT     H123060   7.662   7.138   2.704
 7606WAT     H223061   7.506   7.156   2.660
 7607WAT      O23062   9.214   3.323   5.283
 7607WAT     H123063   9.293   3.353   5.229
 7607WAT     H223064   9.244   3.297   5.374
 7608WAT      O23065   8.165   6.019   5.982
 7608WAT     H123066   8.092   6.029   6.049
 7608WAT     H223067   8.237   5.959   6.018
 7609WAT      O23068   8.897   0.924   1.197
 7609WAT     H123069   8.901   0.870   1.113
 7609WAT     H223070   8.927   0.868   1.274
 7610WAT      O23071   4.345   8.327   7.475
 7610WAT     H123072   4.386   8.237   7.462
 7610WAT     H223073   4.371   8.388   7.400
 7611WAT      O23074   0.999   8.725   7.357
 7611WAT     H123075   1.011   8.797   7.289
 7611WAT     H223076   0.977   8.639   7.311
 7612WAT      O23077   1.719   2.676   5.848
 7612WAT     H123078   1.754   2.725   5.928
 7612WAT     H223079   1.775   2.697   5.768
 7613WAT      O23080   4.329   8.269   6.761
 7613WAT     H123081   4.392   8.279   6.684
 7613WAT     H223082   4.358   8.328   6.836
 7614WAT      O23083   3.365   3.604   2.541
 7614WAT     H123084   3.335   3.561   2.456
 7614WAT     H223085   3.464   3.619   2.538
 7615WAT      O23086   3.115   5.366   3.151
 7615WAT     H123087   3.107   5.418   3.236
 7615WAT     H223088   3.204   5.384   3.109
 7616WAT      O23089   3.439   4.653   2.333
 7616WAT     H123090   3.422   4.690   2.242
 7616WAT     H223091   3.475   4.560   2.325
 7617WAT      O23092   0.022   5.211   0.773
 7617WAT     H123093  -0.046   5.220   0.700
 7617WAT     H223094  -0.011   5.147   0.842
 7618WAT      O23095   8.425   1.881   7.936
 7618WAT     H123096   8.390   1.798   7.894
 7618WAT     H223097   8.458   1.943   7.866
 7619WAT      O23098   8.693   7.025   9.134
 7619WAT     H123099   8.748   6.945   9.112
 7619WAT     H223100   8.699   7.092   9.059
 7620WAT      O23101   1.779   6.653   6.606
 7620WAT     H123102   1.699   6.704   6.636
 7620WAT     H223103   1.796   6.670   6.509
 7621WAT      O23104   1.546   1.736   7.580
 7621WAT     H123105   1.524   1.679   7.501
 7621WAT     H223106   1.630   1.787   7.562
 7622WAT      O23107   6.985   5.230   8.894
 7622WAT     H123108   7.076   5.190   8.885
 7622WAT     H223109   6.924   5.165   8.940
 7623WAT      O23110   5.211   8.224   1.179
 7623WAT     H123111   5.117   8.208   1.209
 7623WAT     H223112   5.252   8.137   1.151
 7624WAT      O23113   5.379   9.735   4.802
 7624WAT     H123114   5.347   9.703   4.713
 7624WAT     H223115   5.455   9.678   4.832
 7625WAT      O23116   7.865   7.474   6.463
 7625WAT     H123117   7.820   7.405   6.519
 7625WAT     H223118   7.877   7.558   6.516
 7626WAT      O23119   6.819   2.488   6.097
 7626WAT     H123120   6.824   2.538   6.184
 7626WAT     H223121   6.904   2.501   6.047
 7627WAT      O23122   7.433   1.662   4.481
 7627WAT     H123123   7.505   1.615   4.430
 7627WAT     H223124   7.344   1.623   4.457
 7628WAT      O23125   7.937   9.506   1.348
 7628WAT     H123126   7.844   9.510   1.382
 7628WAT     H223127   8.000   9.487   1.423
 7629WAT      O23128   7.210   4.119   8.671
 7629WAT     H123129   7.296   4.077   8.641
 7629WAT     H223130   7.150   4.130   8.591
 7630WAT      O23131   7.631   3.049   3.151
 7630WAT     H123132   7.648   2.994   3.070
 7630WAT     H223133   7.552   3.013   3.201
 7631WAT      O23134   1.081   4.541   4.942
 7631WAT     H123135   1.133   4.455   4.939
 7631WAT     H223136   1.070   4.576   4.849
 7632WAT      O23137   8.481   8.422   7.132
 7632WAT     H123138   8.432   8.509   7.126
 7632WAT     H223139   8.565   8.435   7.185
 7633WAT      O23140   3.999   9.045   5.522
 7633WAT     H123141   3.969   9.126   5.471
 7633WAT     H223142   4.057   8.989   5.462
 7634WAT      O23143   2.576   7.112   0.610
 7634WAT     H123144   2.576   7.098   0.511
 7634WAT     H223145   2.526   7.037   0.653
 7635WAT      O23146   9.346   0.275   2.261
 7635WAT     H123147   9.392   0.282   2.349
 7635WAT     H223148   9.288   0.355   2.247
 7636WAT      O23149   9.622   3.342   4.012
 7636WAT     H123150   9.580   3.267   4.063
 7636WAT     H223151   9.591   3.339   3.917
 7637WAT      O23152   9.834   6.755   3.198
 7637WAT     H123153   9.770   6.762   3.122
 7637WAT     H223154   9.807   6.819   3.270
 7638WAT      O23155   9.038   4.687   4.153
 7638WAT     H123156   9.007   4.625   4.080
 7638WAT     H223157   8.967   4.694   4.223
 7639WAT      O23158   7.036   4.621   0.503
 7639WAT     H123159   6.972   4.698   0.509
 7639WAT     H223160   7.020   4.571   0.418
 7640WAT      O23161   7.621   5.824   7.963
 7640WAT     H123162   7.592   5.843   7.870
 7640WAT     H223163   7.545   5.781   8.013
 7641WAT      O23164   9.666   3.022   4.435
 7641WAT     H123165   9.600   2.950   4.413
 7641WAT     H223166   9.754   3.001   4.391
 7642WAT      O23167   6.159   2.912   3.616
 7642WAT     H123168   6.215   2.836   3.649
 7642WAT     H223169   6.204   2.998   3.637
 7643WAT      O23170   4.166   6.563   7.945
 7643WAT     H123171   4.236   6.518   8.000
 7643WAT     H223172   4.160   6.659   7.971
 7644WAT      O23173   5.531   6.296   5.072
 7644WAT     H123174   5.568   6.372   5.018
 7644WAT     H223175   5.432   6.292   5.060
 7645WAT      O23176   0.916   8.582   1.521
 7645WAT     H123177   0.975   8.547   1.593
 7645WAT     H223178   0.941   8.676   1.500
 7646WAT      O23179   7.575   7.042   9.677
 7646WAT     H123180   7.501   7.043   9.744
 7646WAT     H223181   7.548   7.094   9.596
 7647WAT      O23182   8.904   4.681   1.119
 7647WAT     H123183   8.863   4.699   1.030
 7647WAT     H223184   9.002   4.701   1.115
 7648WAT      O23185   4.138   0.744   5.926
 7648WAT     H123186   4.126   0.704   6.017
 7648WAT     H223187   4.146   0.670   5.859
 7649WAT      O23188   5.552   6.722   5.819
 7649WAT     H123189   5.463   6.760   5.842
 7649WAT     H223190   5.541   6.628   5.785
 7650WAT      O23191   3.370   5.807   8.367
 7650WAT     H123192   3.392   5.810   8.465
 7650WAT     H223193   3.455   5.811   8.314
 7651WAT      O23194   5.131   9.785   7.440
 7651WAT     H123195   5.198   9.839   7.491
 7651WAT     H223196   5.161   9.775   7.345
 7652WAT      O23197   0.592   9.360   5.219
 7652WAT     H123198   0.607   9.440   5.161
 7652WAT     H223199   0.612   9.277   5.167
 7653WAT      O23200   7.149   8.294   6.254
 7653WAT     H123201   7.066   8.339   6.287
 7653WAT     H223202   7.212   8.362   6.216
 7654WAT      O23203   7.733   8.174   5.550
 7654WAT     H123204   7.788   8.153   5.470
 7654WAT     H223205   7.662   8.240   5.525
 7655WAT      O23206   4.729   2.989   9.631
 7655WAT     H123207   4.756   3.069   9.685
 7655WAT     H223208   4.810   2.951   9.586
 7656WAT      O23209   5.387   0.570   6.030
 7656WAT     H123210   5.422   0.499   5.968
 7656WAT     H223211   5.312   0.619   5.985
 7657WAT      O23212   7.909   5.549   1.648
 7657WAT     H123213   7.901   5.570   1.551
 7657WAT     H223214   7.991   5.494   1.663
 7658WAT      O23215   3.285   1.135   9.706
 7658WAT     H123216   3.344   1.170   9.778
 7658WAT     H223217   3.189   1.151   9.731
 7659WAT      O23218   3.584   8.976   3.391
 7659WAT     H123219   3.670   8.953   3.346
 7659WAT     H223220   3.539   9.050   3.341
 7660WAT      O23221   2.531   1.486   9.208
 7660WAT     H123222   2.510   1.414   9.274
 7660WAT     H223223   2.630   1.504   9.209
 7661WAT      O23224   0.893   7.419   3.520
 7661WAT     H123225   0.937   7.509   3.513
 7661WAT     H223226   0.898   7.386   3.614
 7662WAT      O23227   2.091   6.759   1.127
 7662WAT     H123228   2.078   6.663   1.152
 7662WAT     H223229   2.086   6.769   1.028
 7663WAT      O23230   6.564   4.063   9.785
 7663WAT     H123231   6.562   3.990   9.854
 7663WAT     H223232   6.609   4.028   9.703
 7664WAT      O23233   2.831   4.308   5.130
 7664WAT     H123234   2.795   4.346   5.045
 7664WAT     H223235   2.913   4.359   5.156
 7665WAT      O23236   9.628   1.024   9.505
 7665WAT     H123237   9.560   0.954   9.530
 7665WAT     H223238   9.633   1.092   9.578
 7666WAT      O23239   8.623   6.225   2.277
 7666WAT     H123240   8.632   6.291   2.202
 7666WAT     H223241   8.658   6.136   2.247
 7667WAT      O23242   5.603   0.106   4.976
 7667WAT     H123243   5.547   0.081   5.055
 7667WAT     H223244   5.605   0.206   4.967
 7668WAT      O23245   3.393   0.787   9.408
 7668WAT     H123246   3.489   0.798   9.384
 7668WAT     H223247   3.382   0.706   9.466
 7669WAT      O23248   9.319   3.195   5.870
 7669WAT     H123249   9.291   3.286   5.838
 7669WAT     H223250   9.405   3.169   5.827
 7670WAT      O23251   4.350   5.848   6.264
 7670WAT     H123252   4.434   5.820   6.311
 7670WAT     H223253   4.341   5.796   6.179
 7671WAT      O23254   6.245   3.513   3.528
 7671WAT     H123255   6.177   3.582   3.550
 7671WAT     H223256   6.337   3.554   3.533
 7672WAT      O23257   4.716   7.025   9.848
 7672WAT     H123258   4.810   7.046   9.822
 7672WAT     H223259   4.653   7.083   9.797
 7673WAT      O23260   7.377   2.513   6.584
 7673WAT     H123261   7.380   2.531   6.486
 7673WAT     H223262   7.329   2.588   6.630
 7674WAT      O23263   5.620   3.860   9.863
 7674WAT     H123264   5.698   3.912   9.826
 7674WAT     H223265   5.649   3.766   9.882
 7675WAT      O23266   2.463   4.481   9.684
 7675WAT     H123267   2.496   4.393   9.650
 7675WAT     H223268   2.508   4.502   9.771
 7676WAT      O23269   5.581   4.429   7.234
 7676WAT     H123270   5.487   4.463   7.236
 7676WAT     H223271   5.585   4.343   7.181
 7677WAT      O23272   4.078   4.399   2.345
 7677WAT     H123273   4.060   4.384   2.442
 7677WAT     H223274   3.994   4.429   2.300
 7678WAT      O23275   9.400   7.275   6.020
 7678WAT     H123276   9.447   7.350   5.974
 7678WAT     H223277   9.457   7.241   6.095
 7679WAT      O23278   8.449   7.879   0.032
 7679WAT     H123279   8.394   7.910   0.109
 7679WAT     H223280   8.535   7.841   0.065
 7680WAT      O23281   1.225   1.664   7.333
 7680WAT     H123282   1.225   1.584   7.392
 7680WAT     H223283   1.235   1.636   7.238
 7681WAT      O23284   0.800   0.160   0.452
 7681WAT     H123285   0.877   0.141   0.513
 7681WAT     H223286   0.826   0.232   0.388
 7682WAT      O23287   7.950   5.872   1.617
 7682WAT     H123288   7.908   5.816   1.688
 7682WAT     H223289   7.895   5.868   1.534
 7683WAT      O23290   2.151   3.368   8.787
 7683WAT     H123291   2.233   3.418   8.757
 7683WAT     H223292   2.168   3.327   8.876
 7684WAT      O23293   3.921   3.722   6.270
 7684WAT     H123294   3.957   3.653   6.206
 7684WAT     H223295   3.955   3.702   6.362
 7685WAT      O23296   1.189   9.517   3.167
 7685WAT     H123297   1.201   9.480   3.074
 7685WAT     H223298   1.203   9.616   3.166
 7686WAT      O23299   7.577   8.977   0.839
 7686WAT     H123300   7.588   8.889   0.792
 7686WAT     H223301   7.507   9.032   0.793
 7687WAT      O23302   8.674   8.799   2.449
 7687WAT     H123303   8.732   8.718   2.445
 7687WAT     H223304   8.731   8.881   2.455
 7688WAT      O23305   4.187   0.774   9.752
 7688WAT     H123306   4.236   0.860   9.735
 7688WAT     H223307   4.140   0.779   9.840
 7689WAT      O23308   7.717   4.507   5.123
 7689WAT     H123309   7.807   4.524   5.084
 7689WAT     H223310   7.693   4.583   5.184
 7690WAT      O23311   2.398   8.401   4.411
 7690WAT     H123312   2.314   8.408   4.357
 7690WAT     H223313   2.394   8.319   4.469
 7691WAT      O23314   0.693   2.574   4.252
 7691WAT     H123315   0.672   2.517   4.332
 7691WAT     H223316   0.721   2.665   4.283
 7692WAT      O23317   1.435   2.730   9.567
 7692WAT     H123318   1.498   2.756   9.641
 7692WAT     H223319   1.414   2.811   9.512
 7693WAT      O23320   3.106   0.793   2.147
 7693WAT     H123321   3.129   0.775   2.243
 7693WAT     H223322   3.169   0.742   2.088
 7694WAT      O23323   4.992   1.876   6.421
 7694WAT     H123324   4.919   1.922   6.371
 7694WAT     H223325   5.005   1.784   6.383
 7695WAT      O23326   4.522   6.336   0.544
 7695WAT     H123327   4.515   6.435   0.535
 7695WAT     H223328   4.609   6.305   0.504
 7696WAT      O23329   4.803   9.117   4.964
 7696WAT     H123330   4.765   9.199   5.008
 7696WAT     H223331   4.895   9.137   4.931
 7697WAT      O23332   9.047   9.208   1.203
 7697WAT     H123333   9.022   9.304   1.218
 7697WAT     H223334   9.118   9.181   1.268
 7698WAT      O23335   2.720   1.815   4.994
 7698WAT     H123336   2.739   1.756   5.073
 7698WAT     H223337   2.726   1.910   5.022
 7699WAT      O23338   4.301   1.691   3.348
 7699WAT     H123339   4.387   1.707   3.397
 7699WAT     H223340   4.278   1.771   3.293
 7700WAT      O23341   1.008   0.004   2.458
 7700WAT     H123342   0.946  -0.048   2.399
 7700WAT     H223343   0.968   0.093   2.479
 7701WAT      O23344   3.887   1.598   0.614
 7701WAT     H123345   3.886   1.650   0.529
 7701WAT     H223346   3.861   1.503   0.596
 7702WAT      O23347   3.632   4.690   6.443
 7702WAT     H123348   3.691   4.618   6.406
 7702WAT     H223349   3.623   4.764   6.377
 7703WAT      O23350   1.101   4.346   0.427
 7703WAT     H123351   1.122   4.360   0.524
 7703WAT     H223352   1.106   4.248   0.406
 7704WAT      O23353   2.907   1.652   9.150
 7704WAT     H123354   2.822   1.704   9.142
 7704WAT     H223355   2.982   1.716   9.167
 7705WAT      O23356   8.081   0.851   8.385
 7705WAT     H123357   8.011   0.911   8.425
 7705WAT     H223358   8.169   0.897   8.387
 7706WAT      O23359   7.382   9.167   4.761
 7706WAT     H123360   7.424   9.104   4.826
 7706WAT     H223361   7.400   9.135   4.668
 7707WAT      O23362   4.131   1.195   0.381
 7707WAT     H123363   4.189   1.220   0.459
 7707WAT     H223364   4.155   1.104   0.349
 7708WAT      O23365   8.935   9.414   4.967
 7708WAT     H123366   8.894   9.497   4.929
 7708WAT     H223367   8.876   9.378   5.039
 7709WAT      O23368   3.390   0.326   3.234
 7709WAT     H123369   3.394   0.226   3.232
 7709WAT     H223370   3.384   0.358   3.329
 7710WAT      O23371   0.837   8.182   3.604
 7710WAT     H123372   0.842   8.093   3.558
 7710WAT     H223373   0.743   8.200   3.631
 7711WAT      O23374   3.115   9.683   9.687
 7711WAT     H123375   3.120   9.675   9.786
 7711WAT     H223376   3.065   9.605   9.649
 7712WAT      O23377   7.254   3.889   2.326
 7712WAT     H123378   7.239   3.988   2.323
 7712WAT     H223379   7.179   3.846   2.376
 7713WAT      O23380   0.877   4.029   1.413
 7713WAT     H123381   0.844   4.122   1.429
 7713WAT     H223382   0.806   3.963   1.439
 7714WAT      O23383   0.281   1.751   4.893
 7714WAT     H123384   0.254   1.730   4.987
 7714WAT     H223385   0.342   1.830   4.893
 7715WAT      O23386   9.192   9.211   1.636
 7715WAT     H123387   9.216   9.295   1.588
 7715WAT     H223388   9.193   9.227   1.734
 7716WAT      O23389   9.169   9.146   7.381
 7716WAT     H123390   9.268   9.144   7.396
 7716WAT     H223391   9.125   9.199   7.454
 7717WAT      O23392   0.141   2.220   1.238
 7717WAT     H123393   0.151   2.283   1.161
 7717WAT     H223394   0.129   2.273   1.323
 7718WAT      O23395   9.708   3.467   5.815
 7718WAT     H123396   9.687   3.375   5.782
 7718WAT     H223397   9.644   3.532   5.774
 7719WAT      O23398   2.369   9.424   7.338
 7719WAT     H123399   2.327   9.506   7.301
 7719WAT     H223400   2.467   9.425   7.320
 7720WAT      O23401   9.797   0.096   7.257
 7720WAT     H123402   9.889   0.124   7.228
 7720WAT     H223403   9.798  -0.002   7.279
 7721WAT      O23404   5.837   4.474   3.263
 7721WAT     H123405   5.936   4.475   3.251
 7721WAT     H223406   5.793   4.517   3.185
 7722WAT      O23407   0.698   3.265   6.883
 7722WAT     H123408   0.748   3.351   6.877
 7722WAT     H223409   0.615   3.279   6.937
 7723WAT      O23410   1.520   5.678   7.012
 7723WAT     H123411   1.507   5.679   6.913
 7723WAT     H223412   1.442   5.724   7.055
 7724WAT      O23413   2.221   8.622   4.511
 7724WAT     H123414   2.220   8.721   4.503
 7724WAT     H223415   2.216   8.580   4.420
 7725WAT      O23416   3.041   5.655   5.449
 7725WAT     H123417   3.009   5.623   5.360
 7725WAT     H223418   3.105   5.589   5.488
 7726WAT      O23419   6.284   8.365   8.826
 7726WAT     H123420   6.295   8.270   8.858
 7726WAT     H223421   6.278   8.426   8.905
 7727WAT      O23422   1.807   5.541   9.630
 7727WAT     H123423   1.889   5.589   9.662
 7727WAT     H223424   1.726   5.579   9.675
 7728WAT      O23425   3.541   8.139   6.636
 7728WAT     H123426   3.602   8.178   6.568
 7728WAT     H223427   3.595   8.112   6.716
 7729WAT      O23428   1.069   0.466   0.700
 7729WAT     H123429   1.068   0.408   0.781
 7729WAT     H223430   1.150   0.444   0.645
 7730WAT      O23431   6.843   2.906   8.219
 7730WAT     H123432   6.926   2.941   8.175
 7730WAT     H223433   6.762   2.947   8.176
 7731WAT      O23434   4.117   8.536   4.567
 7731WAT     H123435   4.067   8.565   4.647
 7731WAT     H223436   4.174   8.611   4.533
 7732WAT      O23437   7.673   5.149   9.006
 7732WAT     H123438   7.670   5.249   9.010
 7732WAT     H223439   7.624   5.111   9.085
 7733WAT      O23440   6.286   7.742   5.189
 7733WAT     H123441   6.206   7.684   5.176
 7733WAT     H223442   6.308   7.789   5.103
 7734WAT      O23443   2.203   8.963   2.637
 7734WAT     H123444   2.245   8.878   2.605
 7734WAT     H223445   2.109   8.968   2.604
 7735WAT      O23446   9.131   2.367   9.226
 7735WAT     H123447   9.109   2.358   9.323
 7735WAT     H223448   9.223   2.333   9.209
 7736WAT      O23449   2.640   5.421   2.914
 7736WAT     H123450   2.710   5.388   2.977
 7736WAT     H223451   2.596   5.502   2.954
 7737WAT      O23452   4.052   6.997   7.589
 7737WAT     H123453   4.038   6.930   7.662
 7737WAT     H223454   4.041   6.953   7.500
 7738WAT      O23455   5.393   3.574   1.761
 7738WAT     H123456   5.476   3.583   1.817
 7738WAT     H223457   5.383   3.654   1.703
 7739WAT      O23458   5.048   2.269   1.057
 7739WAT     H123459   5.046   2.311   0.966
 7739WAT     H223460   5.130   2.213   1.067
 7740WAT      O23461   4.885   7.592   2.648
 7740WAT     H123462   4.797   7.640   2.638
 7740WAT     H223463   4.957   7.646   2.605
 7741WAT      O23464   2.079   8.583   8.815
 7741WAT     H123465   2.141   8.568   8.737
 7741WAT     H223466   2.116   8.655   8.873
 7742WAT      O23467   2.246   6.421   3.807
 7742WAT     H123468   2.151   6.398   3.786
 7742WAT     H223469   2.294   6.445   3.722
 7743WAT      O23470   7.434   4.369   7.171
 7743WAT     H123471   7.414   4.338   7.078
 7743WAT     H223472   7.449   4.291   7.231
 7744WAT      O23473   6.295   6.874   7.414
 7744WAT     H123474   6.363   6.821   7.362
 7744WAT     H223475   6.254   6.943   7.354
 7745WAT      O23476   9.762   0.896   2.993
 7745WAT     H123477   9.815   0.951   2.929
 7745WAT     H223478   9.673   0.875   2.954
 7746WAT      O23479   6.315   2.638   4.262
 7746WAT     H123480   6.363   2.624   4.348
 7746WAT     H223481   6.343   2.726   4.222
 7747WAT      O23482   4.605   2.960   0.951
 7747WAT     H123483   4.653   3.006   1.025
 7747WAT     H223484   4.521   2.917   0.986
 7748WAT      O23485   4.078   9.792   5.849
 7748WAT     H123486   4.006   9.792   5.781
 7748WAT     H223487   4.068   9.713   5.909
 7749WAT      O23488   4.656   7.011   2.209
 7749WAT     H123489   4.577   7.011   2.148
 7749WAT     H223490   4.642   7.079   2.281
 7750WAT      O23491   7.369   4.749   6.150
 7750WAT     H123492   7.337   4.723   6.059
 7750WAT     H223493   7.371   4.849   6.157
 7751WAT      O23494   2.405   2.553   0.145
 7751WAT     H123495   2.488   2.599   0.114
 7751WAT     H223496   2.386   2.475   0.086
 7752WAT      O23497   2.099   2.899   8.938
 7752WAT     H123498   2.057   2.809   8.947
 7752WAT     H223499   2.191   2.897   8.977
 7753WAT      O23500   5.197   3.066   2.427
 7753WAT     H123501   5.145   3.137   2.473
 7753WAT     H223502   5.135   3.005   2.377
 7754WAT      O23503   7.071   4.872   7.520
 7754WAT     H123504   7.100   4.965   7.541
 7754WAT     H223505   7.074   4.816   7.603
 7755WAT      O23506   5.895   5.586   5.568
 7755WAT     H123507   5.924   5.499   5.529
 7755WAT     H223508   5.923   5.661   5.508
 7756WAT      O23509   8.894   4.951   8.856
 7756WAT     H123510   8.806   4.934   8.900
 7756WAT     H223511   8.915   5.049   8.859
 7757WAT      O23512   4.723   9.624   4.573
 7757WAT     H123513   4.776   9.624   4.489
 7757WAT     H223514   4.682   9.534   4.588
 7758WAT      O23515   7.742   8.753   4.935
 7758WAT     H123516   7.663   8.746   4.874
 7758WAT     H223517   7.791   8.666   4.937
 7759WAT      O23518   3.799   3.695   2.334
 7759WAT     H123519   3.720   3.652   2.291
 7759WAT     H223520   3.863   3.624   2.364
 7760WAT      O23521   7.581   7.835   3.932
 7760WAT     H123522   7.616   7.846   3.839
 7760WAT     H223523   7.621   7.905   3.991
 7761WAT      O23524   6.535   9.775   2.293
 7761WAT     H123525   6.527   9.875   2.287
 7761WAT     H223526   6.486   9.734   2.216
 7762WAT      O23527   7.060   6.614   0.565
 7762WAT     H123528   7.140   6.674   0.571
 7762WAT     H223529   7.017   6.625   0.475
 7763WAT      O23530   6.700   6.834   5.659
 7763WAT     H123531   6.799   6.846   5.648
 7763WAT     H223532   6.667   6.893   5.732
 7764WAT      O23533   7.555   1.972   3.210
 7764WAT     H123534   7.533   2.066   3.185
 7764WAT     H223535   7.651   1.953   3.190
 7765WAT      O23536   7.633   1.297   0.789
 7765WAT     H123537   7.699   1.356   0.742
 7765WAT     H223538   7.641   1.203   0.755
 7766WAT      O23539   9.457   1.851   6.299
 7766WAT     H123540   9.546   1.818   6.332
 7766WAT     H223541   9.453   1.844   6.199
 7767WAT      O23542   4.959   7.631   5.613
 7767WAT     H123543   4.957   7.582   5.700
 7767WAT     H223544   4.873   7.615   5.564
 7768WAT      O23545   2.709   8.583   9.733
 7768WAT     H123546   2.737   8.643   9.658
 7768WAT     H223547   2.638   8.520   9.700
 7769WAT      O23548   3.901   8.778   4.989
 7769WAT     H123549   3.916   8.706   5.057
 7769WAT     H223550   3.803   8.798   4.983
 7770WAT      O23551   6.729   8.835   5.182
 7770WAT     H123552   6.774   8.752   5.215
 7770WAT     H223553   6.754   8.912   5.241
 7771WAT      O23554   2.304   4.770   7.559
 7771WAT     H123555   2.249   4.754   7.642
 7771WAT     H223556   2.348   4.859   7.566
 7772WAT      O23557   7.058   5.962   3.297
 7772WAT     H123558   6.997   5.890   3.264
 7772WAT     H223559   7.068   5.955   3.396
 7773WAT      O23560   6.744   4.777   5.836
 7773WAT     H123561   6.748   4.832   5.752
 7773WAT     H223562   6.743   4.680   5.812
 7774WAT      O23563   9.636   2.356   4.697
 7774WAT     H123564   9.631   2.288   4.623
 7774WAT     H223565   9.562   2.340   4.762
 7775WAT      O23566   8.835   0.816   2.862
 7775WAT     H123567   8.910   0.790   2.921
 7775WAT     H223568   8.780   0.886   2.908
 7776WAT      O23569   3.799   6.304   0.514
 7776WAT     H123570   3.741   6.243   0.568
 7776WAT     H223571   3.834   6.377   0.572
 7777WAT      O23572   6.010   4.009   0.394
 7777WAT     H123573   5.915   3.985   0.410
 7777WAT     H223574   6.063   3.926   0.377
 7778WAT      O23575   3.973   1.435   7.096
 7778WAT     H123576   4.004   1.504   7.161
 7778WAT     H223577   4.037   1.430   7.020
 7779WAT      O23578   5.282   4.052   2.819
 7779WAT     H123579   5.278   3.952   2.822
 7779WAT     H223580   5.249   4.089   2.906
 7780WAT      O23581   2.937   7.401   0.504
 7780WAT     H123582   3.022   7.398   0.452
 7780WAT     H223583   2.888   7.315   0.493
 7781WAT      O23584   0.896   0.955   7.869
 7781WAT     H123585   0.847   0.989   7.788
 7781WAT     H223586   0.995   0.960   7.852
 7782WAT      O23587   8.864   4.434   1.975
 7782WAT     H123588   8.883   4.425   1.877
 7782WAT     H223589   8.940   4.393   2.027
 7783WAT      O23590   9.414   2.151   5.176
 7783WAT     H123591   9.436   2.127   5.270
 7783WAT     H223592   9.317   2.134   5.158
 7784WAT      O23593   7.299   2.816   0.032
 7784WAT     H123594   7.297   2.748   0.105
 7784WAT     H223595   7.349   2.897   0.063
 7785WAT      O23596   0.191   2.748   5.018
 7785WAT     H123597   0.131   2.693   4.959
 7785WAT     H223598   0.248   2.807   4.961
 7786WAT      O23599   8.391   5.121   9.610
 7786WAT     H123600   8.449   5.053   9.564
 7786WAT     H223601   8.400   5.111   9.709
 7787WAT      O23602   8.425   2.763   8.241
 7787WAT     H123603   8.343   2.783   8.295
 7787WAT     H223604   8.490   2.711   8.297
 7788WAT      O23605   6.999   8.879   8.328
 7788WAT     H123606   7.056   8.893   8.247
 7788WAT     H223607   6.923   8.943   8.327
 7789WAT      O23608   2.084   6.066   3.297
 7789WAT     H123609   2.144   6.134   3.340
 7789WAT     H223610   2.051   6.102   3.209
 7790WAT      O23611   9.207   6.071   0.164
 7790WAT     H123612   9.265   6.058   0.084
 7790WAT     H223613   9.244   6.146   0.220
 7791WAT      O23614   9.847   1.842   0.256
 7791WAT     H123615   9.766   1.852   0.198
 7791WAT     H223616   9.828   1.879   0.347
 7792WAT      O23617   3.268   3.415   7.282
 7792WAT     H123618   3.343   3.411   7.216
 7792WAT     H223619   3.305   3.415   7.375
 7793WAT      O23620   4.009   8.817   5.953
 7793WAT     H123621   3.989   8.724   5.922
 7793WAT     H223622   3.975   8.882   5.886
 7794WAT      O23623   1.441   8.320   8.588
 7794WAT     H123624   1.473   8.226   8.599
 7794WAT     H223625   1.512   8.375   8.545
 7795WAT      O23626   0.963   7.540   1.448
 7795WAT     H123627   0.998   7.633   1.438
 7795WAT     H223628   1.029   7.475   1.413
 7796WAT      O23629   8.136   4.162   5.306
 7796WAT     H123630   8.070   4.225   5.265
 7796WAT     H223631   8.201   4.132   5.236
 7797WAT      O23632   4.762   3.521   6.631
 7797WAT     H123633   4.839   3.582   6.650
 7797WAT     H223634   4.792   3.426   6.638
 7798WAT      O23635   0.902   5.223   4.297
 7798WAT     H123636   0.804   5.216   4.310
 7798WAT     H223637   0.938   5.136   4.265
 7799WAT      O23638   6.775   7.478   8.468
 7799WAT     H123639   6.740   7.497   8.376
 7799WAT     H223640   6.700   7.447   8.526
 7800WAT      O23641   8.891   2.859   2.138
 7800WAT     H123642   8.960   2.899   2.198
 7800WAT     H223643   8.836   2.932   2.098
 7801WAT      O23644   7.340   3.827   3.667
 7801WAT     H123645   7.280   3.887   3.719
 7801WAT     H223646   7.436   3.852   3.683
 7802WAT      O23647   5.265   7.606   0.466
 7802WAT     H123648   5.173   7.647   0.467
 7802WAT     H223649   5.332   7.675   0.438
 7803WAT      O23650   5.030   4.130   0.836
 7803WAT     H123651   4.985   4.041   0.842
 7803WAT     H223652   5.034   4.158   0.740
 7804WAT      O23653   7.102   6.297   4.210
 7804WAT     H123654   7.202   6.302   4.203
 7804WAT     H223655   7.066   6.250   4.130
 7805WAT      O23656   5.051   1.538   2.674
 7805WAT     H123657   5.023   1.634   2.678
 7805WAT     H223658   5.131   1.524   2.732
 7806WAT      O23659   9.551   8.701   4.756
 7806WAT     H123660   9.525   8.610   4.788
 7806WAT     H223661   9.610   8.744   4.824
 7807WAT      O23662   5.980   4.359   6.242
 7807WAT     H123663   6.011   4.268   6.269
 7807WAT     H223664   5.998   4.373   6.145
 7808WAT      O23665   7.870   9.276   9.336
 7808WAT     H123666   7.807   9.261   9.412
 7808WAT     H223667   7.877   9.374   9.317
 7809WAT      O23668   3.995   0.920   5.700
 7809WAT     H123669   4.051   0.871   5.767
 7809WAT     H223670   4.056   0.965   5.634
 7810WAT      O23671   4.236   6.038   4.499
 7810WAT     H123672   4.210   6.117   4.443
 7810WAT     H223673   4.290   6.068   4.577
 7811WAT      O23674   9.220   1.538   3.117
 7811WAT     H123675   9.235   1.526   3.215
 7811WAT     H223676   9.126   1.513   3.094
 7812WAT      O23677   6.048   4.002   9.706
 7812WAT     H123678   6.068   4.052   9.621
 7812WAT     H223679   5.963   4.035   9.745
 7813WAT      O23680   8.469   8.311   9.510
 7813WAT     H123681   8.450   8.401   9.471
 7813WAT     H223682   8.567   8.301   9.527
 7814WAT      O23683   7.279   4.062   9.024
 7814WAT     H123684   7.249   4.016   8.940
 7814WAT     H223685   7.228   4.147   9.036
 7815WAT      O23686   4.085   8.788   1.427
 7815WAT     H123687   4.075   8.887   1.424
 7815WAT     H223688   4.045   8.747   1.345
 7816WAT      O23689   7.796   1.141   8.958
 7816WAT     H123690   7.722   1.188   9.007
 7816WAT     H223691   7.762   1.109   8.870
 7817WAT      O23692   6.085   3.963   5.935
 7817WAT     H123693   5.992   3.938   5.909
 7817WAT     H223694   6.143   3.882   5.933
 7818WAT      O23695   9.305   1.326   0.093
 7818WAT     H123696   9.286   1.375   0.178
 7818WAT     H223697   9.275   1.382   0.015
 7819WAT      O23698   6.723   1.124   1.487
 7819WAT     H123699   6.784   1.091   1.414
 7819WAT     H223700   6.746   1.219   1.509
 7820WAT      O23701   6.996   0.090   6.168
 7820WAT     H123702   6.910   0.080   6.118
 7820WAT     H223703   6.979   0.137   6.255
 7821WAT      O23704   1.218   6.053   9.879
 7821WAT     H123705   1.138   6.066   9.938
 7821WAT     H223706   1.219   6.122   9.807
 7822WAT      O23707   8.314   2.495   1.722
 7822WAT     H123708   8.384   2.485   1.651
 7822WAT     H223709   8.259   2.577   1.703
 7823WAT      O23710   9.602   4.793   6.529
 7823WAT     H123711   9.566   4.700   6.537
 7823WAT     H223712   9.697   4.795   6.559
 7824WAT      O23713   1.321   1.229   7.822
 7824WAT     H123714   1.317   1.302   7.891
 7824WAT     H223715   1.348   1.267   7.734
 7825WAT      O23716   0.762   3.399   3.177
 7825WAT     H123717   0.788   3.421   3.083
 7825WAT     H223718   0.662   3.397   3.184
 7826WAT      O23719   6.374   8.519   3.886
 7826WAT     H123720   6.397   8.585   3.814
 7826WAT     H223721   6.443   8.446   3.888
 7827WAT      O23722   3.109   2.215   3.766
 7827WAT     H123723   3.038   2.253   3.706
 7827WAT     H223724   3.163   2.289   3.805
 7828WAT      O23725   2.213   3.612   1.704
 7828WAT     H123726   2.273   3.571   1.636
 7828WAT     H223727   2.262   3.686   1.751
 7829WAT      O23728   0.165   1.720   7.106
 7829WAT     H123729   0.075   1.732   7.147
 7829WAT     H223730   0.231   1.779   7.153
 7830WAT      O23731   3.968   2.188   5.648
 7830WAT     H123732   4.036   2.260   5.629
 7830WAT     H223733   4.015   2.103   5.670
 7831WAT      O23734   0.370   9.234   3.559
 7831WAT     H123735   0.380   9.161   3.626
 7831WAT     H223736   0.281   9.227   3.513
 7832WAT      O23737   9.414   7.186   4.613
 7832WAT     H123738   9.342   7.190   4.682
 7832WAT     H223739   9.428   7.277   4.574
 7833WAT      O23740   8.561   0.421   3.311
 7833WAT     H123741   8.566   0.509   3.263
 7833WAT     H223742   8.639   0.412   3.373
 7834WAT      O23743   8.436   0.033   2.496
 7834WAT     H123744   8.436  -0.066   2.484
 7834WAT     H223745   8.518   0.061   2.546
 7835WAT      O23746   3.480   6.546   4.373
 7835WAT     H123747   3.416   6.469   4.382
 7835WAT     H223748   3.569   6.512   4.345
 7836WAT      O23749   4.178   9.771   7.093
 7836WAT     H123750   4.110   9.744   7.162
 7836WAT     H223751   4.251   9.702   7.090
 7837WAT      O23752   5.366   6.082   0.174
 7837WAT     H123753   5.276   6.125   0.182
 7837WAT     H223754   5.437   6.151   0.190
 7838WAT      O23755   4.457   8.137   3.133
 7838WAT     H123756   4.425   8.168   3.223
 7838WAT     H223757   4.436   8.207   3.065
 7839WAT      O23758   0.878   5.369   3.401
 7839WAT     H123759   0.954   5.433   3.410
 7839WAT     H223760   0.795   5.419   3.377
 7840WAT      O23761   6.135   2.142   4.873
 7840WAT     H123762   6.232   2.162   4.883
 7840WAT     H223763   6.086   2.225   4.847
 7841WAT      O23764   5.110   8.680   1.729
 7841WAT     H123765   5.127   8.735   1.810
 7841WAT     H223766   5.161   8.718   1.652
 7842WAT      O23767   3.639   7.296   2.040
 7842WAT     H123768   3.583   7.302   2.122
 7842WAT     H223769   3.591   7.339   1.964
 7843WAT      O23770   8.711   8.274   3.540
 7843WAT     H123771   8.618   8.259   3.574
 7843WAT     H223772   8.736   8.370   3.551
 7844WAT      O23773   3.841   3.520   5.123
 7844WAT     H123774   3.906   3.591   5.150
 7844WAT     H223775   3.782   3.554   5.051
 7845WAT      O23776   0.896   6.908   8.275
 7845WAT     H123777   0.855   6.979   8.332
 7845WAT     H223778   0.833   6.831   8.267
 7846WAT      O23779   4.109   2.716   1.686
 7846WAT     H123780   4.084   2.804   1.727
 7846WAT     H223781   4.145   2.656   1.757
 7847WAT      O23782   9.213   2.703   4.227
 7847WAT     H123783   9.146   2.661   4.288
 7847WAT     H223784   9.167   2.768   4.167
 7848WAT      O23785   0.763   7.987   1.926
 7848WAT     H123786   0.806   7.928   1.994
 7848WAT     H223787   0.755   7.936   1.840
 7849WAT      O23788   6.257   2.110   0.856
 7849WAT     H123789   6.224   2.195   0.897
 7849WAT     H223790   6.344   2.126   0.810
 7850WAT      O23791   2.976   9.551   7.605
 7850WAT     H123792   2.921   9.578   7.526
 7850WAT     H223793   2.919   9.549   7.687
 7851WAT      O23794   0.465   1.845   2.757
 7851WAT     H123795   0.514   1.899   2.688
 7851WAT     H223796   0.368   1.865   2.751
 7852WAT      O23797   9.224   2.699   8.798
 7852WAT     H123798   9.260   2.694   8.891
 7852WAT     H223799   9.210   2.794   8.772
 7853WAT      O23800   1.575   6.848   3.799
 7853WAT     H123801   1.550   6.814   3.889
 7853WAT     H223802   1.573   6.948   3.798
 7854WAT      O23803   5.772   8.475   4.144
 7854WAT     H123804   5.673   8.485   4.155
 7854WAT     H223805   5.818   8.557   4.178
 7855WAT      O23806   7.546   5.057   1.597
 7855WAT     H123807   7.554   5.062   1.498
 7855WAT     H223808   7.636   5.036   1.637
 7856WAT      O23809   0.702   5.559   1.360
 7856WAT     H123810   0.727   5.623   1.433
 7856WAT     H223811   0.694   5.609   1.274
 7857WAT      O23812   6.835   1.538   8.035
 7857WAT     H123813   6.825   1.479   7.955
 7857WAT     H223814   6.766   1.610   8.032
 7858WAT      O23815   7.433   7.127   0.014
 7858WAT     H123816   7.423   7.225   0.029
 7858WAT     H223817   7.342   7.084   0.014
 7859WAT      O23818   3.509   2.130   5.619
 7859WAT     H123819   3.429   2.070   5.616
 7859WAT     H223820   3.588   2.080   5.654
 7860WAT      O23821   2.277   0.711   8.274
 7860WAT     H123822   2.204   0.678   8.333
 7860WAT     H223823   2.340   0.768   8.327
 7861WAT      O23824   6.474   8.277   2.320
 7861WAT     H123825   6.375   8.285   2.326
 7861WAT     H223826   6.498   8.188   2.280
 7862WAT      O23827   1.827   6.296   6.958
 7862WAT     H123828   1.852   6.392   6.945
 7862WAT     H223829   1.738   6.290   7.003
 7863WAT      O23830   7.683   9.014   8.601
 7863WAT     H123831   7.782   9.020   8.613
 7863WAT     H223832   7.660   8.927   8.557
 7864WAT      O23833   7.548   2.151   0.380
 7864WAT     H123834   7.625   2.210   0.404
 7864WAT     H223835   7.553   2.129   0.282
 7865WAT      O23836   7.042   2.527   5.930
 7865WAT     H123837   7.054   2.609   5.874
 7865WAT     H223838   7.106   2.457   5.899
 7866WAT      O23839   9.751   6.455   9.875
 7866WAT     H123840   9.708   6.409   9.954
 7866WAT     H223841   9.715   6.548   9.867
 7867WAT      O23842   3.262   0.131   4.746
 7867WAT     H123843   3.275   0.063   4.675
 7867WAT     H223844   3.332   0.120   4.817
 7868WAT      O23845   8.383   8.160   0.744
 7868WAT     H123846   8.327   8.199   0.671
 7868WAT     H223847   8.478   8.157   0.714
 7869WAT      O23848   8.898   2.407   6.622
 7869WAT     H123849   8.827   2.473   6.597
 7869WAT     H223850   8.856   2.321   6.650
 7870WAT      O23851   9.169   6.453   6.308
 7870WAT     H123852   9.178   6.450   6.208
 7870WAT     H223853   9.073   6.467   6.333
 7871WAT      O23854   4.294   8.804   6.026
 7871WAT     H123855   4.199   8.813   5.998
 7871WAT     H223856   4.349   8.875   5.983
 7872WAT      O23857   2.769   2.678   4.657
 7872WAT     H123858   2.727   2.740   4.724
 7872WAT     H223859   2.867   2.698   4.651
 7873WAT      O23860   5.857   8.097   7.270
 7873WAT     H123861   5.901   8.160   7.206
 7873WAT     H223862   5.889   8.004   7.253
 7874WAT      O23863   7.296   5.005   7.772
 7874WAT     H123864   7.371   5.062   7.805
 7874WAT     H223865   7.236   5.060   7.714
 7875WAT      O23866   0.924   5.159   5.135
 7875WAT     H123867   0.961   5.096   5.066
 7875WAT     H223868   0.995   5.180   5.203
 7876WAT      O23869   6.924   6.184   6.517
 7876WAT     H123870   6.863   6.255   6.482
 7876WAT     H223871   6.942   6.117   6.445
 7877WAT      O23872   9.098   1.081   5.846
 7877WAT     H123873   9.169   1.143   5.881
 7877WAT     H223874   9.141   0.996   5.814
 7878WAT      O23875   6.919   9.072   9.207
 7878WAT     H123876   7.004   9.069   9.154
 7878WAT     H223877   6.912   8.989   9.262
 7879WAT      O23878   6.542   3.901   8.122
 7879WAT     H123879   6.454   3.942   8.147
 7879WAT     H223880   6.592   3.964   8.062
 7880WAT      O23881   2.712   0.512   3.732
 7880WAT     H123882   2.758   0.426   3.708
 7880WAT     H223883   2.685   0.559   3.648
 7881WAT      O23884   2.803   0.360   4.559
 7881WAT     H123885   2.865   0.303   4.613
 7881WAT     H223886   2.839   0.454   4.555
 7882WAT      O23887   4.568   4.193   3.278
 7882WAT     H123888   4.545   4.260   3.208
 7882WAT     H223889   4.667   4.195   3.296
 7883WAT      O23890   4.706   7.583   4.518
 7883WAT     H123891   4.777   7.634   4.567
 7883WAT     H223892   4.616   7.611   4.549
 7884WAT      O23893   0.179   4.051   4.344
 7884WAT     H123894   0.140   4.139   4.372
 7884WAT     H223895   0.118   3.977   4.374
 7885WAT      O23896   6.195   5.135   8.323
 7885WAT     H123897   6.201   5.084   8.237
 7885WAT     H223898   6.098   5.149   8.346
 7886WAT      O23899   0.707   9.524   8.937
 7886WAT     H123900   0.699   9.543   8.839
 7886WAT     H223901   0.760   9.440   8.950
 7887WAT      O23902   6.203   9.523   4.802
 7887WAT     H123903   6.179   9.557   4.893
 7887WAT     H223904   6.302   9.517   4.793
 7888WAT      O23905   4.576   5.190   3.156
 7888WAT     H123906   4.638   5.161   3.230
 7888WAT     H223907   4.548   5.110   3.103
 7889WAT      O23908   8.458   9.040   4.459
 7889WAT     H123909   8.557   9.046   4.476
 7889WAT     H223910   8.425   8.951   4.492
 7890WAT      O23911   2.836   7.400   7.203
 7890WAT     H123912   2.772   7.324   7.197
 7890WAT     H223913   2.900   7.385   7.278
 7891WAT      O23914   1.708   7.074   0.163
 7891WAT     H123915   1.645   7.023   0.103
 7891WAT     H223916   1.663   7.157   0.195
 7892WAT      O23917   2.148   5.704   1.613
 7892WAT     H123918   2.205   5.779   1.644
 7892WAT     H223919   2.089   5.735   1.539
 7893WAT      O23920   6.591   0.480   3.400
 7893WAT     H123921   6.507   0.426   3.394
 7893WAT     H223922   6.607   0.528   3.313
 7894WAT      O23923   0.338   1.473   7.555
 7894WAT     H123924   0.242   1.444   7.552
 7894WAT     H223925   0.343   1.572   7.568
 7895WAT      O23926   4.265   3.816   6.043
 7895WAT     H123927   4.364   3.824   6.029
 7895WAT     H223928   4.238   3.872   6.121
 7896WAT      O23929   0.136   4.346   0.651
 7896WAT     H123930   0.183   4.431   0.623
 7896WAT     H223931   0.049   4.340   0.603
 7897WAT      O23932   3.110   7.803   0.862
 7897WAT     H123933   3.135   7.851   0.778
 7897WAT     H223934   3.098   7.706   0.844
 7898WAT      O23935   8.948   9.058   5.990
 7898WAT     H123936   8.956   9.024   6.084
 7898WAT     H223937   8.952   9.158   5.990
 7899WAT      O23938   4.593   1.180   2.012
 7899WAT     H123939   4.632   1.126   2.086
 7899WAT     H223940   4.493   1.173   2.014
 7900WAT      O23941   7.061   9.549   5.453
 7900WAT     H123942   7.009   9.525   5.534
 7900WAT     H223943   7.143   9.600   5.480
 7901WAT      O23944   2.284   6.957   0.960
 7901WAT     H123945   2.351   6.940   1.033
 7901WAT     H223946   2.234   6.873   0.940
 7902WAT      O23947   8.378   6.626   8.374
 7902WAT     H123948   8.298   6.676   8.408
 7902WAT     H223949   8.385   6.640   8.275
 7903WAT      O23950   2.867   5.152   1.388
 7903WAT     H123951   2.946   5.093   1.401
 7903WAT     H223952   2.783   5.098   1.394
 7904WAT      O23953   0.463   4.631   1.168
 7904WAT     H123954   0.493   4.675   1.084
 7904WAT     H223955   0.533   4.565   1.198
 7905WAT      O23956   5.457   5.111   6.788
 7905WAT     H123957   5.425   5.147   6.875
 7905WAT     H223958   5.546   5.151   6.767
 7906WAT      O23959   7.295   8.420   0.312
 7906WAT     H123960   7.277   8.393   0.406
 7906WAT     H223961   7.219   8.474   0.277
 7907WAT      O23962   3.832   1.721   7.862
 7907WAT     H123963   3.845   1.748   7.766
 7907WAT     H223964   3.886   1.781   7.921
 7908WAT      O23965   6.129   6.923   9.115
 7908WAT     H123966   6.112   6.958   9.023
 7908WAT     H223967   6.208   6.862   9.114
 7909WAT      O23968   5.128   3.297   4.183
 7909WAT     H123969   5.110   3.202   4.209
 7909WAT     H223970   5.188   3.340   4.251
 7910WAT      O23971   5.323   3.603   2.656
 7910WAT     H123972   5.389   3.528   2.656
 7910WAT     H223973   5.328   3.652   2.569
 7911WAT      O23974   2.025   1.721   3.561
 7911WAT     H123975   1.987   1.751   3.473
 7911WAT     H223976   2.018   1.796   3.627
 7912WAT      O23977   3.566   5.776   4.185
 7912WAT     H123978   3.582   5.810   4.278
 7912WAT     H223979   3.472   5.745   4.177
 7913WAT      O23980   8.041   2.252   1.430
 7913WAT     H123981   8.041   2.182   1.359
 7913WAT     H223982   8.059   2.210   1.519
 7914WAT      O23983   2.211   0.629   3.229
 7914WAT     H123984   2.165   0.694   3.169
 7914WAT     H223985   2.288   0.588   3.181
 7915WAT      O23986   9.307   4.580   8.229
 7915WAT     H123987   9.297   4.675   8.256
 7915WAT     H223988   9.323   4.575   8.130
 7916WAT      O23989   2.544   8.836   4.566
 7916WAT     H123990   2.484   8.908   4.530
 7916WAT     H223991   2.511   8.807   4.656
 7917WAT      O23992   8.538   3.645   6.656
 7917WAT     H123993   8.580   3.555   6.669
 7917WAT     H223994   8.576   3.687   6.573
 7918WAT      O23995   5.558   9.035   8.717
 7918WAT     H123996   5.476   9.073   8.757
 7918WAT     H223997   5.602   9.103   8.659
 7919WAT      O23998   2.956   6.014   4.637
 7919WAT     H123999   3.008   6.014   4.722
 7919WAT     H224000   2.991   5.943   4.575
 7920WAT      O24001   9.012   3.339   4.778
 7920WAT     H124002   9.086   3.394   4.741
 7920WAT     H224003   8.965   3.390   4.850
 7921WAT      O24004   2.295   6.884   5.819
 7921WAT     H124005   2.224   6.920   5.758
 7921WAT     H224006   2.288   6.785   5.822
 7922WAT      O24007   6.991   7.041   2.649
 7922WAT     H124008   7.001   7.023   2.747
 7922WAT     H224009   7.000   7.139   2.633
 7923WAT      O24010   5.053   8.783   6.441
 7923WAT     H124011   5.026   8.695   6.403
 7923WAT     H224012   4.987   8.853   6.415
 7924WAT      O24013   3.675   9.698   2.631
 7924WAT     H124014   3.707   9.666   2.541
 7924WAT     H224015   3.754   9.720   2.688
 7925WAT      O24016   4.217   1.959   3.456
 7925WAT     H124017   4.185   2.019   3.529
 7925WAT     H224018   4.308   1.989   3.426
 7926WAT      O24019   7.778   6.677   1.615
 7926WAT     H124020   7.869   6.685   1.574
 7926WAT     H224021   7.746   6.767   1.642
 7927WAT      O24022   1.210   6.292   7.271
 7927WAT     H124023   1.190   6.237   7.353
 7927WAT     H224024   1.284   6.355   7.291
 7928WAT      O24025   5.116   1.565   7.919
 7928WAT     H124026   5.049   1.503   7.879
 7928WAT     H224027   5.201   1.515   7.938
 7929WAT      O24028   0.301   0.914   1.050
 7929WAT     H124029   0.269   0.872   1.135
 7929WAT     H224030   0.350   0.998   1.070
 7930WAT      O24031   7.421   2.907   3.270
 7930WAT     H124032   7.479   2.826   3.281
 7930WAT     H224033   7.363   2.918   3.351
 7931WAT      O24034   7.703   2.164   1.692
 7931WAT     H124035   7.720   2.240   1.629
 7931WAT     H224036   7.664   2.199   1.777
 7932WAT      O24037   0.695   4.736   7.503
 7932WAT     H124038   0.679   4.639   7.524
 7932WAT     H224039   0.738   4.780   7.582
 7933WAT      O24040   8.694   4.104   1.770
 7933WAT     H124041   8.726   4.011   1.749
 7933WAT     H224042   8.680   4.154   1.684
 7934WAT      O24043   3.780   5.338   1.162
 7934WAT     H124044   3.715   5.398   1.116
 7934WAT     H224045   3.773   5.246   1.124
 7935WAT      O24046   7.673   3.652   4.417
 7935WAT     H124047   7.696   3.577   4.356
 7935WAT     H224048   7.757   3.689   4.458
 7936WAT      O24049   5.106   2.593   8.943
 7936WAT     H124050   5.089   2.558   8.850
 7936WAT     H224051   5.098   2.692   8.943
 7937WAT      O24052   5.446   4.941   0.402
 7937WAT     H124053   5.495   5.027   0.386
 7937WAT     H224054   5.407   4.909   0.316
 7938WAT      O24055   8.464   5.461   4.440
 7938WAT     H124056   8.434   5.378   4.392
 7938WAT     H224057   8.411   5.539   4.407
 7939WAT      O24058   3.976   7.534   6.956
 7939WAT     H124059   3.950   7.493   7.043
 7939WAT     H224060   3.899   7.528   6.892
 7940WAT      O24061   5.399   8.883   7.737
 7940WAT     H124062   5.403   8.803   7.677
 7940WAT     H224063   5.304   8.900   7.764
 7941WAT      O24064   5.204   6.766   8.102
 7941WAT     H124065   5.224   6.863   8.114
 7941WAT     H224066   5.268   6.712   8.157
 7942WAT      O24067   7.277   2.415   0.596
 7942WAT     H124068   7.232   2.418   0.685
 7942WAT     H224069   7.287   2.320   0.566
 7943WAT      O24070   0.422   4.113   4.475
 7943WAT     H124071   0.470   4.195   4.444
 7943WAT     H224072   0.332   4.109   4.431
 7944WAT      O24073   4.985   7.275   2.305
 7944WAT     H124074   5.077   7.280   2.268
 7944WAT     H224075   4.936   7.360   2.285
 7945WAT      O24076   3.451   5.932   8.059
 7945WAT     H124077   3.418   6.026   8.060
 7945WAT     H224078   3.531   5.924   8.119
 7946WAT      O24079   7.017   8.196   0.737
 7946WAT     H124080   6.946   8.261   0.764
 7946WAT     H224081   7.058   8.155   0.818
 7947WAT      O24082   5.052   8.297   6.934
 7947WAT     H124083   5.039   8.310   7.032
 7947WAT     H224084   5.050   8.199   6.913
 7948WAT      O24085   0.159   6.561   9.409
 7948WAT     H124086   0.102   6.604   9.479
 7948WAT     H224087   0.255   6.561   9.439
 7949WAT      O24088   0.266   3.976   2.487
 7949WAT     H124089   0.239   4.010   2.397
 7949WAT     H224090   0.336   4.037   2.526
 7950WAT      O24091   7.012   6.167   7.226
 7950WAT     H124092   7.036   6.169   7.129
 7950WAT     H224093   6.948   6.093   7.244
 7951WAT      O24094   6.492   0.889   3.788
 7951WAT     H124095   6.530   0.933   3.707
 7951WAT     H224096   6.559   0.827   3.828
 7952WAT      O24097   5.880   7.315   8.174
 7952WAT     H124098   5.803   7.371   8.206
 7952WAT     H224099   5.846   7.228   8.140
 7953WAT      O24100   9.584   7.629   1.450
 7953WAT     H124101   9.670   7.678   1.469
 7953WAT     H224102   9.595   7.574   1.368
 7954WAT      O24103   4.644   4.240   0.147
 7954WAT     H124104   4.701   4.315   0.179
 7954WAT     H224105   4.649   4.164   0.211
 7955WAT      O24106   5.265   3.986   0.932
 7955WAT     H124107   5.174   4.011   0.901
 7955WAT     H224108   5.275   4.004   1.029
 7956WAT      O24109   7.339   8.819   0.525
 7956WAT     H124110   7.413   8.767   0.483
 7956WAT     H224111   7.306   8.770   0.606
 7957WAT      O24112   5.146   0.733   4.788
 7957WAT     H124113   5.129   0.696   4.880
 7957WAT     H224114   5.238   0.772   4.785
 7958WAT      O24115   2.442   0.961   4.409
 7958WAT     H124116   2.468   0.898   4.336
 7958WAT     H224117   2.368   1.020   4.377
 7959WAT      O24118   0.823   3.380   1.579
 7959WAT     H124119   0.735   3.401   1.535
 7959WAT     H224120   0.897   3.422   1.527
 7960WAT      O24121   2.459   6.894   2.476
 7960WAT     H124122   2.452   6.799   2.507
 7960WAT     H224123   2.502   6.949   2.548
 7961WAT      O24124   5.422   9.089   5.737
 7961WAT     H124125   5.457   9.004   5.775
 7961WAT     H224126   5.438   9.090   5.638
 7962WAT      O24127   8.159   7.583   0.330
 7962WAT     H124128   8.190   7.671   0.366
 7962WAT     H224129   8.142   7.592   0.232
 7963WAT      O24130   1.506   3.598   6.341
 7963WAT     H124131   1.502   3.620   6.439
 7963WAT     H224132   1.596   3.562   6.318
 7964WAT      O24133   2.119   7.331   4.086
 7964WAT     H124134   2.136   7.275   4.004
 7964WAT     H224135   2.081   7.419   4.059
 7965WAT      O24136   3.621   5.638   6.068
 7965WAT     H124137   3.673   5.554   6.082
 7965WAT     H224138   3.523   5.617   6.067
 7966WAT      O24139   8.819   5.254   5.718
 7966WAT     H124140   8.889   5.201   5.765
 7966WAT     H224141   8.859   5.338   5.682
 7967WAT      O24142   1.055   4.737   6.189
 7967WAT     H124143   1.017   4.829   6.179
 7967WAT     H224144   1.070   4.697   6.098
 7968WAT      O24145   0.003   7.697   8.355
 7968WAT     H124146   0.038   7.791   8.344
 7968WAT     H224147  -0.019   7.682   8.451
 7969WAT      O24148   9.672   4.434   6.231
 7969WAT     H124149   9.586   4.482   6.246
 7969WAT     H224150   9.691   4.374   6.308
 7970WAT      O24151   3.171   7.211   8.507
 7970WAT     H124152   3.152   7.119   8.540
 7970WAT     H224153   3.219   7.207   8.420
 7971WAT      O24154   4.388   6.972   2.111
 7971WAT     H124155   4.368   6.923   2.196
 7971WAT     H224156   4.347   7.063   2.114
 7972WAT      O24157   8.382   2.282   3.944
 7972WAT     H124158   8.412   2.367   3.900
 7972WAT     H224159   8.312   2.238   3.886
 7973WAT      O24160   8.928   5.664   9.332
 7973WAT     H124161   8.998   5.728   9.300
 7973WAT     H224162   8.841   5.713   9.342
 7974WAT      O24163   3.154   5.373   5.318
 7974WAT     H124164   3.166   5.385   5.417
 7974WAT     H224165   3.069   5.324   5.301
 7975WAT      O24166   0.749   0.554   7.907
 7975WAT     H124167   0.835   0.567   7.857
 7975WAT     H224168   0.746   0.618   7.984
 7976WAT      O24169   9.031   7.888   5.898
 7976WAT     H124170   8.961   7.958   5.904
 7976WAT     H224171   9.047   7.849   5.989
 7977WAT      O24172   2.146   0.084   4.590
 7977WAT     H124173   2.107  -0.007   4.576
 7977WAT     H224174   2.140   0.137   4.506
 7978WAT      O24175   4.643   7.853   2.235
 7978WAT     H124176   4.594   7.928   2.190
 7978WAT     H224177   4.680   7.886   2.322
 7979WAT      O24178   0.964   0.974   1.449
 7979WAT     H124179   0.967   1.015   1.357
 7979WAT     H224180   0.965   0.875   1.441
 7980WAT      O24181   3.100   3.655   4.180
 7980WAT     H124182   3.074   3.573   4.130
 7980WAT     H224183   3.103   3.733   4.117
 7981WAT      O24184   7.366   8.466   8.747
 7981WAT     H124185   7.408   8.554   8.725
 7981WAT     H224186   7.436   8.400   8.771
 7982WAT      O24187   2.148   2.107   6.947
 7982WAT     H124188   2.129   2.086   6.851
 7982WAT     H224189   2.246   2.098   6.964
 7983WAT      O24190   2.897   1.229   0.128
 7983WAT     H124191   2.834   1.189   0.061
 7983WAT     H224192   2.872   1.198   0.220
 7984WAT      O24193   8.151   0.832   0.786
 7984WAT     H124194   8.209   0.902   0.828
 7984WAT     H224195   8.171   0.744   0.828
 7985WAT      O24196   1.195   9.106   7.904
 7985WAT     H124197   1.174   9.013   7.874
 7985WAT     H224198   1.174   9.170   7.829
 7986WAT      O24199   5.877   2.605   7.380
 7986WAT     H124200   5.860   2.516   7.422
 7986WAT     H224201   5.945   2.655   7.435
 7987WAT      O24202   3.053   8.794   3.455
 7987WAT     H124203   3.108   8.863   3.407
 7987WAT     H224204   3.112   8.721   3.489
 7988WAT      O24205   8.997   0.790   4.742
 7988WAT     H124206   9.039   0.787   4.651
 7988WAT     H224207   8.913   0.844   4.738
 7989WAT      O24208   1.352   2.423   8.689
 7989WAT     H124209   1.413   2.368   8.631
 7989WAT     H224210   1.283   2.364   8.730
 7990WAT      O24211   4.600   8.675   3.334
 7990WAT     H124212   4.630   8.597   3.390
 7990WAT     H224213   4.604   8.759   3.389
 7991WAT      O24214   0.111   9.156   5.132
 7991WAT     H124215   0.112   9.125   5.227
 7991WAT     H224216   0.203   9.154   5.095
 7992WAT      O24217   4.882   3.640   8.607
 7992WAT     H124218   4.915   3.672   8.696
 7992WAT     H224219   4.944   3.569   8.573
 7993WAT      O24220   6.566   9.321   7.629
 7993WAT     H124221   6.507   9.352   7.555
 7993WAT     H224222   6.590   9.398   7.688
 7994WAT      O24223   4.787   2.503   8.991
 7994WAT     H124224   4.724   2.542   9.057
 7994WAT     H224225   4.880   2.532   9.012
 7995WAT      O24226   3.117   2.756   7.179
 7995WAT     H124227   3.215   2.749   7.160
 7995WAT     H224228   3.066   2.725   7.099
 7996WAT      O24229   0.863   1.630   6.734
 7996WAT     H124230   0.921   1.631   6.815
 7996WAT     H224231   0.896   1.561   6.670
 7997WAT      O24232   0.399   7.526   4.552
 7997WAT     H124233   0.330   7.542   4.622
 7997WAT     H224234   0.480   7.485   4.593
 7998WAT      O24235   7.141   1.519   6.644
 7998WAT     H124236   7.133   1.489   6.740
 7998WAT     H224237   7.051   1.513   6.601
 7999WAT      O24238   3.352   4.625   7.505
 7999WAT     H124239   3.396   4.583   7.585
 7999WAT     H224240   3.275   4.681   7.536
 8000WAT      O24241   2.589   8.538   1.871
 8000WAT     H124242   2.544   8.452   1.893
 8000WAT     H224243   2.688   8.527   1.880
 8001WAT      O24244   2.546   4.397   6.151
 8001WAT     H124245   2.590   4.485   6.169
 8001WAT     H224246   2.454   4.413   6.116
 8002WAT      O24247   6.062   3.629   0.333
 8002WAT     H124248   6.142   3.687   0.320
 8002WAT     H224249   5.991   3.681   0.381
 8003WAT      O24250   6.258   9.014   0.101
 8003WAT     H124251   6.292   9.075   0.029
 8003WAT     H224252   6.328   8.946   0.123
 8004WAT      O24253   3.571   0.470   1.544
 8004WAT     H124254   3.641   0.447   1.612
 8004WAT     H224255   3.612   0.524   1.471
 8005WAT      O24256   3.257   6.462   8.349
 8005WAT     H124257   3.200   6.532   8.305
 8005WAT     H224258   3.353   6.488   8.344
 8006WAT      O24259   0.472   0.549   5.863
 8006WAT     H124260   0.432   0.621   5.919
 8006WAT     H224261   0.509   0.477   5.922
 8007WAT      O24262   1.431   7.832   8.659
 8007WAT     H124263   1.383   7.746   8.680
 8007WAT     H224264   1.528   7.813   8.644
 8008WAT      O24265   2.458   3.149   2.562
 8008WAT     H124266   2.399   3.130   2.483
 8008WAT     H224267   2.403   3.190   2.635
 8009WAT      O24268   7.709   9.733   4.202
 8009WAT     H124269   7.610   9.737   4.193
 8009WAT     H224270   7.732   9.689   4.289
 8010WAT      O24271   6.694   9.733   8.119
 8010WAT     H124272   6.647   9.804   8.171
 8010WAT     H224273   6.705   9.652   8.176
 8011WAT      O24274   3.044   1.786   4.260
 8011WAT     H124275   3.075   1.722   4.189
 8011WAT     H224276   3.119   1.848   4.283
 8012WAT      O24277   1.632   8.639   4.464
 8012WAT     H124278   1.616   8.586   4.547
 8012WAT     H224279   1.700   8.592   4.407
 8013WAT      O24280   7.458   6.285   3.641
 8013WAT     H124281   7.552   6.316   3.659
 8013WAT     H224282   7.461   6.194   3.600
 8014WAT      O24283   2.053   0.313   9.618
 8014WAT     H124284   1.973   0.370   9.602
 8014WAT     H224285   2.131   0.371   9.642
 8015WAT      O24286   5.278   4.663   2.771
 8015WAT     H124287   5.231   4.726   2.708
 8015WAT     H224288   5.353   4.618   2.722
 8016WAT      O24289   0.418   1.746   6.616
 8016WAT     H124290   0.401   1.823   6.554
 8016WAT     H224291   0.361   1.757   6.698
 8017WAT      O24292   2.983   6.721   6.412
 8017WAT     H124293   3.050   6.745   6.483
 8017WAT     H224294   2.895   6.765   6.433
 8018WAT      O24295   9.807   9.545   5.851
 8018WAT     H124296   9.826   9.518   5.757
 8018WAT     H224297   9.723   9.501   5.882
 8019WAT      O24298   6.900   2.925   0.164
 8019WAT     H124299   6.841   2.998   0.199
 8019WAT     H224300   6.881   2.840   0.214
 8020WAT      O24301   4.522   4.105   6.076
 8020WAT     H124302   4.477   4.098   5.987
 8020WAT     H224303   4.553   4.199   6.091
 8021WAT      O24304   2.392   0.867   5.079
 8021WAT     H124305   2.400   0.805   5.157
 8021WAT     H224306   2.322   0.833   5.016
 8022WAT      O24307   1.558   9.527   3.198
 8022WAT     H124308   1.498   9.596   3.239
 8022WAT     H224309   1.647   9.529   3.245
 8023WAT      O24310   2.281   4.265   0.093
 8023WAT     H124311   2.237   4.246   0.181
 8023WAT     H224312   2.315   4.359   0.092
 8024WAT      O24313   9.599   8.745   2.150
 8024WAT     H124314   9.698   8.757   2.161
 8024WAT     H224315   9.551   8.816   2.201
 8025WAT      O24316   0.597   5.544   4.033
 8025WAT     H124317   0.636   5.454   4.011
 8025WAT     H224318   0.497   5.537   4.033
 8026WAT      O24319   7.073   9.401   9.532
 8026WAT     H124320   7.053   9.315   9.580
 8026WAT     H224321   7.033   9.398   9.441
 8027WAT      O24322   7.253   5.649   2.676
 8027WAT     H124323   7.248   5.618   2.771
 8027WAT     H224324   7.265   5.748   2.674
 8028WAT      O24325   6.966   2.339   6.321
 8028WAT     H124326   7.024   2.331   6.403
 8028WAT     H224327   6.928   2.431   6.315
 8029WAT      O24328   6.428   0.906   0.486
 8029WAT     H124329   6.350   0.864   0.439
 8029WAT     H224330   6.473   0.971   0.424
 8030WAT      O24331   7.322   4.902   8.041
 8030WAT     H124332   7.319   4.931   7.946
 8030WAT     H224333   7.349   4.978   8.099
 8031WAT      O24334   8.037   0.816   1.311
 8031WAT     H124335   7.941   0.816   1.286
 8031WAT     H224336   8.048   0.859   1.401
 8032WAT      O24337   0.336   3.626   4.265
 8032WAT     H124338   0.237   3.614   4.266
 8032WAT     H224339   0.375   3.585   4.348
 8033WAT      O24340   3.550   2.271   2.467
 8033WAT     H124341   3.488   2.293   2.392
 8033WAT     H224342   3.501   2.277   2.554
 8034WAT      O24343   5.545   0.865   5.579
 8034WAT     H124344   5.460   0.831   5.618
 8034WAT     H224345   5.612   0.791   5.575
 8035WAT      O24346   0.171   9.537   7.950
 8035WAT     H124347   0.233   9.597   8.001
 8035WAT     H224348   0.089   9.587   7.923
 8036WAT      O24349   4.931   5.666   6.573
 8036WAT     H124350   4.916   5.764   6.585
 8036WAT     H224351   5.022   5.642   6.605
 8037WAT      O24352   1.045   0.675   0.037
 8037WAT     H124353   0.976   0.647  -0.031
 8037WAT     H224354   1.114   0.732  -0.007
 8038WAT      O24355   9.225   3.650   3.137
 8038WAT     H124356   9.139   3.669   3.089
 8038WAT     H224357   9.256   3.732   3.184
 8039WAT      O24358   4.001   0.158   6.429
 8039WAT     H124359   4.036   0.095   6.359
 8039WAT     H224360   3.927   0.113   6.479
 8040WAT      O24361   7.811   0.257   1.493
 8040WAT     H124362   7.850   0.175   1.535
 8040WAT     H224363   7.759   0.308   1.561
 8041WAT      O24364   0.860   0.278   2.217
 8041WAT     H124365   0.813   0.214   2.277
 8041WAT     H224366   0.914   0.342   2.272
 8042WAT      O24367   6.006   6.969   3.645
 8042WAT     H124368   5.953   6.886   3.629
 8042WAT     H224369   6.008   6.989   3.743
 8043WAT      O24370   8.240   7.795   5.594
 8043WAT     H124371   8.216   7.887   5.624
 8043WAT     H224372   8.306   7.800   5.519
 8044WAT      O24373   2.507   3.627   1.370
 8044WAT     H124374   2.474   3.641   1.277
 8044WAT     H224375   2.582   3.561   1.369
 8045WAT      O24376   4.425   4.952   6.793
 8045WAT     H124377   4.335   4.974   6.757
 8045WAT     H224378   4.452   5.021   6.860
 8046WAT      O24379   4.405   2.195   5.261
 8046WAT     H124380   4.365   2.256   5.329
 8046WAT     H224381   4.439   2.113   5.306
 8047WAT      O24382   4.791   6.754   3.508
 8047WAT     H124383   4.700   6.718   3.526
 8047WAT     H224384   4.784   6.833   3.447
 8048WAT      O24385   9.747   4.405   5.759
 8048WAT     H124386   9.728   4.485   5.816
 8048WAT     H224387   9.845   4.396   5.745
 8049WAT      O24388   2.365   1.242   1.356
 8049WAT     H124389   2.443   1.183   1.378
 8049WAT     H224390   2.395   1.317   1.298
 8050WAT      O24391   4.704   4.641   9.156
 8050WAT     H124392   4.644   4.595   9.091
 8050WAT     H224393   4.798   4.641   9.120
 8051WAT      O24394   4.224   1.090   5.855
 8051WAT     H124395   4.257   1.184   5.865
 8051WAT     H224396   4.230   1.063   5.758
 8052WAT      O24397   3.075   2.384   6.408
 8052WAT     H124398   2.975   2.383   6.402
 8052WAT     H224399   3.102   2.364   6.502
 8053WAT      O24400   6.112   9.550   4.557
 8053WAT     H124401   6.124   9.533   4.655
 8053WAT     H224402   6.168   9.485   4.506
 8054WAT      O24403   3.788   7.896   2.827
 8054WAT     H124404   3.747   7.987   2.836
 8054WAT     H224405   3.887   7.904   2.831
 8055WAT      O24406   1.947   0.047   8.182
 8055WAT     H124407   1.999   0.128   8.155
 8055WAT     H224408   1.929  -0.009   8.100
 8056WAT      O24409   1.034   4.324   1.711
 8056WAT     H124410   0.941   4.310   1.745
 8056WAT     H224411   1.054   4.253   1.642
 8057WAT      O24412   9.201   5.644   2.793
 8057WAT     H124413   9.117   5.671   2.842
 8057WAT     H224414   9.278   5.646   2.857
 8058WAT      O24415   8.514   2.709   4.880
 8058WAT     H124416   8.425   2.728   4.837
 8058WAT     H224417   8.526   2.769   4.959
 8059WAT      O24418   0.570   9.043   4.832
 8059WAT     H124419   0.529   8.962   4.872
 8059WAT     H224420   0.577   9.032   4.733
 8060WAT      O24421   9.367   4.802   6.002
 8060WAT     H124422   9.300   4.727   6.001
 8060WAT     H224423   9.400   4.815   6.095
 8061WAT      O24424   6.119   7.377   4.778
 8061WAT     H124425   6.113   7.441   4.702
 8061WAT     H224426   6.036   7.322   4.781
 8062WAT      O24427   5.073   0.119   3.367
 8062WAT     H124428   5.079   0.023   3.341
 8062WAT     H224429   5.053   0.175   3.286
 8063WAT      O24430   9.050   7.762   2.423
 8063WAT     H124431   9.100   7.799   2.344
 8063WAT     H224432   8.955   7.745   2.397
 8064WAT      O24433   7.575   5.347   7.679
 8064WAT     H124434   7.598   5.290   7.600
 8064WAT     H224435   7.611   5.439   7.665
 8065WAT      O24436   1.544   6.866   8.693
 8065WAT     H124437   1.630   6.819   8.673
 8065WAT     H224438   1.469   6.800   8.690
 8066WAT      O24439   6.294   5.074   5.342
 8066WAT     H124440   6.333   5.139   5.408
 8066WAT     H224441   6.311   4.981   5.375
 8067WAT      O24442   6.801   2.728   2.012
 8067WAT     H124443   6.727   2.726   1.945
 8067WAT     H224444   6.889   2.726   1.965
 8068WAT      O24445   2.999   6.570   8.340
 8068WAT     H124446   2.955   6.573   8.250
 8068WAT     H224447   2.943   6.516   8.403
 8069WAT      O24448   4.753   0.186   3.143
 8069WAT     H124449   4.744   0.111   3.208
 8069WAT     H224450   4.780   0.150   3.053
 8070WAT      O24451   5.662   8.947   0.032
 8070WAT     H124452   5.669   8.962  -0.067
 8070WAT     H224453   5.751   8.921   0.069
 8071WAT      O24454   8.335   4.663   8.440
 8071WAT     H124455   8.270   4.733   8.412
 8071WAT     H224456   8.286   4.582   8.471
 8072WAT      O24457   5.281   2.436   7.741
 8072WAT     H124458   5.272   2.371   7.666
 8072WAT     H224459   5.256   2.391   7.827
 8073WAT      O24460   1.571   8.604   6.999
 8073WAT     H124461   1.531   8.520   6.963
 8073WAT     H224462   1.505   8.652   7.056
 8074WAT      O24463   9.840   6.152   3.388
 8074WAT     H124464   9.894   6.178   3.308
 8074WAT     H224465   9.748   6.191   3.380
 8075WAT      O24466   7.189   1.260   2.729
 8075WAT     H124467   7.156   1.168   2.707
 8075WAT     H224468   7.183   1.318   2.647
 8076WAT      O24469   7.947   9.540   9.293
 8076WAT     H124470   7.987   9.527   9.384
 8076WAT     H224471   8.021   9.554   9.227
 8077WAT      O24472   7.886   5.228   9.596
 8077WAT     H124473   7.972   5.180   9.578
 8077WAT     H224474   7.812   5.182   9.547
 8078WAT      O24475   0.286   2.453   1.688
 8078WAT     H124476   0.319   2.534   1.736
 8078WAT     H224477   0.208   2.414   1.737
 8079WAT      O24478   5.910   3.300   8.675
 8079WAT     H124479   5.941   3.218   8.627
 8079WAT     H224480   5.810   3.302   8.677
 8080WAT      O24481   3.898   6.471   9.280
 8080WAT     H124482   3.912   6.416   9.198
 8080WAT     H224483   3.968   6.542   9.285
 8081WAT      O24484   8.400   2.304   1.044
 8081WAT     H124485   8.423   2.369   0.971
 8081WAT     H224486   8.304   2.316   1.070
 8082WAT      O24487   0.866   4.176   6.798
 8082WAT     H124488   0.830   4.139   6.712
 8082WAT     H224489   0.964   4.193   6.788
 8083WAT      O24490   1.757   2.164   1.663
 8083WAT     H124491   1.808   2.234   1.614
 8083WAT     H224492   1.794   2.074   1.642
 8084WAT      O24493   2.806   3.671   2.124
 8084WAT     H124494   2.742   3.603   2.160
 8084WAT     H224495   2.758   3.758   2.112
 8085WAT      O24496   7.004   6.669   4.775
 8085WAT     H124497   6.918   6.721   4.772
 8085WAT     H224498   7.016   6.631   4.867
 8086WAT      O24499   9.127   4.813   3.651
 8086WAT     H124500   9.044   4.856   3.616
 8086WAT     H224501   9.131   4.718   3.619
 8087WAT      O24502   0.294   5.516   1.357
 8087WAT     H124503   0.216   5.529   1.419
 8087WAT     H224504   0.268   5.546   1.265
 8088WAT      O24505   5.827   4.685   6.134
 8088WAT     H124506   5.794   4.779   6.147
 8088WAT     H224507   5.911   4.687   6.079
 8089WAT      O24508   4.677   7.717   4.877
 8089WAT     H124509   4.591   7.728   4.827
 8089WAT     H224510   4.694   7.799   4.933
 8090WAT      O24511   2.770   3.869   4.875
 8090WAT     H124512   2.690   3.919   4.909
 8090WAT     H224513   2.833   3.851   4.950
 8091WAT      O24514   9.888   5.306   2.295
 8091WAT     H124515   9.810   5.250   2.322
 8091WAT     H224516   9.973   5.254   2.310
 8092WAT      O24517   5.143   5.806   3.099
 8092WAT     H124518   5.146   5.795   3.199
 8092WAT     H224519   5.224   5.763   3.059
 8093WAT      O24520   4.532   8.048   6.608
 8093WAT     H124521   4.555   7.955   6.581
 8093WAT     H224522   4.559   8.111   6.535
 8094WAT      O24523   5.884   2.852   9.707
 8094WAT     H124524   5.866   2.933   9.652
 8094WAT     H224525   5.810   2.839   9.773
 8095WAT      O24526   8.868   2.878   2.942
 8095WAT     H124527   8.909   2.889   2.852
 8095WAT     H224528   8.826   2.787   2.949
 8096WAT      O24529   8.752   8.300   7.648
 8096WAT     H124530   8.725   8.261   7.736
 8096WAT     H224531   8.842   8.265   7.622
 8097WAT      O24532   6.621   1.533   1.675
 8097WAT     H124533   6.665   1.483   1.600
 8097WAT     H224534   6.657   1.626   1.678
 8098WAT      O24535   3.959   3.497   0.715
 8098WAT     H124536   4.039   3.553   0.740
 8098WAT     H224537   3.973   3.458   0.624
 8099WAT      O24538   0.075   3.794   6.994
 8099WAT     H124539   0.098   3.763   7.086
 8099WAT     H224540   0.022   3.879   6.999
 8100WAT      O24541   2.189   6.125   1.923
 8100WAT     H124542   2.122   6.195   1.944
 8100WAT     H224543   2.174   6.045   1.982
 8101WAT      O24544   3.907   2.997   0.151
 8101WAT     H124545   3.810   3.008   0.171
 8101WAT     H224546   3.945   2.923   0.207
 8102WAT      O24547   1.167   1.873   7.957
 8102WAT     H124548   1.149   1.793   8.014
 8102WAT     H224549   1.211   1.844   7.871
 8103WAT      O24550   7.430   3.403   6.318
 8103WAT     H124551   7.514   3.455   6.326
 8103WAT     H224552   7.416   3.376   6.222
 8104WAT      O24553   9.425   4.870   1.754
 8104WAT     H124554   9.368   4.806   1.703
 8104WAT     H224555   9.521   4.846   1.742
 8105WAT      O24556   4.028   4.889   4.726
 8105WAT     H124557   3.994   4.795   4.735
 8105WAT     H224558   3.989   4.946   4.797
 8106WAT      O24559   4.482   8.374   8.909
 8106WAT     H124560   4.412   8.432   8.866
 8106WAT     H224561   4.466   8.369   9.007
 8107WAT      O24562   0.260   7.824   5.603
 8107WAT     H124563   0.210   7.904   5.571
 8107WAT     H224564   0.345   7.853   5.647
 8108WAT      O24565   2.000   4.417   4.764
 8108WAT     H124566   2.070   4.483   4.790
 8108WAT     H224567   1.926   4.465   4.716
 8109WAT      O24568   9.776   4.706   6.197
 8109WAT     H124569   9.728   4.774   6.142
 8109WAT     H224570   9.726   4.619   6.193
 8110WAT      O24571   8.116   1.345   0.098
 8110WAT     H124572   8.070   1.280   0.159
 8110WAT     H224573   8.066   1.432   0.099
 8111WAT      O24574   1.459   8.448   6.416
 8111WAT     H124575   1.361   8.456   6.399
 8111WAT     H224576   1.476   8.383   6.490
 8112WAT      O24577   6.375   9.389   7.432
 8112WAT     H124578   6.321   9.395   7.516
 8112WAT     H224579   6.315   9.368   7.355
 8113WAT      O24580   5.267   2.655   3.319
 8113WAT     H124581   5.337   2.688   3.382
 8113WAT     H224582   5.309   2.627   3.233
 8114WAT      O24583   1.830   8.138   8.083
 8114WAT     H124584   1.840   8.150   7.984
 8114WAT     H224585   1.918   8.155   8.128
 8115WAT      O24586   4.659   3.053   4.633
 8115WAT     H124587   4.604   3.059   4.549
 8115WAT     H224588   4.625   3.118   4.700
 8116WAT      O24589   5.967   3.995   0.738
 8116WAT     H124590   6.061   3.962   0.743
 8116WAT     H224591   5.931   3.980   0.646
 8117WAT      O24592   4.201   8.501   9.219
 8117WAT     H124593   4.271   8.554   9.172
 8117WAT     H224594   4.170   8.551   9.300
 8118WAT      O24595   5.666   2.995   1.644
 8118WAT     H124596   5.763   3.018   1.638
 8118WAT     H224597   5.626   2.995   1.553
 8119WAT      O24598   6.896   0.380   8.788
 8119WAT     H124599   6.919   0.415   8.880
 8119WAT     H224600   6.892   0.457   8.724
 8120WAT      O24601   3.419   2.541   8.069
 8120WAT     H124602   3.461   2.631   8.077
 8120WAT     H224603   3.358   2.526   8.146
 8121WAT      O24604   3.558   2.952   8.716
 8121WAT     H124605   3.592   3.045   8.700
 8121WAT     H224606   3.634   2.893   8.742
 8122WAT      O24607   1.073   8.172   0.423
 8122WAT     H124608   1.079   8.270   0.443
 8122WAT     H224609   1.056   8.122   0.508
 8123WAT      O24610   8.696   0.801   4.453
 8123WAT     H124611   8.745   0.873   4.404
 8123WAT     H224612   8.713   0.809   4.551
 8124WAT      O24613   1.536   8.644   4.766
 8124WAT     H124614   1.559   8.727   4.715
 8124WAT     H224615   1.531   8.665   4.864
 8125WAT      O24616   0.286   9.178   6.909
 8125WAT     H124617   0.299   9.210   7.002
 8125WAT     H224618   0.300   9.079   6.906
 8126WAT      O24619   0.717   4.334   6.958
 8126WAT     H124620   0.746   4.266   6.890
 8126WAT     H224621   0.621   4.318   6.981
 8127WAT      O24622   7.176   7.954   2.318
 8127WAT     H124623   7.243   7.902   2.371
 8127WAT     H224624   7.177   8.049   2.348
 8128WAT      O24625   1.553   0.230   7.495
 8128WAT     H124626   1.461   0.265   7.475
 8128WAT     H224627   1.615   0.255   7.420
 8129WAT      O24628   9.435   0.800   0.304
 8129WAT     H124629   9.410   0.705   0.286
 8129WAT     H224630   9.503   0.830   0.238
 8130WAT      O24631   3.922   7.799   9.145
 8130WAT     H124632   3.973   7.831   9.065
 8130WAT     H224633   3.836   7.758   9.115
 8131WAT      O24634   9.569   9.433   0.119
 8131WAT     H124635   9.592   9.525   0.088
 8131WAT     H224636   9.653   9.382   0.138
 8132WAT      O24637   6.177   9.072   1.093
 8132WAT     H124638   6.237   9.092   1.016
 8132WAT     H224639   6.163   9.155   1.147
 8133WAT      O24640   6.362   8.329   5.021
 8133WAT     H124641   6.345   8.365   5.113
 8133WAT     H224642   6.449   8.365   4.987
 8134WAT      O24643   0.203   1.792   8.829
 8134WAT     H124644   0.201   1.864   8.899
 8134WAT     H224645   0.282   1.732   8.844
 8135WAT      O24646   9.129   2.278   6.097
 8135WAT     H124647   9.080   2.329   6.026
 8135WAT     H224648   9.069   2.266   6.176
 8136WAT      O24649   6.737   3.808   6.204
 8136WAT     H124650   6.790   3.774   6.127
 8136WAT     H224651   6.747   3.746   6.282
 8137WAT      O24652   5.539   7.536   4.532
 8137WAT     H124653   5.453   7.564   4.576
 8137WAT     H224654   5.540   7.570   4.438
 8138WAT      O24655   4.520   7.205   6.147
 8138WAT     H124656   4.464   7.149   6.086
 8138WAT     H224657   4.564   7.278   6.095
 8139WAT      O24658   7.800   6.144   5.819
 8139WAT     H124659   7.868   6.118   5.887
 8139WAT     H224660   7.715   6.170   5.865
 8140WAT      O24661   4.633   1.677   0.777
 8140WAT     H124662   4.622   1.776   0.773
 8140WAT     H224663   4.546   1.632   0.757
 8141WAT      O24664   9.820   5.927   2.245
 8141WAT     H124665   9.786   5.963   2.158
 8141WAT     H224666   9.756   5.950   2.318
 8142WAT      O24667   6.301   3.095   3.749
 8142WAT     H124668   6.342   3.017   3.797
 8142WAT     H224669   6.366   3.171   3.747
 8143WAT      O24670   0.236   1.928   9.060
 8143WAT     H124671   0.201   1.855   9.118
 8143WAT     H224672   0.309   1.977   9.108
 8144WAT      O24673   8.110   1.232   3.341
 8144WAT     H124674   8.209   1.226   3.329
 8144WAT     H224675   8.064   1.181   3.268
 8145WAT      O24676   8.055   9.591   0.436
 8145WAT     H124677   7.997   9.531   0.381
 8145WAT     H224678   7.998   9.643   0.500
 8146WAT      O24679   6.284   3.125   4.236
 8146WAT     H124680   6.274   3.203   4.297
 8146WAT     H224681   6.217   3.130   4.163
 8147WAT      O24682   7.047   1.055   1.005
 8147WAT     H124683   7.064   0.976   1.063
 8147WAT     H224684   7.134   1.093   0.975
 8148WAT      O24685   3.048   3.181   5.654
 8148WAT     H124686   3.137   3.225   5.639
 8148WAT     H224687   3.023   3.189   5.751
 8149WAT      O24688   4.470   7.372   6.546
 8149WAT     H124689   4.546   7.393   6.485
 8149WAT     H224690   4.497   7.391   6.640
 8150WAT      O24691   7.046   0.410   8.080
 8150WAT     H124692   7.017   0.405   8.176
 8150WAT     H224693   7.081   0.321   8.051
 8151WAT      O24694   0.438   9.147   5.639
 8151WAT     H124695   0.408   9.167   5.733
 8151WAT     H224696   0.411   9.222   5.579
 8152WAT      O24697   3.605   4.187   4.006
 8152WAT     H124698   3.535   4.246   3.966
 8152WAT     H224699   3.645   4.232   4.086
 8153WAT      O24700   7.566   3.697   0.112
 8153WAT     H124701   7.475   3.657   0.104
 8153WAT     H224702   7.624   3.662   0.038
 8154WAT      O24703   4.361   9.138   7.601
 8154WAT     H124704   4.363   9.167   7.697
 8154WAT     H224705   4.418   9.056   7.590
 8155WAT      O24706   8.323   6.852   4.080
 8155WAT     H124707   8.294   6.758   4.064
 8155WAT     H224708   8.337   6.899   3.993
 8156WAT      O24709   2.800   4.582   5.531
 8156WAT     H124710   2.844   4.671   5.521
 8156WAT     H224711   2.869   4.509   5.528
 8157WAT      O24712   8.408   5.370   9.293
 8157WAT     H124713   8.467   5.290   9.302
 8157WAT     H224714   8.458   5.442   9.244
 8158WAT      O24715   1.550   2.737   6.437
 8158WAT     H124716   1.533   2.829   6.471
 8158WAT     H224717   1.470   2.705   6.385
 8159WAT      O24718   8.446   5.640   3.103
 8159WAT     H124719   8.360   5.640   3.054
 8159WAT     H224720   8.504   5.715   3.071
 8160WAT      O24721   3.290   9.754   3.887
 8160WAT     H124722   3.327   9.836   3.844
 8160WAT     H224723   3.351   9.676   3.869
 8161WAT      O24724   4.440   1.981   1.792
 8161WAT     H124725   4.401   2.054   1.848
 8161WAT     H224726   4.367   1.923   1.757
 8162WAT      O24727   8.714   4.213   9.780
 8162WAT     H124728   8.745   4.295   9.732
 8162WAT     H224729   8.785   4.181   9.843
 8163WAT      O24730   2.304   0.325   1.207
 8163WAT     H124731   2.354   0.388   1.147
 8163WAT     H224732   2.224   0.371   1.245
 8164WAT      O24733   3.703   0.623   0.678
 8164WAT     H124734   3.722   0.602   0.774
 8164WAT     H224735   3.640   0.555   0.641
 8165WAT      O24736   4.333   1.012   9.768
 8165WAT     H124737   4.299   1.095   9.813
 8165WAT     H224738   4.415   0.980   9.817
 8166WAT      O24739   1.604   6.042   9.143
 8166WAT     H124740   1.551   5.975   9.195
 8166WAT     H224741   1.607   6.014   9.047
 8167WAT      O24742   3.712   8.533   8.366
 8167WAT     H124743   3.707   8.452   8.424
 8167WAT     H224744   3.620   8.573   8.357
 8168WAT      O24745   2.466   8.745   6.327
 8168WAT     H124746   2.524   8.808   6.379
 8168WAT     H224747   2.457   8.659   6.377
 8169WAT      O24748   3.834   8.239   8.353
 8169WAT     H124749   3.844   8.210   8.448
 8169WAT     H224750   3.740   8.223   8.323
 8170WAT      O24751   2.009   1.905   3.746
 8170WAT     H124752   1.912   1.931   3.742
 8170WAT     H224753   2.031   1.873   3.838
 8171WAT      O24754   4.996   7.567   1.873
 8171WAT     H124755   4.996   7.526   1.782
 8171WAT     H224756   5.014   7.497   1.941
 8172WAT      O24757   8.558   4.341   2.314
 8172WAT     H124758   8.534   4.249   2.345
 8172WAT     H224759   8.657   4.350   2.309
 8173WAT      O24760   9.701   6.577   1.149
 8173WAT     H124761   9.757   6.624   1.081
 8173WAT     H224762   9.721   6.614   1.240
 8174WAT      O24763   7.982   7.353   8.575
 8174WAT     H124764   7.906   7.309   8.623
 8174WAT     H224765   8.065   7.300   8.588
 8175WAT      O24766   6.378   8.438   7.135
 8175WAT     H124767   6.322   8.368   7.091
 8175WAT     H224768   6.431   8.487   7.066
 8176WAT      O24769   7.249   4.517   0.648
 8176WAT     H124770   7.314   4.455   0.604
 8176WAT     H224771   7.165   4.522   0.593
 8177WAT      O24772   9.035   8.318   1.548
 8177WAT     H124773   9.109   8.264   1.507
 8177WAT     H224774   8.962   8.330   1.481
 8178WAT      O24775   9.745   6.418   7.259
 8178WAT     H124776   9.763   6.341   7.321
 8178WAT     H224777   9.647   6.424   7.241
 8179WAT      O24778   7.753   7.207   6.214
 8179WAT     H124779   7.759   7.222   6.313
 8179WAT     H224780   7.809   7.128   6.189
 8180WAT      O24781   0.282   0.722   1.681
 8180WAT     H124782   0.253   0.799   1.736
 8180WAT     H224783   0.285   0.639   1.737
 8181WAT      O24784   1.879   5.917   0.412
 8181WAT     H124785   1.967   5.926   0.365
 8181WAT     H224786   1.885   5.846   0.482
 8182WAT      O24787   9.763   5.507   9.273
 8182WAT     H124788   9.727   5.600   9.277
 8182WAT     H224789   9.694   5.446   9.232
 8183WAT      O24790   7.591   4.997   8.212
 8183WAT     H124791   7.660   4.949   8.265
 8183WAT     H224792   7.633   5.041   8.133
 8184WAT      O24793   1.031   1.188   1.038
 8184WAT     H124794   0.992   1.280   1.029
 8184WAT     H224795   1.073   1.161   0.951
 8185WAT      O24796   7.256   5.560   5.818
 8185WAT     H124797   7.212   5.650   5.815
 8185WAT     H224798   7.315   5.549   5.738
 8186WAT      O24799   6.466   7.361   9.821
 8186WAT     H124800   6.460   7.320   9.730
 8186WAT     H224801   6.375   7.373   9.860
 8187WAT      O24802   7.464   4.673   2.468
 8187WAT     H124803   7.424   4.738   2.533
 8187WAT     H224804   7.513   4.601   2.518
 8188WAT      O24805   3.912   9.404   5.800
 8188WAT     H124806   3.847   9.357   5.740
 8188WAT     H224807   4.005   9.382   5.772
 8189WAT      O24808   0.574   0.074   6.189
 8189WAT     H124809   0.477   0.075   6.166
 8189WAT     H224810   0.587   0.107   6.282
 8190WAT      O24811   2.099   1.745   3.978
 8190WAT     H124812   2.039   1.669   3.953
 8190WAT     H224813   2.064   1.790   4.060
 8191WAT      O24814   4.579   6.708   3.258
 8191WAT     H124815   4.658   6.654   3.230
 8191WAT     H224816   4.601   6.806   3.254
 8192WAT      O24817   5.807   4.212   5.753
 8192WAT     H124818   5.888   4.237   5.701
 8192WAT     H224819   5.737   4.178   5.691
 8193WAT      O24820   4.956   8.824   3.320
 8193WAT     H124821   4.983   8.862   3.231
 8193WAT     H224822   4.963   8.724   3.317
 8194WAT      O24823   7.192   3.001   4.558
 8194WAT     H124824   7.277   3.002   4.505
 8194WAT     H224825   7.182   2.912   4.603
 8195WAT      O24826   1.829   4.858   7.146
 8195WAT     H124827   1.735   4.882   7.122
 8195WAT     H224828   1.841   4.759   7.141
 8196WAT      O24829   0.636   9.048   7.528
 8196WAT     H124830   0.718   8.991   7.530
 8196WAT     H224831   0.648   9.121   7.460
 8197WAT      O24832   6.657   7.160   3.331
 8197WAT     H124833   6.557   7.166   3.324
 8197WAT     H224834   6.687   7.068   3.304
 8198WAT      O24835   2.000   7.375   6.166
 8198WAT     H124836   1.987   7.337   6.258
 8198WAT     H224837   2.097   7.375   6.143
 8199WAT      O24838   4.384   7.051   4.771
 8199WAT     H124839   4.468   7.093   4.802
 8199WAT     H224840   4.401   7.000   4.687
 8200WAT      O24841   6.098   5.941   8.972
 8200WAT     H124842   6.042   5.886   9.034
 8200WAT     H224843   6.074   6.038   8.982
 8201WAT      O24844   1.131   8.663   0.849
 8201WAT     H124845   1.071   8.634   0.774
 8201WAT     H224846   1.156   8.584   0.904
 8202WAT      O24847   1.769   8.000   1.712
 8202WAT     H124848   1.778   8.097   1.734
 8202WAT     H224849   1.714   7.990   1.629
 8203WAT      O24850   6.455   7.130   1.005
 8203WAT     H124851   6.545   7.087   0.993
 8203WAT     H224852   6.466   7.218   1.052
 8204WAT      O24853   0.637   0.744   4.232
 8204WAT     H124854   0.626   0.802   4.312
 8204WAT     H224855   0.555   0.688   4.220
 8205WAT      O24856   6.812   6.607   9.054
 8205WAT     H124857   6.812   6.516   9.012
 8205WAT     H224858   6.904   6.628   9.086
 8206WAT      O24859   5.154   0.459   1.070
 8206WAT     H124860   5.130   0.490   0.978
 8206WAT     H224861   5.206   0.374   1.064
 8207WAT      O24862   6.033   8.136   4.458
 8207WAT     H124863   6.106   8.201   4.437
 8207WAT     H224864   6.025   8.126   4.557
 8208WAT      O24865   8.711   2.652   2.945
 8208WAT     H124866   8.620   2.658   2.987
 8208WAT     H224867   8.703   2.614   2.853
 8209WAT      O24868   3.861   1.624   2.199
 8209WAT     H124869   3.919   1.618   2.281
 8209WAT     H224870   3.831   1.718   2.187
 8210WAT      O24871   7.761   2.622   8.201
 8210WAT     H124872   7.832   2.568   8.155
 8210WAT     H224873   7.780   2.627   8.299
 8211WAT      O24874   3.397   1.443   4.942
 8211WAT     H124875   3.385   1.483   5.033
 8211WAT     H224876   3.493   1.422   4.927
 8212WAT      O24877   1.314   1.977   5.206
 8212WAT     H124878   1.314   1.938   5.298
 8212WAT     H224879   1.260   2.061   5.205
 8213WAT      O24880   1.375   5.931   1.358
 8213WAT     H124881   1.352   5.847   1.408
 8213WAT     H224882   1.322   6.008   1.395
 8214WAT      O24883   7.000   6.157   3.986
 8214WAT     H124884   7.050   6.194   3.907
 8214WAT     H224885   6.928   6.095   3.953
 8215WAT      O24886   3.694   1.969   0.167
 8215WAT     H124887   3.618   1.990   0.105
 8215WAT     H224888   3.781   1.985   0.120
 8216WAT      O24889   8.388   1.577   4.706
 8216WAT     H124890   8.323   1.510   4.743
 8216WAT     H224891   8.476   1.532   4.690
 8217WAT      O24892   4.956   0.364   9.257
 8217WAT     H124893   5.011   0.403   9.331
 8217WAT     H224894   4.906   0.437   9.211
 8218WAT      O24895   9.218   1.538   9.817
 8218WAT     H124896   9.308   1.523   9.776
 8218WAT     H224897   9.155   1.573   9.747
 8219WAT      O24898   2.621   4.605   7.940
 8219WAT     H124899   2.593   4.509   7.945
 8219WAT     H224900   2.540   4.663   7.950
 8220WAT      O24901   7.979   6.676   4.281
 8220WAT     H124902   8.029   6.590   4.269
 8220WAT     H224903   7.960   6.716   4.192
 8221WAT      O24904   6.849   8.389   6.604
 8221WAT     H124905   6.760   8.342   6.609
 8221WAT     H224906   6.920   8.330   6.641
 8222WAT      O24907   7.537   3.310   3.371
 8222WAT     H124908   7.507   3.392   3.419
 8222WAT     H224909   7.506   3.229   3.421
 8223WAT      O24910   3.172   6.789   8.138
 8223WAT     H124911   3.114   6.784   8.219
 8223WAT     H224912   3.122   6.833   8.064
 8224WAT      O24913   8.677   2.593   6.304
 8224WAT     H124914   8.654   2.504   6.264
 8224WAT     H224915   8.686   2.584   6.403
 8225WAT      O24916   9.275   5.959   2.214
 8225WAT     H124917   9.193   5.904   2.202
 8225WAT     H224918   9.339   5.941   2.139
 8226WAT      O24919   3.461   1.053   7.179
 8226WAT     H124920   3.559   1.033   7.180
 8226WAT     H224921   3.442   1.127   7.115
 8227WAT      O24922   4.904   5.043   6.288
 8227WAT     H124923   4.905   5.089   6.377
 8227WAT     H224924   4.811   5.015   6.266
 8228WAT      O24925   7.879   5.059   0.165
 8228WAT     H124926   7.865   5.054   0.263
 8228WAT     H224927   7.898   4.968   0.128
 8229WAT      O24928   2.910   2.334   2.329
 8229WAT     H124929   2.982   2.385   2.377
 8229WAT     H224930   2.874   2.262   2.388
 8230WAT      O24931   2.626   8.468   1.283
 8230WAT     H124932   2.716   8.440   1.252
 8230WAT     H224933   2.615   8.444   1.380
 8231WAT      O24934   6.231   8.073   0.316
 8231WAT     H124935   6.280   7.996   0.355
 8231WAT     H224936   6.177   8.118   0.386
 8232WAT      O24937   4.062   9.371   0.507
 8232WAT     H124938   4.079   9.327   0.419
 8232WAT     H224939   4.121   9.451   0.515
 8233WAT      O24940   3.080   7.782   6.472
 8233WAT     H124941   3.172   7.757   6.442
 8233WAT     H224942   3.079   7.793   6.572
 8234WAT      O24943   5.905   8.944   3.400
 8234WAT     H124944   5.949   8.900   3.479
 8234WAT     H224945   5.842   8.880   3.357
 8235WAT      O24946   2.472   8.138   8.241
 8235WAT     H124947   2.522   8.058   8.209
 8235WAT     H224948   2.377   8.113   8.261
 8236WAT      O24949   0.638   6.706   0.423
 8236WAT     H124950   0.568   6.675   0.486
 8236WAT     H224951   0.658   6.633   0.357
 8237WAT      O24952   6.048   9.071   7.644
 8237WAT     H124953   5.953   9.103   7.640
 8237WAT     H224954   6.092   9.107   7.725
 8238WAT      O24955   3.370   2.226   1.418
 8238WAT     H124956   3.420   2.305   1.453
 8238WAT     H224957   3.410   2.198   1.331
 8239WAT      O24958   3.795   5.593   9.364
 8239WAT     H124959   3.789   5.522   9.434
 8239WAT     H224960   3.850   5.559   9.287
 8240WAT      O24961   7.784   6.069   2.898
 8240WAT     H124962   7.801   6.149   2.955
 8240WAT     H224963   7.843   5.993   2.928
 8241WAT      O24964   5.548   3.361   3.280
 8241WAT     H124965   5.459   3.402   3.298
 8241WAT     H224966   5.577   3.307   3.359
 8242WAT      O24967   8.489   4.936   9.840
 8242WAT     H124968   8.463   4.840   9.832
 8242WAT     H224969   8.564   4.955   9.777
 8243WAT      O24970   8.409   3.431   0.372
 8243WAT     H124971   8.488   3.470   0.420
 8243WAT     H224972   8.362   3.504   0.322
 8244WAT      O24973   5.820   1.348   6.014
 8244WAT     H124974   5.768   1.395   6.086
 8244WAT     H224975   5.772   1.358   5.927
 8245WAT      O24976   5.229   9.036   3.441
 8245WAT     H124977   5.283   9.064   3.521
 8245WAT     H224978   5.226   8.936   3.436
 8246WAT      O24979   4.008   6.792   1.674
 8246WAT     H124980   4.105   6.787   1.653
 8246WAT     H224981   3.975   6.701   1.700
 8247WAT      O24982   0.575   4.285   9.424
 8247WAT     H124983   0.650   4.248   9.369
 8247WAT     H224984   0.611   4.318   9.512
 8248WAT      O24985   9.341   2.017   0.577
 8248WAT     H124986   9.316   2.102   0.624
 8248WAT     H224987   9.268   1.991   0.515
 8249WAT      O24988   8.561   7.859   9.057
 8249WAT     H124989   8.498   7.872   8.981
 8249WAT     H224990   8.554   7.765   9.090
 8250WAT      O24991   6.946   6.647   0.308
 8250WAT     H124992   6.850   6.644   0.280
 8250WAT     H224993   6.976   6.742   0.311
 8251WAT      O24994   2.524   2.653   4.236
 8251WAT     H124995   2.536   2.565   4.190
 8251WAT     H224996   2.580   2.656   4.318
 8252WAT      O24997   0.055   3.704   1.755
 8252WAT     H124998   0.028   3.719   1.660
 8252WAT     H224999   0.044   3.789   1.806
 8253WAT      O25000   7.082   6.804   7.617
 8253WAT     H125001   7.053   6.724   7.566
 8253WAT     H225002   7.005   6.866   7.629
 8254WAT      O25003   5.382   5.718   3.933
 8254WAT     H125004   5.329   5.634   3.919
 8254WAT     H225005   5.350   5.789   3.870
 8255WAT      O25006   6.973   8.031   4.082
 8255WAT     H125007   6.945   8.127   4.094
 8255WAT     H225008   7.072   8.025   4.092
 8256WAT      O25009   2.753   6.739   1.392
 8256WAT     H125010   2.672   6.685   1.412
 8256WAT     H225011   2.739   6.790   1.307
 8257WAT      O25012   5.801   7.117   0.624
 8257WAT     H125013   5.765   7.087   0.536
 8257WAT     H225014   5.895   7.084   0.635
 8258WAT      O25015   9.445   5.354   1.421
 8258WAT     H125016   9.364   5.400   1.383
 8258WAT     H225017   9.418   5.300   1.500
 8259WAT      O25018   3.057   7.559   1.195
 8259WAT     H125019   3.047   7.572   1.294
 8259WAT     H225020   2.984   7.609   1.148
 8260WAT      O25021   2.293   2.386   7.210
 8260WAT     H125022   2.253   2.415   7.124
 8260WAT     H225023   2.228   2.402   7.285
 8261WAT      O25024   6.452   3.334   7.315
 8261WAT     H125025   6.398   3.269   7.260
 8261WAT     H225026   6.543   3.343   7.276
 8262WAT      O25027   1.811   3.865   0.150
 8262WAT     H125028   1.739   3.933   0.140
 8262WAT     H225029   1.778   3.789   0.205
 8263WAT      O25030   6.779   8.838   9.631
 8263WAT     H125031   6.692   8.865   9.673
 8263WAT     H225032   6.772   8.743   9.599
 8264WAT      O25033   0.974   2.046   9.011
 8264WAT     H125034   0.894   2.069   8.956
 8264WAT     H225035   1.032   1.982   8.962
 8265WAT      O25036   6.591   0.330   1.399
 8265WAT     H125037   6.502   0.373   1.413
 8265WAT     H225038   6.601   0.304   1.303
 8266WAT      O25039   0.852   3.321   7.976
 8266WAT     H125040   0.839   3.237   7.923
 8266WAT     H225041   0.815   3.399   7.924
 8267WAT      O25042   5.871   3.484   7.625
 8267WAT     H125043   5.950   3.531   7.665
 8267WAT     H225044   5.835   3.418   7.691
 8268WAT      O25045   0.705   6.292   9.153
 8268WAT     H125046   0.777   6.243   9.201
 8268WAT     H225047   0.650   6.343   9.219
 8269WAT      O25048   5.075   7.505   4.648
 8269WAT     H125049   5.121   7.460   4.724
 8269WAT     H225050   5.129   7.583   4.618
 8270WAT      O25051   7.906   4.285   3.044
 8270WAT     H125052   7.877   4.197   3.005
 8270WAT     H225053   7.965   4.268   3.123
 8271WAT      O25054   4.282   2.486   3.573
 8271WAT     H125055   4.252   2.401   3.529
 8271WAT     H225056   4.226   2.562   3.539
 8272WAT      O25057   4.310   6.868   6.455
 8272WAT     H125058   4.335   6.837   6.547
 8272WAT     H225059   4.341   6.962   6.442
 8273WAT      O25060   1.067   6.420   1.785
 8273WAT     H125061   1.100   6.513   1.766
 8273WAT     H225062   1.025   6.383   1.702
 8274WAT      O25063   4.721   4.763   7.086
 8274WAT     H125064   4.668   4.684   7.054
 8274WAT     H225065   4.659   4.833   7.122
 8275WAT      O25066   1.418   0.319   1.726
 8275WAT     H125067   1.370   0.404   1.748
 8275WAT     H225068   1.384   0.283   1.639
 8276WAT      O25069   1.446   1.145   9.350
 8276WAT     H125070   1.508   1.207   9.399
 8276WAT     H225071   1.357   1.146   9.394
 8277WAT      O25072   6.950   1.698   9.876
 8277WAT     H125073   6.882   1.635   9.839
 8277WAT     H225074   6.932   1.790   9.844
 8278WAT      O25075   3.294   9.245   2.414
 8278WAT     H125076   3.355   9.177   2.374
 8278WAT     H225077   3.348   9.313   2.463
 8279WAT      O25078   6.021   4.082   6.296
 8279WAT     H125079   5.941   4.074   6.237
 8279WAT     H225080   6.022   4.005   6.360
 8280WAT      O25081   2.994   6.049   0.703
 8280WAT     H125082   3.089   6.023   0.716
 8280WAT     H225083   2.958   6.088   0.788
 8281WAT      O25084   6.290   7.840   4.942
 8281WAT     H125085   6.329   7.928   4.915
 8281WAT     H225086   6.202   7.828   4.897
 8282WAT      O25087   0.082   5.847   8.020
 8282WAT     H125088   0.145   5.814   8.090
 8282WAT     H225089   0.000   5.790   8.019
 8283WAT      O25090   7.524   9.698   1.239
 8283WAT     H125091   7.518   9.742   1.150
 8283WAT     H225092   7.438   9.711   1.288
 8284WAT      O25093   7.360   1.640   1.295
 8284WAT     H125094   7.332   1.569   1.360
 8284WAT     H225095   7.351   1.606   1.202
 8285WAT      O25096   0.555   1.603   9.325
 8285WAT     H125097   0.620   1.528   9.310
 8285WAT     H225098   0.501   1.618   9.242
 8286WAT      O25099   2.648   0.455   1.219
 8286WAT     H125100   2.599   0.488   1.299
 8286WAT     H225101   2.616   0.503   1.137
 8287WAT      O25102   9.669   2.722   4.408
 8287WAT     H125103   9.743   2.655   4.405
 8287WAT     H225104   9.640   2.746   4.316
 8288WAT      O25105   3.670   0.781   9.306
 8288WAT     H125106   3.700   0.724   9.229
 8288WAT     H225107   3.686   0.878   9.284
 8289WAT      O25108   2.732   2.376   7.418
 8289WAT     H125109   2.818   2.404   7.460
 8289WAT     H225110   2.678   2.324   7.484
 8290WAT      O25111   4.823   2.095   8.286
 8290WAT     H125112   4.913   2.073   8.324
 8290WAT     H225113   4.823   2.189   8.254
 8291WAT      O25114   7.543   5.154   9.856
 8291WAT     H125115   7.500   5.242   9.833
 8291WAT     H225116   7.639   5.169   9.879
 8292WAT      O25117   4.292   3.166   7.563
 8292WAT     H125118   4.351   3.115   7.500
 8292WAT     H225119   4.196   3.142   7.546
 8293WAT      O25120   0.010   6.223   5.808
 8293WAT     H125121  -0.018   6.311   5.846
 8293WAT     H225122  -0.035   6.149   5.859
 8294WAT      O25123   0.794   9.774   6.148
 8294WAT     H125124   0.718   9.836   6.166
 8294WAT     H225125   0.760   9.688   6.110
 8295WAT      O25126   8.899   7.182   4.853
 8295WAT     H125127   8.837   7.157   4.779
 8295WAT     H225128   8.973   7.114   4.859
 8296WAT      O25129   4.724   6.068   4.741
 8296WAT     H125130   4.739   6.163   4.714
 8296WAT     H225131   4.791   6.044   4.812
 8297WAT      O25132   2.929   1.458   8.927
 8297WAT     H125133   2.974   1.491   9.009
 8297WAT     H225134   2.840   1.503   8.918
 8298WAT      O25135   4.649   3.035   7.961
 8298WAT     H125136   4.651   3.133   7.983
 8298WAT     H225137   4.559   2.999   7.981
 8299WAT      O25138   5.472   8.667   4.956
 8299WAT     H125139   5.402   8.621   4.902
 8299WAT     H225140   5.474   8.764   4.934
 8300WAT      O25141   4.035   2.896   7.166
 8300WAT     H125142   4.121   2.933   7.132
 8300WAT     H225143   4.042   2.797   7.175
 8301WAT      O25144   4.427   6.146   4.677
 8301WAT     H125145   4.526   6.131   4.666
 8301WAT     H225146   4.412   6.216   4.747
 8302WAT      O25147   3.321   6.448   7.290
 8302WAT     H125148   3.354   6.355   7.306
 8302WAT     H225149   3.398   6.507   7.264
 8303WAT      O25150   6.288   8.298   8.489
 8303WAT     H125151   6.323   8.360   8.559
 8303WAT     H225152   6.236   8.350   8.421
 8304WAT      O25153   3.190   6.476   5.995
 8304WAT     H125154   3.181   6.574   5.977
 8304WAT     H225155   3.287   6.452   5.999
 8305WAT      O25156   3.294   9.002   7.696
 8305WAT     H125157   3.236   9.032   7.772
 8305WAT     H225158   3.271   8.907   7.672
 8306WAT      O25159   1.356   3.722   1.573
 8306WAT     H125160   1.322   3.639   1.528
 8306WAT     H225161   1.355   3.709   1.672
 8307WAT      O25162   2.696   6.750   6.441
 8307WAT     H125163   2.603   6.722   6.464
 8307WAT     H225164   2.701   6.850   6.439
 8308WAT      O25165   1.724   9.587   1.767
 8308WAT     H125166   1.757   9.545   1.683
 8308WAT     H225167   1.718   9.686   1.755
 8309WAT      O25168   5.771   7.441   1.339
 8309WAT     H125169   5.774   7.342   1.356
 8309WAT     H225170   5.781   7.458   1.241
 8310WAT      O25171   8.656   8.522   1.538
 8310WAT     H125172   8.702   8.586   1.599
 8310WAT     H225173   8.617   8.448   1.592
 8311WAT      O25174   6.088   9.066   0.405
 8311WAT     H125175   6.127   9.035   0.318
 8311WAT     H225176   6.161   9.082   0.471
 8312WAT      O25177   8.818   8.662   1.721
 8312WAT     H125178   8.863   8.751   1.732
 8312WAT     H225179   8.873   8.592   1.766
 8313WAT      O25180   1.122   3.524   5.332
 8313WAT     H125181   1.146   3.552   5.425
 8313WAT     H225182   1.201   3.483   5.287
 8314WAT      O25183   5.603   2.764   8.252
 8314WAT     H125184   5.593   2.792   8.347
 8314WAT     H225185   5.522   2.714   8.223
 8315WAT      O25186   6.217   3.141   1.362
 8315WAT     H125187   6.168   3.225   1.384
 8315WAT     H225188   6.164   3.088   1.295
 8316WAT      O25189   7.798   9.466   4.079
 8316WAT     H125190   7.804   9.564   4.093
 8316WAT     H225191   7.882   9.433   4.035
 8317WAT      O25192   0.057   7.122   1.397
 8317WAT     H125193   0.111   7.130   1.313
 8317WAT     H225194  -0.032   7.166   1.385
 8318WAT      O25195   9.418   6.605   3.736
 8318WAT     H125196   9.501   6.609   3.792
 8318WAT     H225197   9.442   6.585   3.641
 8319WAT      O25198   9.784   6.162   1.118
 8319WAT     H125199   9.794   6.063   1.115
 8319WAT     H225200   9.871   6.206   1.096
 8320WAT      O25201   2.376   9.455   6.723
 8320WAT     H125202   2.313   9.487   6.793
 8320WAT     H225203   2.423   9.373   6.755
 8321WAT      O25204   4.274   5.450   8.248
 8321WAT     H125205   4.220   5.448   8.332
 8321WAT     H225206   4.342   5.524   8.254
 8322WAT      O25207   4.548   4.362   6.415
 8322WAT     H125208   4.642   4.330   6.425
 8322WAT     H225209   4.520   4.409   6.498
 8323WAT      O25210   4.963   9.759   0.301
 8323WAT     H125211   5.060   9.737   0.304
 8323WAT     H225212   4.945   9.816   0.220
 8324WAT      O25213   5.963   1.731   9.102
 8324WAT     H125214   5.903   1.754   9.178
 8324WAT     H225215   6.058   1.746   9.129
 8325WAT      O25216   4.944   3.456   8.006
 8325WAT     H125217   5.041   3.475   7.990
 8325WAT     H225218   4.903   3.421   7.922
 8326WAT      O25219   7.056   5.004   6.077
 8326WAT     H125220   6.967   4.998   6.123
 8326WAT     H225221   7.128   5.012   6.146
 8327WAT      O25222   4.104   3.372   7.887
 8327WAT     H125223   4.042   3.374   7.808
 8327WAT     H225224   4.176   3.442   7.875
 8328WAT      O25225   4.847   1.301   2.684
 8328WAT     H125226   4.883   1.262   2.769
 8328WAT     H225227   4.899   1.383   2.660
 8329WAT      O25228   0.332   7.713   6.739
 8329WAT     H125229   0.416   7.688   6.786
 8329WAT     H225230   0.288   7.631   6.701
 8330WAT      O25231   5.981   5.295   0.507
 8330WAT     H125232   6.017   5.381   0.470
 8330WAT     H225233   5.948   5.311   0.600
 8331WAT      O25234   7.114   5.456   8.281
 8331WAT     H125235   7.037   5.516   8.301
 8331WAT     H225236   7.082   5.361   8.282
 8332WAT      O25237   6.978   3.453   2.640
 8332WAT     H125238   6.985   3.545   2.679
 8332WAT     H225239   7.064   3.404   2.656
 8333WAT      O25240   3.781   4.271   7.254
 8333WAT     H125241   3.831   4.185   7.254
 8333WAT     H225242   3.687   4.254   7.286
 8334WAT      O25243   4.264   4.297   3.184
 8334WAT     H125244   4.291   4.202   3.170
 8334WAT     H225245   4.226   4.308   3.275
 8335WAT      O25246   6.780   3.971   6.924
 8335WAT     H125247   6.686   3.988   6.953
 8335WAT     H225248   6.843   4.007   6.994
 8336WAT      O25249   8.904   3.166   5.927
 8336WAT     H125250   8.956   3.224   5.865
 8336WAT     H225251   8.829   3.218   5.968
 8337WAT      O25252   0.508   4.836   0.278
 8337WAT     H125253   0.500   4.779   0.360
 8337WAT     H225254   0.417   4.847   0.237
 8338WAT      O25255   7.354   4.152   0.921
 8338WAT     H125256   7.445   4.132   0.886
 8338WAT     H225257   7.336   4.250   0.913
 8339WAT      O25258   2.997   4.229   2.047
 8339WAT     H125259   3.080   4.206   1.995
 8339WAT     H225260   3.017   4.221   2.145
 8340WAT      O25261   7.833   0.981   0.938
 8340WAT     H125262   7.872   0.889   0.940
 8340WAT     H225263   7.906   1.049   0.939
 8341WAT      O25264   1.654   0.571   5.834
 8341WAT     H125265   1.569   0.622   5.822
 8341WAT     H225266   1.715   0.587   5.756
 8342WAT      O25267   2.978   6.146   8.370
 8342WAT     H125268   3.056   6.086   8.387
 8342WAT     H225269   2.902   6.092   8.334
 8343WAT      O25270   0.660   9.076   1.981
 8343WAT     H125271   0.652   9.145   1.909
 8343WAT     H225272   0.611   8.993   1.954
 8344WAT      O25273   5.074   0.206   5.364
 8344WAT     H125274   5.103   0.124   5.314
 8344WAT     H225275   4.997   0.248   5.317
 8345WAT      O25276   9.605   5.909   6.797
 8345WAT     H125277   9.681   5.865   6.846
 8345WAT     H225278   9.546   5.839   6.756
 8346WAT      O25279   9.540   1.137   7.817
 8346WAT     H125280   9.612   1.189   7.771
 8346WAT     H225281   9.452   1.183   7.804
 8347WAT      O25282   9.770   5.018   0.110
 8347WAT     H125283   9.784   5.116   0.096
 8347WAT     H225284   9.722   5.003   0.196
 8348WAT      O25285   3.451   3.360   4.024
 8348WAT     H125286   3.455   3.413   4.108
 8348WAT     H225287   3.397   3.410   3.956
 8349WAT      O25288   8.518   7.308   4.747
 8349WAT     H125289   8.479   7.300   4.839
 8349WAT     H225290   8.502   7.222   4.697
 8350WAT      O25291   7.852   7.437   9.757
 8350WAT     H125292   7.823   7.348   9.791
 8350WAT     H225293   7.779   7.476   9.700
 8351WAT      O25294   8.101   3.500   3.526
 8351WAT     H125295   8.081   3.403   3.514
 8351WAT     H225296   8.054   3.553   3.455
 8352WAT      O25297   5.690   8.984   5.053
 8352WAT     H125298   5.691   8.932   5.139
 8352WAT     H225299   5.742   9.068   5.065
 8353WAT      O25300   0.697   5.717   4.565
 8353WAT     H125301   0.693   5.771   4.481
 8353WAT     H225302   0.606   5.713   4.607
 8354WAT      O25303   3.847   8.223   7.039
 8354WAT     H125304   3.889   8.200   7.126
 8354WAT     H225305   3.892   8.305   7.001
 8355WAT      O25306   4.010   5.646   3.913
 8355WAT     H125307   3.941   5.640   3.986
 8355WAT     H225308   4.098   5.615   3.948
 8356WAT      O25309   6.235   6.615   0.899
 8356WAT     H125310   6.166   6.549   0.871
 8356WAT     H225311   6.324   6.571   0.903
 8357WAT      O25312   2.790   2.570   3.486
 8357WAT     H125313   2.791   2.666   3.515
 8357WAT     H225314   2.703   2.528   3.511
 8358WAT      O25315   1.554   4.195   2.459
 8358WAT     H125316   1.551   4.186   2.559
 8358WAT     H225317   1.645   4.170   2.426
 8359WAT      O25318   9.015   1.944   7.728
 8359WAT     H125319   8.928   1.912   7.690
 8359WAT     H225320   9.017   1.928   7.827
 8360WAT      O25321   5.067   6.788   8.704
 8360WAT     H125322   5.028   6.736   8.628
 8360WAT     H225323   5.022   6.877   8.710
 8361WAT      O25324   3.182   0.643   8.103
 8361WAT     H125325   3.105   0.579   8.106
 8361WAT     H225326   3.255   0.604   8.047
 8362WAT      O25327   0.055   5.269   9.640
 8362WAT     H125328   0.010   5.358   9.630
 8362WAT     H225329   0.008   5.201   9.583
 8363WAT      O25330   1.697   0.677   9.752
 8363WAT     H125331   1.767   0.743   9.725
 8363WAT     H225332   1.646   0.648   9.672
 8364WAT      O25333   7.997   2.374   2.232
 8364WAT     H125334   8.012   2.454   2.290
 8364WAT     H225335   8.033   2.292   2.276
 8365WAT      O25336   8.808   1.862   7.045
 8365WAT     H125337   8.808   1.932   7.117
 8365WAT     H225338   8.740   1.792   7.067
 8366WAT      O25339   5.428   4.675   1.870
 8366WAT     H125340   5.502   4.660   1.936
 8366WAT     H225341   5.459   4.740   1.801
 8367WAT      O25342   2.130   0.728   8.553
 8367WAT     H125343   2.140   0.770   8.643
 8367WAT     H225344   2.052   0.666   8.554
 8368WAT      O25345   3.055   5.634   9.541
 8368WAT     H125346   2.955   5.644   9.536
 8368WAT     H225347   3.085   5.652   9.635
 8369WAT      O25348   1.872   0.431   0.723
 8369WAT     H125349   1.948   0.377   0.761
 8369WAT     H225350   1.836   0.492   0.794
 8370WAT      O25351   1.347   4.549   5.884
 8370WAT     H125352   1.418   4.573   5.951
 8370WAT     H225353   1.385   4.485   5.817
 8371WAT      O25354   2.917   2.025   6.897
 8371WAT     H125355   2.929   2.122   6.878
 8371WAT     H225356   2.944   2.006   6.991
 8372WAT      O25357   6.395   2.041   6.470
 8372WAT     H125358   6.433   2.058   6.379
 8372WAT     H225359   6.300   2.014   6.463
 8373WAT      O25360   5.879   8.551   6.441
 8373WAT     H125361   5.934   8.601   6.508
 8373WAT     H225362   5.808   8.499   6.488
 8374WAT      O25363   8.250   9.591   1.625
 8374WAT     H125364   8.330   9.608   1.568
 8374WAT     H225365   8.215   9.499   1.607
 8375WAT      O25366   4.961   9.703   3.978
 8375WAT     H125367   4.947   9.789   3.929
 8375WAT     H225368   5.045   9.709   4.032
 8376WAT      O25369   7.551   2.313   4.742
 8376WAT     H125370   7.645   2.290   4.766
 8376WAT     H225371   7.515   2.377   4.810
 8377WAT      O25372   3.483   3.710   0.100
 8377WAT     H125373   3.463   3.613   0.089
 8377WAT     H225374   3.406   3.765   0.068
 8378WAT      O25375   5.683   2.097   0.549
 8378WAT     H125376   5.747   2.108   0.472
 8378WAT     H225377   5.659   2.000   0.559
 8379WAT      O25378   0.372   9.254   5.889
 8379WAT     H125379   0.281   9.293   5.904
 8379WAT     H225380   0.442   9.324   5.902
 8380WAT      O25381   7.066   0.577   7.521
 8380WAT     H125382   7.008   0.610   7.446
 8380WAT     H225383   7.032   0.488   7.552
 8381WAT      O25384   8.987   7.236   7.381
 8381WAT     H125385   8.899   7.202   7.348
 8381WAT     H225386   9.051   7.244   7.304
 8382WAT      O25387   9.645   9.245   4.938
 8382WAT     H125388   9.675   9.158   4.978
 8382WAT     H225389   9.601   9.301   5.009
 8383WAT      O25390   5.901   7.828   3.881
 8383WAT     H125391   5.977   7.826   3.816
 8383WAT     H225392   5.897   7.742   3.931
 8384WAT      O25393   2.038   9.245   4.723
 8384WAT     H125394   2.093   9.327   4.707
 8384WAT     H225395   1.963   9.242   4.656
 8385WAT      O25396   4.056   7.150   7.912
 8385WAT     H125397   4.099   7.088   7.846
 8385WAT     H225398   3.993   7.211   7.864
 8386WAT      O25399   0.464   6.367   1.735
 8386WAT     H125400   0.399   6.291   1.740
 8386WAT     H225401   0.449   6.419   1.651
 8387WAT      O25402   1.778   3.814   8.115
 8387WAT     H125403   1.702   3.827   8.178
 8387WAT     H225404   1.863   3.846   8.158
 8388WAT      O25405   6.041   0.627   6.155
 8388WAT     H125406   5.982   0.555   6.191
 8388WAT     H225407   5.991   0.714   6.153
 8389WAT      O25408   8.865   8.930   4.595
 8389WAT     H125409   8.823   9.021   4.583
 8389WAT     H225410   8.940   8.937   4.661
 8390WAT      O25411   0.113   5.785   1.250
 8390WAT     H125412   0.035   5.830   1.206
 8390WAT     H225413   0.129   5.696   1.208
 8391WAT      O25414   2.326   3.305   2.750
 8391WAT     H125415   2.267   3.233   2.786
 8391WAT     H225416   2.372   3.351   2.826
 8392WAT      O25417   0.778   3.864   8.542
 8392WAT     H125418   0.762   3.851   8.444
 8392WAT     H225419   0.838   3.792   8.576
 8393WAT      O25420   6.084   2.566   4.819
 8393WAT     H125421   6.132   2.614   4.746
 8393WAT     H225422   6.134   2.578   4.905
 8394WAT      O25423   4.350   4.662   7.394
 8394WAT     H125424   4.341   4.690   7.489
 8394WAT     H225425   4.445   4.640   7.374
 8395WAT      O25426   2.531   9.220   8.445
 8395WAT     H125427   2.448   9.226   8.501
 8395WAT     H225428   2.581   9.137   8.469
 8396WAT      O25429   4.354   4.014   0.602
 8396WAT     H125430   4.264   4.018   0.645
 8396WAT     H225431   4.423   4.052   0.664
 8397WAT      O25432   5.681   6.091   7.420
 8397WAT     H125433   5.591   6.116   7.456
 8397WAT     H225434   5.682   5.994   7.395
 8398WAT      O25435   5.319   5.560   6.226
 8398WAT     H125436   5.310   5.462   6.244
 8398WAT     H225437   5.233   5.595   6.189
 8399WAT      O25438   1.486   2.074   0.887
 8399WAT     H125439   1.522   2.050   0.797
 8399WAT     H225440   1.553   2.048   0.957
 8400WAT      O25441   3.895   9.138   2.403
 8400WAT     H125442   3.877   9.227   2.446
 8400WAT     H225443   3.983   9.103   2.433
 8401WAT      O25444   6.719   7.693   2.752
 8401WAT     H125445   6.689   7.788   2.740
 8401WAT     H225446   6.708   7.643   2.666
 8402WAT      O25447   2.937   7.466   1.466
 8402WAT     H125448   2.994   7.465   1.548
 8402WAT     H225449   2.858   7.526   1.480
 8403WAT      O25450   3.646   1.337   4.842
 8403WAT     H125451   3.656   1.238   4.851
 8403WAT     H225452   3.683   1.367   4.754
 8404WAT      O25453   1.494   8.563   0.777
 8404WAT     H125454   1.447   8.643   0.738
 8404WAT     H225455   1.435   8.483   0.769
 8405WAT      O25456   1.671   7.843   0.811
 8405WAT     H125457   1.635   7.771   0.752
 8405WAT     H225458   1.691   7.806   0.902
 8406WAT      O25459   8.274   7.772   0.505
 8406WAT     H125460   8.341   7.845   0.499
 8406WAT     H225461   8.287   7.721   0.590
 8407WAT      O25462   1.306   4.053   1.696
 8407WAT     H125463   1.322   4.106   1.779
 8407WAT     H225464   1.237   4.099   1.640
 8408WAT      O25465   6.666   4.280   7.614
 8408WAT     H125466   6.739   4.217   7.638
 8408WAT     H225467   6.677   4.309   7.519
 8409WAT      O25468   2.637   6.155   2.260
 8409WAT     H125469   2.663   6.175   2.166
 8409WAT     H225470   2.539   6.138   2.266
 8410WAT      O25471   4.470   5.781   8.869
 8410WAT     H125472   4.391   5.737   8.912
 8410WAT     H225473   4.455   5.788   8.771
 8411WAT      O25474   9.306   1.085   1.630
 8411WAT     H125475   9.215   1.126   1.617
 8411WAT     H225476   9.367   1.116   1.557
 8412WAT      O25477   6.072   6.509   3.897
 8412WAT     H125478   6.139   6.583   3.906
 8412WAT     H225479   6.031   6.512   3.806
 8413WAT      O25480   1.314   8.394   0.251
 8413WAT     H125481   1.242   8.401   0.320
 8413WAT     H225482   1.272   8.376   0.162
 8414WAT      O25483   8.757   5.090   3.888
 8414WAT     H125484   8.788   5.176   3.928
 8414WAT     H225485   8.667   5.067   3.926
 8415WAT      O25486   0.943   8.628   9.572
 8415WAT     H125487   1.025   8.684   9.588
 8415WAT     H225488   0.908   8.595   9.660
 8416WAT      O25489   2.082   8.949   4.233
 8416WAT     H125490   2.110   8.902   4.149
 8416WAT     H225491   1.986   8.928   4.253
 8417WAT      O25492   6.184   2.530   1.916
 8417WAT     H125493   6.099   2.497   1.958
 8417WAT     H225494   6.212   2.615   1.959
 8418WAT      O25495   1.709   2.886   3.461
 8418WAT     H125496   1.698   2.986   3.459
 8418WAT     H225497   1.707   2.850   3.368
 8419WAT      O25498   8.122   5.041   2.254
 8419WAT     H125499   8.062   5.047   2.334
 8419WAT     H225500   8.203   4.988   2.278
 8420WAT      O25501   0.365   6.066   5.497
 8420WAT     H125502   0.462   6.090   5.510
 8420WAT     H225503   0.314   6.148   5.471
 8421WAT      O25504   4.951   2.802   7.251
 8421WAT     H125505   4.973   2.876   7.187
 8421WAT     H225506   5.032   2.780   7.305
 8422WAT      O25507   3.064   1.437   5.464
 8422WAT     H125508   2.982   1.379   5.464
 8422WAT     H225509   3.140   1.386   5.506
 8423WAT      O25510   6.122   3.115   4.031
 8423WAT     H125511   6.098   3.051   3.957
 8423WAT     H225512   6.141   3.205   3.992
 8424WAT      O25513   9.377   0.156   5.259
 8424WAT     H125514   9.280   0.150   5.239
 8424WAT     H225515   9.416   0.063   5.263
 8425WAT      O25516   8.325   1.837   5.627
 8425WAT     H125517   8.339   1.741   5.605
 8425WAT     H225518   8.364   1.856   5.717
 8426WAT      O25519   8.015   9.842   8.986
 8426WAT     H125520   8.048   9.766   8.930
 8426WAT     H225521   7.955   9.807   9.057
 8427WAT      O25522   6.463   0.984   8.023
 8427WAT     H125523   6.512   0.898   8.039
 8427WAT     H225524   6.447   1.030   8.110
 8428WAT      O25525   1.656   8.313   0.067
 8428WAT     H125526   1.746   8.271   0.063
 8428WAT     H225527   1.665   8.413   0.065
 8429WAT      O25528   9.484   9.672   8.817
 8429WAT     H125529   9.527   9.680   8.727
 8429WAT     H225530   9.552   9.690   8.888
 8430WAT      O25531   5.994   8.365   1.526
 8430WAT     H125532   6.033   8.392   1.438
 8430WAT     H225533   6.001   8.266   1.536
 8431WAT      O25534   8.411   3.732   8.392
 8431WAT     H125535   8.497   3.774   8.361
 8431WAT     H225536   8.373   3.785   8.468
 8432WAT      O25537   0.769   3.336   0.556
 8432WAT     H125538   0.743   3.339   0.459
 8432WAT     H225539   0.806   3.246   0.578
 8433WAT      O25540   3.650   7.047   3.829
 8433WAT     H125541   3.613   7.116   3.892
 8433WAT     H225542   3.726   7.086   3.778
 8434WAT      O25543   9.398   1.760   3.474
 8434WAT     H125544   9.384   1.858   3.489
 8434WAT     H225545   9.475   1.746   3.411
 8435WAT      O25546   5.886   5.249   2.653
 8435WAT     H125547   5.925   5.205   2.734
 8435WAT     H225548   5.854   5.340   2.678
 8436WAT      O25549   0.589   0.932   3.944
 8436WAT     H125550   0.603   0.840   3.981
 8436WAT     H225551   0.578   0.927   3.845
 8437WAT      O25552   0.141   8.253   9.642
 8437WAT     H125553   0.178   8.317   9.574
 8437WAT     H225554   0.216   8.199   9.680
 8438WAT      O25555   5.527   8.430   3.964
 8438WAT     H125556   5.593   8.400   3.895
 8438WAT     H225557   5.495   8.350   4.016
 8439WAT      O25558   5.032   6.562   1.240
 8439WAT     H125559   5.033   6.484   1.304
 8439WAT     H225560   4.973   6.634   1.277
 8440WAT      O25561   1.439   6.604   4.968
 8440WAT     H125562   1.517   6.550   4.999
 8440WAT     H225563   1.430   6.597   4.869
 8441WAT      O25564   9.807   7.692   6.355
 8441WAT     H125565   9.883   7.709   6.293
 8441WAT     H225566   9.723   7.731   6.317
 8442WAT      O25567   2.672   9.455   9.036
 8442WAT     H125568   2.696   9.366   9.075
 8442WAT     H225569   2.749   9.492   8.985
 8443WAT      O25570   4.108   4.239   8.982
 8443WAT     H125571   4.194   4.226   8.933
 8443WAT     H225572   4.058   4.316   8.943
 8444WAT      O25573   3.920   7.453   8.261
 8444WAT     H125574   3.916   7.545   8.299
 8444WAT     H225575   3.840   7.436   8.203
 8445WAT      O25576   9.436   2.984   7.118
 8445WAT     H125577   9.388   2.918   7.176
 8445WAT     H225578   9.490   3.046   7.175
 8446WAT      O25579   2.719   5.562   5.925
 8446WAT     H125580   2.809   5.521   5.906
 8446WAT     H225581   2.684   5.525   6.011
 8447WAT      O25582   9.485   2.047   1.230
 8447WAT     H125583   9.444   1.965   1.271
 8447WAT     H225584   9.551   2.087   1.294
 8448WAT      O25585   8.225   1.633   9.843
 8448WAT     H125586   8.319   1.607   9.821
 8448WAT     H225587   8.164   1.605   9.769
 8449WAT      O25588   8.012   9.084   7.723
 8449WAT     H125589   8.052   9.065   7.812
 8449WAT     H225590   7.985   9.180   7.718
 8450WAT      O25591   2.541   7.484   1.638
 8450WAT     H125592   2.491   7.399   1.626
 8450WAT     H225593   2.591   7.506   1.555
 8451WAT      O25594   0.584   2.997   9.271
 8451WAT     H125595   0.647   2.961   9.203
 8451WAT     H225596   0.595   3.096   9.278
 8452WAT      O25597   1.068   0.218   0.882
 8452WAT     H125598   1.143   0.153   0.874
 8452WAT     H225599   1.067   0.256   0.974
 8453WAT      O25600   1.012   3.448   3.324
 8453WAT     H125601   1.078   3.375   3.307
 8453WAT     H225602   0.929   3.429   3.271
 8454WAT      O25603   1.619   0.062   2.236
 8454WAT     H125604   1.580  -0.009   2.178
 8454WAT     H225605   1.660   0.133   2.179
 8455WAT      O25606   2.504   3.255   0.367
 8455WAT     H125607   2.545   3.251   0.458
 8455WAT     H225608   2.407   3.232   0.373
 8456WAT      O25609   0.822   2.273   5.685
 8456WAT     H125610   0.760   2.310   5.754
 8456WAT     H225611   0.789   2.297   5.594
 8457WAT      O25612   1.217   3.821   6.291
 8457WAT     H125613   1.202   3.866   6.379
 8457WAT     H225614   1.273   3.879   6.232
 8458WAT      O25615   8.328   7.276   6.596
 8458WAT     H125616   8.271   7.207   6.639
 8458WAT     H225617   8.391   7.233   6.532
 8459WAT      O25618   1.760   0.269   3.525
 8459WAT     H125619   1.664   0.297   3.520
 8459WAT     H225620   1.786   0.222   3.440
 8460WAT      O25621   0.659   4.961   3.774
 8460WAT     H125622   0.650   4.981   3.871
 8460WAT     H225623   0.577   4.992   3.726
 8461WAT      O25624   5.930   1.554   1.731
 8461WAT     H125625   5.888   1.469   1.764
 8461WAT     H225626   5.884   1.582   1.647
 8462WAT      O25627   8.748   7.874   5.995
 8462WAT     H125628   8.666   7.903   6.044
 8462WAT     H225629   8.772   7.781   6.021
 8463WAT      O25630   2.950   0.953   7.250
 8463WAT     H125631   2.874   1.008   7.215
 8463WAT     H225632   2.997   1.003   7.323
 8464WAT      O25633   9.052   7.068   1.244
 8464WAT     H125634   9.098   6.984   1.272
 8464WAT     H225635   8.984   7.047   1.174
 8465WAT      O25636   7.817   3.058   3.356
 8465WAT     H125637   7.883   2.990   3.324
 8465WAT     H225638   7.751   3.076   3.284
 8466WAT      O25639   9.032   2.923   4.549
 8466WAT     H125640   9.082   3.006   4.575
 8466WAT     H225641   8.998   2.933   4.455
 8467WAT      O25642   4.528   8.483   1.927
 8467WAT     H125643   4.499   8.555   1.863
 8467WAT     H225644   4.453   8.419   1.941
 8468WAT      O25645   4.071   2.376   2.924
 8468WAT     H125646   4.126   2.297   2.952
 8468WAT     H225647   4.039   2.363   2.830
 8469WAT      O25648   3.368   0.993   5.290
 8469WAT     H125649   3.404   0.948   5.208
 8469WAT     H225650   3.317   0.927   5.345
 8470WAT      O25651   9.679   3.648   1.410
 8470WAT     H125652   9.727   3.590   1.477
 8470WAT     H225653   9.744   3.680   1.341
 8471WAT      O25654   3.013   3.977   8.182
 8471WAT     H125655   2.970   3.994   8.270
 8471WAT     H225656   3.099   4.029   8.176
 8472WAT      O25657   4.671   3.694   4.861
 8472WAT     H125658   4.575   3.687   4.885
 8472WAT     H225659   4.726   3.640   4.924
 8473WAT      O25660   8.018   4.250   3.763
 8473WAT     H125661   8.003   4.246   3.861
 8473WAT     H225662   8.093   4.313   3.743
 8474WAT      O25663   6.442   3.267   6.331
 8474WAT     H125664   6.456   3.171   6.307
 8474WAT     H225665   6.391   3.313   6.259
 8475WAT      O25666   4.630   9.518   4.863
 8475WAT     H125667   4.597   9.465   4.785
 8475WAT     H225668   4.654   9.456   4.938
 8476WAT      O25669   8.631   4.686   8.197
 8476WAT     H125670   8.536   4.700   8.226
 8476WAT     H225671   8.647   4.589   8.183
 8477WAT      O25672   2.918   4.364   6.711
 8477WAT     H125673   3.017   4.375   6.717
 8477WAT     H225674   2.884   4.405   6.626
 8478WAT      O25675   3.165   5.138   7.603
 8478WAT     H125676   3.136   5.230   7.575
 8478WAT     H225677   3.085   5.086   7.635
 8479WAT      O25678   6.365   9.698   4.021
 8479WAT     H125679   6.330   9.633   4.089
 8479WAT     H225680   6.430   9.651   3.961
 8480WAT      O25681   2.318   9.098   9.761
 8480WAT     H125682   2.301   9.043   9.679
 8480WAT     H225683   2.340   9.192   9.734
 8481WAT      O25684   9.759   1.187   3.300
 8481WAT     H125685   9.676   1.141   3.270
 8481WAT     H225686   9.735   1.272   3.348
 8482WAT      O25687   4.129   0.069   7.892
 8482WAT     H125688   4.150   0.061   7.795
 8482WAT     H225689   4.199   0.123   7.938
 8483WAT      O25690   8.366   7.588   1.736
 8483WAT     H125691   8.323   7.604   1.825
 8483WAT     H225692   8.448   7.532   1.749
 8484WAT      O25693   6.780   8.184   8.402
 8484WAT     H125694   6.759   8.087   8.393
 8484WAT     H225695   6.776   8.210   8.499
 8485WAT      O25696   1.604   2.507   6.978
 8485WAT     H125697   1.622   2.540   7.071
 8485WAT     H225698   1.690   2.482   6.934
 8486WAT      O25699   7.842   2.368   9.440
 8486WAT     H125700   7.863   2.401   9.532
 8486WAT     H225701   7.749   2.395   9.416
 8487WAT      O25702   1.132   6.741   9.578
 8487WAT     H125703   1.156   6.837   9.563
 8487WAT     H225704   1.094   6.730   9.670
 8488WAT      O25705   2.537   1.851   7.951
 8488WAT     H125706   2.574   1.810   8.034
 8488WAT     H225707   2.556   1.792   7.873
 8489WAT      O25708   3.287   0.880   2.758
 8489WAT     H125709   3.340   0.964   2.770
 8489WAT     H225710   3.234   0.862   2.841
 8490WAT      O25711   6.466   3.491   4.329
 8490WAT     H125712   6.492   3.564   4.266
 8490WAT     H225713   6.544   3.432   4.346
 8491WAT      O25714   4.676   6.421   9.462
 8491WAT     H125715   4.630   6.509   9.453
 8491WAT     H225716   4.609   6.347   9.451
 8492WAT      O25717   3.017   9.270   6.608
 8492WAT     H125718   2.971   9.208   6.672
 8492WAT     H225719   2.951   9.299   6.538
 8493WAT      O25720   2.709   9.298   4.496
 8493WAT     H125721   2.756   9.241   4.563
 8493WAT     H225722   2.714   9.254   4.406
 8494WAT      O25723   9.241   5.525   1.187
 8494WAT     H125724   9.224   5.426   1.190
 8494WAT     H225725   9.207   5.561   1.100
 8495WAT      O25726   2.804   7.866   9.787
 8495WAT     H125727   2.860   7.911   9.857
 8495WAT     H225728   2.719   7.835   9.829
 8496WAT      O25729   4.348   3.226   3.850
 8496WAT     H125730   4.380   3.152   3.909
 8496WAT     H225731   4.360   3.314   3.896
 8497WAT      O25732   5.467   8.369   9.217
 8497WAT     H125733   5.437   8.381   9.312
 8497WAT     H225734   5.413   8.296   9.175
 8498WAT      O25735   9.225   9.110   2.970
 8498WAT     H125736   9.162   9.044   2.929
 8498WAT     H225737   9.306   9.118   2.912
 8499WAT      O25738   0.265   8.698   6.477
 8499WAT     H125739   0.268   8.696   6.377
 8499WAT     H225740   0.334   8.636   6.514
 8500WAT      O25741   0.568   4.646   4.052
 8500WAT     H125742   0.533   4.694   3.972
 8500WAT     H225743   0.661   4.613   4.034
 8501WAT      O25744   4.488   5.694   6.697
 8501WAT     H125745   4.401   5.707   6.746
 8501WAT     H225746   4.520   5.782   6.661
 8502WAT      O25747   2.912   5.625   1.806
 8502WAT     H125748   2.838   5.597   1.866
 8502WAT     H225749   2.976   5.549   1.794
 8503WAT      O25750   2.551   5.278   2.360
 8503WAT     H125751   2.542   5.272   2.261
 8503WAT     H225752   2.484   5.344   2.396
 8504WAT      O25753   4.415   0.813   1.306
 8504WAT     H125754   4.506   0.843   1.277
 8504WAT     H225755   4.410   0.713   1.300
 8505WAT      O25756   4.091   4.411   1.833
 8505WAT     H125757   4.083   4.316   1.803
 8505WAT     H225758   4.165   4.419   1.899
 8506WAT      O25759   0.824   5.785   2.757
 8506WAT     H125760   0.800   5.866   2.703
 8506WAT     H225761   0.777   5.789   2.845
 8507WAT      O25762   1.533   8.757   8.743
 8507WAT     H125763   1.494   8.760   8.651
 8507WAT     H225764   1.529   8.848   8.784
 8508WAT      O25765   8.066   0.163   3.641
 8508WAT     H125766   7.987   0.104   3.655
 8508WAT     H225767   8.035   0.254   3.615
 8509WAT      O25768   6.930   1.610   9.077
 8509WAT     H125769   6.857   1.562   9.029
 8509WAT     H225770   7.017   1.594   9.030
 8510WAT      O25771   0.669   7.949   6.781
 8510WAT     H125772   0.721   8.034   6.791
 8510WAT     H225773   0.639   7.918   6.872
 8511WAT      O25774   2.401   6.557   8.688
 8511WAT     H125775   2.337   6.484   8.664
 8511WAT     H225776   2.448   6.588   8.605
 8512WAT      O25777   3.826   2.565   8.455
 8512WAT     H125778   3.743   2.606   8.493
 8512WAT     H225779   3.903   2.579   8.518
 8513WAT      O25780   3.354   6.025   0.021
 8513WAT     H125781   3.406   5.964  -0.039
 8513WAT     H225782   3.258   6.028  -0.010
 8514WAT      O25783   1.068   1.709   1.597
 8514WAT     H125784   1.020   1.775   1.654
 8514WAT     H225785   1.154   1.684   1.641
 8515WAT      O25786   5.816   2.447   9.089
 8515WAT     H125787   5.726   2.407   9.110
 8515WAT     H225788   5.809   2.547   9.090
 8516WAT      O25789   7.739   0.860   8.548
 8516WAT     H125790   7.669   0.798   8.584
 8516WAT     H225791   7.720   0.879   8.452
 8517WAT      O25792   7.137   7.254   8.667
 8517WAT     H125793   7.094   7.323   8.609
 8517WAT     H225794   7.091   7.250   8.755
 8518WAT      O25795   2.994   6.210   5.281
 8518WAT     H125796   2.963   6.158   5.202
 8518WAT     H225797   3.094   6.208   5.285
 8519WAT      O25798   6.363   2.874   4.102
 8519WAT     H125799   6.389   2.898   4.009
 8519WAT     H225800   6.319   2.952   4.146
 8520WAT      O25801   9.328   5.904   1.706
 8520WAT     H125802   9.365   5.945   1.623
 8520WAT     H225803   9.336   5.805   1.701
 8521WAT      O25804   7.552   0.422   0.019
 8521WAT     H125805   7.518   0.426  -0.075
 8521WAT     H225806   7.474   0.428   0.083
 8522WAT      O25807   8.116   5.740   8.424
 8522WAT     H125808   8.132   5.839   8.417
 8522WAT     H225809   8.102   5.702   8.333
 8523WAT      O25810   6.469   5.501   3.834
 8523WAT     H125811   6.522   5.421   3.809
 8523WAT     H225812   6.494   5.578   3.776
 8524WAT      O25813   2.610   9.667   8.568
 8524WAT     H125814   2.517   9.632   8.575
 8524WAT     H225815   2.609   9.760   8.531
 8525WAT      O25816   7.570   1.143   3.429
 8525WAT     H125817   7.655   1.123   3.382
 8525WAT     H225818   7.561   1.083   3.508
 8526WAT      O25819   7.158   0.359   1.336
 8526WAT     H125820   7.199   0.430   1.279
 8526WAT     H225821   7.143   0.277   1.281
 8527WAT      O25822   0.278   4.126   6.130
 8527WAT     H125823   0.359   4.068   6.140
 8527WAT     H225824   0.201   4.086   6.178
 8528WAT      O25825   3.980   6.234   9.082
 8528WAT     H125826   3.918   6.281   9.018
 8528WAT     H225827   3.940   6.146   9.107
 8529WAT      O25828   6.680   3.113   7.130
 8529WAT     H125829   6.685   3.070   7.040
 8529WAT     H225830   6.681   3.043   7.201
 8530WAT      O25831   9.017   8.330   4.758
 8530WAT     H125832   8.975   8.420   4.771
 8530WAT     H225833   8.949   8.265   4.725
 8531WAT      O25834   5.724   2.687   3.847
 8531WAT     H125835   5.734   2.762   3.782
 8531WAT     H225836   5.663   2.618   3.809
 8532WAT      O25837   6.340   7.837   6.005
 8532WAT     H125838   6.361   7.928   5.970
 8532WAT     H225839   6.378   7.827   6.097
 8533WAT      O25840   2.909   4.760   7.315
 8533WAT     H125841   2.977   4.831   7.330
 8533WAT     H225842   2.951   4.683   7.267
 8534WAT      O25843   4.479   0.301   3.839
 8534WAT     H125844   4.520   0.345   3.759
 8534WAT     H225845   4.504   0.352   3.922
 8535WAT      O25846   9.497   2.142   0.219
 8535WAT     H125847   9.561   2.165   0.145
 8535WAT     H225848   9.516   2.049   0.251
 8536WAT      O25849   0.601   9.159   7.804
 8536WAT     H125850   0.652   9.245   7.817
 8536WAT     H225851   0.589   9.143   7.706
 8537WAT      O25852   5.106   2.290   6.332
 8537WAT     H125853   5.102   2.236   6.417
 8537WAT     H225854   5.165   2.244   6.266
 8538WAT      O25855   6.548   2.394   0.242
 8538WAT     H125856   6.637   2.353   0.225
 8538WAT     H225857   6.501   2.345   0.315
 8539WAT      O25858   6.214   6.348   2.751
 8539WAT     H125859   6.183   6.433   2.709
 8539WAT     H225860   6.253   6.369   2.841
 8540WAT      O25861   0.129   4.906   1.764
 8540WAT     H125862   0.184   4.823   1.756
 8540WAT     H225863   0.061   4.894   1.836
 8541WAT      O25864   9.476   4.827   8.781
 8541WAT     H125865   9.450   4.903   8.722
 8541WAT     H225866   9.464   4.740   8.732
 8542WAT      O25867   8.976   3.228   2.698
 8542WAT     H125868   8.999   3.197   2.791
 8542WAT     H225869   8.955   3.325   2.699
 8543WAT      O25870   2.375   9.294   4.080
 8543WAT     H125871   2.335   9.228   4.144
 8543WAT     H225872   2.424   9.365   4.132
 8544WAT      O25873   8.248   4.638   4.622
 8544WAT     H125874   8.176   4.708   4.619
 8544WAT     H225875   8.310   4.657   4.698
 8545WAT      O25876   0.054   4.237   3.629
 8545WAT     H125877   0.102   4.157   3.665
 8545WAT     H225878  -0.006   4.210   3.554
 8546WAT      O25879   9.250   2.614   2.130
 8546WAT     H125880   9.155   2.591   2.152
 8546WAT     H225881   9.254   2.649   2.036
 8547WAT      O25882   5.280   6.628   5.232
 8547WAT     H125883   5.322   6.604   5.144
 8547WAT     H225884   5.224   6.552   5.264
 8548WAT      O25885   0.236   2.347   8.973
 8548WAT     H125886   0.227   2.265   8.917
 8548WAT     H225887   0.189   2.424   8.929
 8549WAT      O25888   3.155   3.554   0.392
 8549WAT     H125889   3.063   3.516   0.384
 8549WAT     H225890   3.149   3.647   0.428
 8550WAT      O25891   1.250   4.241   7.737
 8550WAT     H125892   1.275   4.150   7.703
 8550WAT     H225893   1.184   4.283   7.675
 8551WAT      O25894   2.762   3.269   7.716
 8551WAT     H125895   2.800   3.353   7.676
 8551WAT     H225896   2.743   3.283   7.813
 8552WAT      O25897   6.537   4.390   4.868
 8552WAT     H125898   6.614   4.333   4.838
 8552WAT     H225899   6.452   4.354   4.831
 8553WAT      O25900   5.337   1.012   7.416
 8553WAT     H125901   5.422   1.060   7.393
 8553WAT     H225902   5.306   1.040   7.507
 8554WAT      O25903   1.866   6.046   1.674
 8554WAT     H125904   1.827   6.101   1.747
 8554WAT     H225905   1.963   6.068   1.662
 8555WAT      O25906   0.826   3.439   0.054
 8555WAT     H125907   0.779   3.455  -0.033
 8555WAT     H225908   0.925   3.447   0.041
 8556WAT      O25909   2.897   4.081   4.597
 8556WAT     H125910   2.893   3.983   4.583
 8556WAT     H225911   2.922   4.126   4.511
 8557WAT      O25912   7.255   8.915   4.592
 8557WAT     H125913   7.270   8.826   4.550
 8557WAT     H225914   7.218   8.978   4.524
 8558WAT      O25915   4.373   4.275   8.182
 8558WAT     H125916   4.312   4.349   8.152
 8558WAT     H225917   4.345   4.189   8.139
 8559WAT      O25918   5.525   8.693   5.593
 8559WAT     H125919   5.488   8.697   5.685
 8559WAT     H225920   5.589   8.769   5.579
 8560WAT      O25921   8.113   8.694   0.978
 8560WAT     H125922   8.058   8.776   0.966
 8560WAT     H225923   8.095   8.654   1.068
 8561WAT      O25924   1.557   3.917   0.528
 8561WAT     H125925   1.474   3.885   0.483
 8561WAT     H225926   1.551   4.015   0.543
 8562WAT      O25927   2.987   7.092   0.287
 8562WAT     H125928   2.998   7.066   0.382
 8562WAT     H225929   3.014   7.016   0.228
 8563WAT      O25930   2.006   5.403   2.636
 8563WAT     H125931   2.087   5.377   2.583
 8563WAT     H225932   2.033   5.430   2.728
 8564WAT      O25933   1.675   9.188   9.888
 8564WAT     H125934   1.769   9.176   9.918
 8564WAT     H225935   1.668   9.170   9.790
 8565WAT      O25936   2.415   8.680   5.504
 8565WAT     H125937   2.349   8.731   5.558
 8565WAT     H225938   2.369   8.637   5.426
 8566WAT      O25939   7.869   0.162   5.528
 8566WAT     H125940   7.792   0.193   5.583
 8566WAT     H225941   7.953   0.166   5.583
 8567WAT      O25942   9.287   9.503   4.310
 8567WAT     H125943   9.230   9.501   4.392
 8567WAT     H225944   9.229   9.516   4.230
 8568WAT      O25945   9.563   7.281   4.059
 8568WAT     H125946   9.631   7.227   4.110
 8568WAT     H225947   9.589   7.378   4.063
 8569WAT      O25948   0.105   7.677   3.909
 8569WAT     H125949   0.117   7.578   3.906
 8569WAT     H225950   0.192   7.722   3.889
 8570WAT      O25951   9.789   5.393   6.405
 8570WAT     H125952   9.810   5.301   6.439
 8570WAT     H225953   9.713   5.431   6.458
 8571WAT      O25954   6.570   0.736   8.087
 8571WAT     H125955   6.510   0.702   8.159
 8571WAT     H225956   6.662   0.701   8.102
 8572WAT      O25957   9.121   4.385   8.542
 8572WAT     H125958   9.053   4.313   8.545
 8572WAT     H225959   9.130   4.427   8.632
 8573WAT      O25960   5.241   7.144   6.262
 8573WAT     H125961   5.208   7.166   6.354
 8573WAT     H225962   5.199   7.206   6.196
 8574WAT      O25963   3.343   7.219   1.827
 8574WAT     H125964   3.414   7.289   1.833
 8574WAT     H225965   3.259   7.254   1.868
 8575WAT      O25966   1.488   6.170   8.247
 8575WAT     H125967   1.571   6.166   8.192
 8575WAT     H225968   1.511   6.199   8.340
 8576WAT      O25969   2.032   9.550   5.447
 8576WAT     H125970   2.128   9.524   5.439
 8576WAT     H225971   1.979   9.471   5.478
 8577WAT      O25972   1.604   7.787   3.810
 8577WAT     H125973   1.532   7.823   3.868
 8577WAT     H225974   1.662   7.863   3.778
 8578WAT      O25975   1.431   4.394   9.145
 8578WAT     H125976   1.485   4.478   9.143
 8578WAT     H225977   1.492   4.315   9.152
 8579WAT      O25978   9.557   8.318   5.812
 8579WAT     H125979   9.484   8.259   5.776
 8579WAT     H225980   9.546   8.327   5.911
 8580WAT      O25981   1.210   9.460   3.933
 8580WAT     H125982   1.279   9.402   3.976
 8580WAT     H225983   1.177   9.527   4.000
 8581WAT      O25984   3.749   2.283   6.787
 8581WAT     H125985   3.847   2.291   6.768
 8581WAT     H225986   3.698   2.291   6.701
 8582WAT      O25987   2.615   5.463   8.947
 8582WAT     H125988   2.684   5.516   8.898
 8582WAT     H225989   2.659   5.387   8.994
 8583WAT      O25990   7.672   8.717   3.347
 8583WAT     H125991   7.666   8.696   3.250
 8583WAT     H225992   7.758   8.764   3.366
 8584WAT      O25993   8.345   7.418   7.541
 8584WAT     H125994   8.337   7.516   7.560
 8584WAT     H225995   8.437   7.399   7.506
 8585WAT      O25996   0.473   5.427   7.837
 8585WAT     H125997   0.509   5.479   7.759
 8585WAT     H225998   0.545   5.413   7.905
 8586WAT      O25999   1.935   0.497   2.948
 8586WAT     H126000   1.895   0.490   2.857
 8586WAT     H226001   1.861   0.497   3.016
 8587WAT      O26002   2.938   5.234   2.708
 8587WAT     H126003   2.930   5.168   2.783
 8587WAT     H226004   2.885   5.202   2.629
 8588WAT      O26005   9.214   0.889   2.280
 8588WAT     H126006   9.279   0.963   2.294
 8588WAT     H226007   9.196   0.878   2.183
 8589WAT      O26008   5.169   6.064   0.644
 8589WAT     H126009   5.202   5.978   0.682
 8589WAT     H226010   5.069   6.065   0.646
 8590WAT      O26011   5.591   1.911   1.710
 8590WAT     H126012   5.624   2.005   1.702
 8590WAT     H226013   5.528   1.904   1.787
 8591WAT      O26014   0.188   0.029   7.176
 8591WAT     H126015   0.204  -0.023   7.261
 8591WAT     H226016   0.275   0.051   7.134
 8592WAT      O26017   9.031   1.120   7.463
 8592WAT     H126018   8.933   1.103   7.466
 8592WAT     H226019   9.062   1.152   7.553
 8593WAT      O26020   2.980   4.973   2.295
 8593WAT     H126021   3.061   4.953   2.239
 8593WAT     H226022   3.001   4.957   2.391
 8594WAT      O26023   4.938   3.862   4.042
 8594WAT     H126024   4.998   3.916   3.983
 8594WAT     H226025   4.936   3.901   4.134
 8595WAT      O26026   7.462   6.929   3.342
 8595WAT     H126027   7.404   7.009   3.355
 8595WAT     H226028   7.485   6.889   3.431
 8596WAT      O26029   3.132   6.585   0.060
 8596WAT     H126030   3.073   6.663   0.044
 8596WAT     H226031   3.125   6.557   0.156
 8597WAT      O26032   9.549   6.124   5.099
 8597WAT     H126033   9.545   6.050   5.166
 8597WAT     H226034   9.643   6.153   5.085
 8598WAT      O26035   2.689   0.567   6.267
 8598WAT     H126036   2.777   0.523   6.283
 8598WAT     H226037   2.700   0.641   6.200
 8599WAT      O26038   1.960   1.585   5.863
 8599WAT     H126039   1.892   1.575   5.791
 8599WAT     H226040   1.935   1.662   5.922
 8600WAT      O26041   7.507   2.964   3.673
 8600WAT     H126042   7.495   2.890   3.739
 8600WAT     H226043   7.419   2.984   3.630
 8601WAT      O26044   5.780   6.949   9.734
 8601WAT     H126045   5.691   6.995   9.737
 8601WAT     H226046   5.836   6.989   9.662
 8602WAT      O26047   9.095   3.687   0.474
 8602WAT     H126048   9.185   3.707   0.512
 8602WAT     H226049   9.051   3.773   0.446
 8603WAT      O26050   4.161   1.676   9.207
 8603WAT     H126051   4.182   1.755   9.265
 8603WAT     H226052   4.240   1.655   9.149
 8604WAT      O26053   7.181   1.870   8.872
 8604WAT     H126054   7.260   1.810   8.887
 8604WAT     H226055   7.122   1.868   8.954
 8605WAT      O26056   9.146   5.120   2.941
 8605WAT     H126057   9.240   5.088   2.939
 8605WAT     H226058   9.138   5.204   2.888
 8606WAT      O26059   9.309   3.595   9.369
 8606WAT     H126060   9.268   3.505   9.386
 8606WAT     H226061   9.332   3.602   9.271
 8607WAT      O26062   6.574   2.533   5.651
 8607WAT     H126063   6.521   2.614   5.676
 8607WAT     H226064   6.540   2.496   5.565
 8608WAT      O26065   9.721   1.923   0.501
 8608WAT     H126066   9.780   1.916   0.581
 8608WAT     H226067   9.652   1.994   0.515
 8609WAT      O26068   4.788   5.411   9.181
 8609WAT     H126069   4.748   5.391   9.092
 8609WAT     H226070   4.847   5.491   9.174
 8610WAT      O26071   9.691   7.278   1.362
 8610WAT     H126072   9.641   7.240   1.440
 8610WAT     H226073   9.628   7.331   1.305
 8611WAT      O26074   7.030   3.696   7.076
 8611WAT     H126075   7.123   3.659   7.081
 8611WAT     H226076   6.966   3.633   7.120
 8612WAT      O26077   8.852   2.096   6.461
 8612WAT     H126078   8.772   2.074   6.405
 8612WAT     H226079   8.824   2.105   6.557
 8613WAT      O26080   1.486   1.930   2.304
 8613WAT     H126081   1.478   1.847   2.359
 8613WAT     H226082   1.582   1.949   2.286
 8614WAT      O26083   8.381   5.012   8.599
 8614WAT     H126084   8.436   4.928   8.599
 8614WAT     H226085   8.400   5.064   8.682
 8615WAT      O26086   7.245   6.477   3.985
 8615WAT     H126087   7.243   6.398   3.924
 8615WAT     H226088   7.310   6.459   4.060
 8616WAT      O26089   8.015   8.127   6.679
 8616WAT     H126090   7.938   8.146   6.619
 8616WAT     H226091   8.035   8.029   6.678
 8617WAT      O26092   6.614   5.728   0.509
 8617WAT     H126093   6.662   5.797   0.454
 8617WAT     H226094   6.612   5.757   0.604
 8618WAT      O26095   4.139   0.545   5.743
 8618WAT     H126096   4.045   0.529   5.714
 8618WAT     H226097   4.174   0.464   5.790
 8619WAT      O26098   2.741   3.300   9.029
 8619WAT     H126099   2.684   3.254   8.961
 8619WAT     H226100   2.693   3.380   9.065
 8620WAT      O26101   7.078   8.738   1.007
 8620WAT     H126102   7.067   8.640   1.022
 8620WAT     H226103   7.092   8.755   0.909
 8621WAT      O26104   7.851   9.701   7.812
 8621WAT     H126105   7.900   9.642   7.747
 8621WAT     H226106   7.898   9.699   7.900
 8622WAT      O26107   8.893   1.051   9.476
 8622WAT     H126108   8.804   1.093   9.495
 8622WAT     H226109   8.938   1.029   9.562
 8623WAT      O26110   6.519   7.600   0.590
 8623WAT     H126111   6.612   7.635   0.602
 8623WAT     H226112   6.490   7.552   0.672
 8624WAT      O26113   1.467   0.277   6.749
 8624WAT     H126114   1.497   0.276   6.654
 8624WAT     H226115   1.397   0.348   6.762
 8625WAT      O26116   1.812   1.914   7.105
 8625WAT     H126117   1.786   1.873   7.018
 8625WAT     H226118   1.748   1.987   7.128
 8626WAT      O26119   0.465   5.086   5.497
 8626WAT     H126120   0.434   5.181   5.499
 8626WAT     H226121   0.489   5.056   5.590
 8627WAT      O26122   0.103   5.790   5.749
 8627WAT     H126123   0.024   5.771   5.808
 8627WAT     H226124   0.089   5.747   5.660
 8628WAT      O26125   6.959   6.886   2.053
 8628WAT     H126126   6.953   6.939   1.968
 8628WAT     H226127   6.958   6.789   2.031
 8629WAT      O26128   4.289   6.251   0.650
 8629WAT     H126129   4.378   6.286   0.622
 8629WAT     H226130   4.220   6.322   0.636
 8630WAT      O26131   8.697   4.825   0.322
 8630WAT     H126132   8.684   4.924   0.318
 8630WAT     H226133   8.792   4.805   0.343
 8631WAT      O26134   0.211   5.765   4.183
 8631WAT     H126135   0.150   5.793   4.257
 8631WAT     H226136   0.305   5.763   4.216
 8632WAT      O26137   5.714   2.859   4.041
 8632WAT     H126138   5.726   2.802   3.960
 8632WAT     H226139   5.802   2.870   4.087
 8633WAT      O26140   9.550   9.257   8.547
 8633WAT     H126141   9.489   9.203   8.489
 8633WAT     H226142   9.527   9.354   8.540
 8634WAT      O26143   5.852   8.182   8.571
 8634WAT     H126144   5.922   8.122   8.609
 8634WAT     H226145   5.870   8.276   8.600
 8635WAT      O26146   2.510   6.648   1.441
 8635WAT     H126147   2.454   6.624   1.520
 8635WAT     H226148   2.467   6.724   1.392
 8636WAT      O26149   6.663   8.910   3.421
 8636WAT     H126150   6.651   8.834   3.486
 8636WAT     H226151   6.698   8.990   3.470
 8637WAT      O26152   4.794   9.348   7.985
 8637WAT     H126153   4.798   9.447   7.976
 8637WAT     H226154   4.882   9.314   8.018
 8638WAT      O26155   7.108   2.821   6.207
 8638WAT     H126156   7.025   2.784   6.249
 8638WAT     H226157   7.085   2.903   6.155
 8639WAT      O26158   9.430   5.497   9.048
 8639WAT     H126159   9.434   5.597   9.042
 8639WAT     H226160   9.338   5.469   9.073
 8640WAT      O26161   5.806   7.792   5.378
 8640WAT     H126162   5.884   7.769   5.436
 8640WAT     H226163   5.838   7.803   5.283
 8641WAT      O26164   7.444   7.105   2.514
 8641WAT     H126165   7.497   7.045   2.453
 8641WAT     H226166   7.373   7.151   2.461
 8642WAT      O26167   7.760   7.433   2.133
 8642WAT     H126168   7.729   7.375   2.209
 8642WAT     H226169   7.688   7.439   2.065
 8643WAT      O26170   3.009   3.697   0.679
 8643WAT     H126171   3.039   3.750   0.599
 8643WAT     H226172   2.912   3.716   0.696
 8644WAT      O26173   6.149   3.459   1.593
 8644WAT     H126174   6.200   3.389   1.643
 8644WAT     H226175   6.082   3.501   1.654
 8645WAT      O26176   1.907   2.161   7.464
 8645WAT     H126177   1.902   2.107   7.548
 8645WAT     H226178   1.985   2.131   7.409
 8646WAT      O26179   0.709   8.725   8.272
 8646WAT     H126180   0.712   8.626   8.283
 8646WAT     H226181   0.747   8.769   8.353
 8647WAT      O26182   7.750   7.117   9.383
 8647WAT     H126183   7.778   7.031   9.426
 8647WAT     H226184   7.713   7.100   9.292
 8648WAT      O26185   7.610   5.379   0.272
 8648WAT     H126186   7.548   5.303   0.294
 8648WAT     H226187   7.595   5.407   0.177
 8649WAT      O26188   9.883   3.280   9.098
 8649WAT     H126189   9.837   3.257   9.183
 8649WAT     H226190   9.920   3.373   9.104
 8650WAT      O26191   1.186   2.741   7.384
 8650WAT     H126192   1.283   2.744   7.406
 8650WAT     H226193   1.139   2.816   7.432
 8651WAT      O26194   1.668   1.809   0.804
 8651WAT     H126195   1.639   1.889   0.750
 8651WAT     H226196   1.718   1.746   0.745
 8652WAT      O26197   6.456   8.965   1.491
 8652WAT     H126198   6.404   8.951   1.406
 8652WAT     H226199   6.394   8.956   1.569
 8653WAT      O26200   6.502   9.472   0.059
 8653WAT     H126201   6.509   9.534   0.137
 8653WAT     H226202   6.587   9.421   0.049
 8654WAT      O26203   8.731   5.468   1.613
 8654WAT     H126204   8.698   5.541   1.553
 8654WAT     H226205   8.662   5.397   1.621
 8655WAT      O26206   8.171   4.774   1.054
 8655WAT     H126207   8.267   4.784   1.081
 8655WAT     H226208   8.162   4.700   0.988
 8656WAT      O26209   4.182   8.676   8.041
 8656WAT     H126210   4.234   8.610   8.096
 8656WAT     H226211   4.179   8.764   8.089
 8657WAT      O26212   7.934   5.005   3.198
 8657WAT     H126213   8.003   4.950   3.246
 8657WAT     H226214   7.843   4.982   3.232
 8658WAT      O26215   1.255   4.092   4.620
 8658WAT     H126216   1.339   4.072   4.568
 8658WAT     H226217   1.234   4.014   4.679
 8659WAT      O26218   7.722   4.316   6.062
 8659WAT     H126219   7.648   4.331   5.996
 8659WAT     H226220   7.779   4.241   6.032
 8660WAT      O26221   1.208   2.306   4.163
 8660WAT     H126222   1.145   2.265   4.097
 8660WAT     H226223   1.188   2.404   4.171
 8661WAT      O26224   8.764   0.923   8.749
 8661WAT     H126225   8.859   0.902   8.772
 8661WAT     H226226   8.708   0.841   8.763
 8662WAT      O26227   1.677   0.033   8.301
 8662WAT     H126228   1.675  -0.039   8.371
 8662WAT     H226229   1.769   0.040   8.264
 8663WAT      O26230   7.133   9.291   6.210
 8663WAT     H126231   7.211   9.315   6.152
 8663WAT     H226232   7.147   9.329   6.301
 8664WAT      O26233   4.331   4.307   0.888
 8664WAT     H126234   4.241   4.339   0.861
 8664WAT     H226235   4.325   4.256   0.974
 8665WAT      O26236   5.093   5.963   6.844
 8665WAT     H126237   5.148   5.916   6.775
 8665WAT     H226238   4.997   5.962   6.815
 8666WAT      O26239   7.543   0.703   6.135
 8666WAT     H126240   7.499   0.642   6.069
 8666WAT     H226241   7.483   0.782   6.153
 8667WAT      O26242   4.944   7.735   7.841
 8667WAT     H126243   4.899   7.674   7.775
 8667WAT     H226244   4.969   7.820   7.795
 8668WAT      O26245   1.674   1.369   4.924
 8668WAT     H126246   1.585   1.333   4.894
 8668WAT     H226247   1.720   1.300   4.981
 8669WAT      O26248   4.625   1.107   8.482
 8669WAT     H126249   4.618   1.098   8.581
 8669WAT     H226250   4.576   1.032   8.437
 8670WAT      O26251   1.119   5.576   4.145
 8670WAT     H126252   1.153   5.556   4.053
 8670WAT     H226253   1.027   5.615   4.139
 8671WAT      O26254   2.292   1.700   7.925
 8671WAT     H126255   2.206   1.740   7.895
 8671WAT     H226256   2.339   1.763   7.986
 8672WAT      O26257   4.592   3.507   1.931
 8672WAT     H126258   4.674   3.552   1.897
 8672WAT     H226259   4.513   3.538   1.878
 8673WAT      O26260   6.205   4.474   2.858
 8673WAT     H126261   6.244   4.490   2.949
 8673WAT     H226262   6.118   4.426   2.868
 8674WAT      O26263   9.741   1.936   8.746
 8674WAT     H126264   9.771   1.929   8.841
 8674WAT     H226265   9.799   1.880   8.688
 8675WAT      O26266   0.273   9.314   2.292
 8675WAT     H126267   0.205   9.348   2.357
 8675WAT     H226268   0.271   9.214   2.292
 8676WAT      O26269   6.501   6.783   4.451
 8676WAT     H126270   6.566   6.729   4.398
 8676WAT     H226271   6.461   6.725   4.522
 8677WAT      O26272   3.005   0.417   3.900
 8677WAT     H126273   3.030   0.508   3.867
 8677WAT     H226274   3.016   0.351   3.825
 8678WAT      O26275   8.898   3.806   6.285
 8678WAT     H126276   8.867   3.827   6.378
 8678WAT     H226277   8.947   3.719   6.285
 8679WAT      O26278   1.133   7.301   7.772
 8679WAT     H126279   1.195   7.240   7.822
 8679WAT     H226280   1.169   7.319   7.681
 8680WAT      O26281   3.393   0.790   5.702
 8680WAT     H126282   3.295   0.794   5.686
 8680WAT     H226283   3.434   0.879   5.680
 8681WAT      O26284   6.507   9.568   7.255
 8681WAT     H126285   6.527   9.618   7.340
 8681WAT     H226286   6.437   9.499   7.273
 8682WAT      O26287   6.085   8.653   8.844
 8682WAT     H126288   6.004   8.596   8.858
 8682WAT     H226289   6.151   8.604   8.786
 8683WAT      O26290   0.463   1.495   1.503
 8683WAT     H126291   0.561   1.508   1.523
 8683WAT     H226292   0.447   1.506   1.405
 8684WAT      O26293   0.199   9.552   5.174
 8684WAT     H126294   0.246   9.639   5.189
 8684WAT     H226295   0.232   9.510   5.090
 8685WAT      O26296   6.451   6.358   7.924
 8685WAT     H126297   6.445   6.288   7.852
 8685WAT     H226298   6.537   6.407   7.915
 8686WAT      O26299   7.539   8.927   5.837
 8686WAT     H126300   7.626   8.877   5.839
 8686WAT     H226301   7.523   8.968   5.927
 8687WAT      O26302   6.848   7.310   3.448
 8687WAT     H126303   6.775   7.252   3.410
 8687WAT     H226304   6.919   7.322   3.379
 8688WAT      O26305   0.756   0.587   5.635
 8688WAT     H126306   0.741   0.669   5.691
 8688WAT     H226307   0.794   0.515   5.693
 8689WAT      O26308   2.528   0.503   4.778
 8689WAT     H126309   2.607   0.514   4.838
 8689WAT     H226310   2.546   0.430   4.712
 8690WAT      O26311   1.713   4.740   2.929
 8690WAT     H126312   1.812   4.741   2.944
 8690WAT     H226313   1.669   4.801   2.994
 8691WAT      O26314   3.332   7.391   6.434
 8691WAT     H126315   3.362   7.327   6.363
 8691WAT     H226316   3.241   7.426   6.411
 8692WAT      O26317   8.693   3.307   6.071
 8692WAT     H126318   8.698   3.405   6.051
 8692WAT     H226319   8.744   3.289   6.156
 8693WAT      O26320   4.789   2.435   7.396
 8693WAT     H126321   4.742   2.427   7.484
 8693WAT     H226322   4.788   2.346   7.350
 8694WAT      O26323   8.127   1.072   6.275
 8694WAT     H126324   8.053   1.082   6.340
 8694WAT     H226325   8.097   1.103   6.184
 8695WAT      O26326   8.326   1.289   3.847
 8695WAT     H126327   8.328   1.326   3.940
 8695WAT     H226328   8.243   1.233   3.836
 8696WAT      O26329   6.093   8.388   6.343
 8696WAT     H126330   6.001   8.417   6.370
 8696WAT     H226331   6.114   8.424   6.252
 8697WAT      O26332   2.870   2.031   2.823
 8697WAT     H126333   2.945   2.062   2.881
 8697WAT     H226334   2.809   2.108   2.803
 8698WAT      O26335   6.486   5.327   8.790
 8698WAT     H126336   6.447   5.378   8.714
 8698WAT     H226337   6.443   5.237   8.796
 8699WAT      O26338   1.221   8.747   1.960
 8699WAT     H126339   1.243   8.656   1.997
 8699WAT     H226340   1.170   8.799   2.028
 8700WAT      O26341   7.041   6.916   2.934
 8700WAT     H126342   7.138   6.938   2.934
 8700WAT     H226343   7.027   6.824   2.970
 8701WAT      O26344   4.204   6.425   7.665
 8701WAT     H126345   4.139   6.482   7.716
 8701WAT     H226346   4.155   6.347   7.625
 8702WAT      O26347   3.122   9.599   4.234
 8702WAT     H126348   3.182   9.679   4.246
 8702WAT     H226349   3.029   9.631   4.215
 8703WAT      O26350   8.736   4.323   5.615
 8703WAT     H126351   8.776   4.239   5.578
 8703WAT     H226352   8.763   4.401   5.559
 8704WAT      O26353   5.239   7.187   8.440
 8704WAT     H126354   5.233   7.250   8.517
 8704WAT     H226355   5.163   7.123   8.442
 8705WAT      O26356   3.023   9.129   0.554
 8705WAT     H126357   3.047   9.208   0.611
 8705WAT     H226358   3.065   9.047   0.592
 8706WAT      O26359   3.808   3.054   5.946
 8706WAT     H126360   3.866   3.132   5.923
 8706WAT     H226361   3.791   2.999   5.864
 8707WAT      O26362   3.062   7.566   1.696
 8707WAT     H126363   3.114   7.567   1.781
 8707WAT     H226364   2.976   7.615   1.710
 8708WAT      O26365   4.618   0.149   2.511
 8708WAT     H126366   4.690   0.081   2.523
 8708WAT     H226367   4.600   0.160   2.413
 8709WAT      O26368   0.895   6.869   8.804
 8709WAT     H126369   0.816   6.908   8.756
 8709WAT     H226370   0.939   6.801   8.745
 8710WAT      O26371   6.931   6.236   0.267
 8710WAT     H126372   6.988   6.155   0.277
 8710WAT     H226373   6.984   6.309   0.224
 8711WAT      O26374   7.488   6.356   0.407
 8711WAT     H126375   7.552   6.343   0.332
 8711WAT     H226376   7.424   6.430   0.384
 8712WAT      O26377   2.692   3.483   6.045
 8712WAT     H126378   2.617   3.494   6.110
 8712WAT     H226379   2.737   3.571   6.030
 8713WAT      O26380   7.396   6.607   5.772
 8713WAT     H126381   7.463   6.551   5.724
 8713WAT     H226382   7.326   6.547   5.812
 8714WAT      O26383   9.884   3.731   0.759
 8714WAT     H126384   9.950   3.743   0.833
 8714WAT     H226385   9.838   3.818   0.740
 8715WAT      O26386   6.897   8.653   5.282
 8715WAT     H126387   6.907   8.562   5.243
 8715WAT     H226388   6.926   8.652   5.378
 8716WAT      O26389   8.248   0.160   7.690
 8716WAT     H126390   8.221   0.133   7.783
 8716WAT     H226391   8.333   0.114   7.666
 8717WAT      O26392   6.868   0.299   0.610
 8717WAT     H126393   6.956   0.337   0.583
 8717WAT     H226394   6.803   0.305   0.534
 8718WAT      O26395   4.237   5.763   3.642
 8718WAT     H126396   4.272   5.854   3.667
 8718WAT     H226397   4.255   5.699   3.717
 8719WAT      O26398   2.116   8.227   4.247
 8719WAT     H126399   2.138   8.199   4.154
 8719WAT     H226400   2.140   8.153   4.310
 8720WAT      O26401   9.874   5.071   5.539
 8720WAT     H126402   9.952   5.011   5.520
 8720WAT     H226403   9.826   5.092   5.454
 8721WAT      O26404   2.983   7.187   4.222
 8721WAT     H126405   2.944   7.133   4.297
 8721WAT     H226406   2.920   7.262   4.200
 8722WAT      O26407   5.702   7.487   3.237
 8722WAT     H126408   5.641   7.560   3.270
 8722WAT     H226409   5.766   7.463   3.309
 8723WAT      O26410   7.456   8.503   1.023
 8723WAT     H126411   7.435   8.601   1.026
 8723WAT     H226412   7.477   8.477   0.929
 8724WAT      O26413   1.164   5.467   2.749
 8724WAT     H126414   1.158   5.555   2.796
 8724WAT     H226415   1.184   5.395   2.815
 8725WAT      O26416   3.898   1.264   9.370
 8725WAT     H126417   3.932   1.181   9.327
 8725WAT     H226418   3.799   1.255   9.386
 8726WAT      O26419   1.437   2.145   7.829
 8726WAT     H126420   1.356   2.140   7.770
 8726WAT     H226421   1.422   2.214   7.900
 8727WAT      O26422   8.561   0.566   2.043
 8727WAT     H126423   8.660   0.558   2.025
 8727WAT     H226424   8.539   0.661   2.065
 8728WAT      O26425   3.066   1.916   8.554
 8728WAT     H126426   2.997   1.971   8.507
 8728WAT     H226427   3.080   1.831   8.503
 8729WAT      O26428   3.278   2.415   3.874
 8729WAT     H126429   3.200   2.464   3.913
 8729WAT     H226430   3.363   2.452   3.911
 8730WAT      O26431   4.545   9.079   5.184
 8730WAT     H126432   4.473   9.081   5.115
 8730WAT     H226433   4.594   9.166   5.183
 8731WAT      O26434   0.488   4.783   5.350
 8731WAT     H126435   0.520   4.870   5.314
 8731WAT     H226436   0.395   4.766   5.318
 8732WAT      O26437   4.714   7.572   5.492
 8732WAT     H126438   4.622   7.571   5.453
 8732WAT     H226439   4.737   7.480   5.525
 8733WAT      O26440   5.274   6.871   3.832
 8733WAT     H126441   5.217   6.897   3.754
 8733WAT     H226442   5.216   6.854   3.911
 8734WAT      O26443   4.825   3.405   5.829
 8734WAT     H126444   4.795   3.496   5.802
 8734WAT     H226445   4.900   3.375   5.771
 8735WAT      O26446   8.003   9.361   8.286
 8735WAT     H126447   7.986   9.295   8.212
 8735WAT     H226448   8.101   9.382   8.290
 8736WAT      O26449   2.139   4.083   2.217
 8736WAT     H126450   2.216   4.034   2.256
 8736WAT     H226451   2.066   4.019   2.194
 8737WAT      O26452   3.736   0.125   4.122
 8737WAT     H126453   3.829   0.112   4.159
 8737WAT     H226454   3.670   0.088   4.187
 8738WAT      O26455   0.895   2.102   0.641
 8738WAT     H126456   0.976   2.061   0.599
 8738WAT     H226457   0.877   2.191   0.598
 8739WAT      O26458   6.936   8.957   6.879
 8739WAT     H126459   6.842   8.939   6.851
 8739WAT     H226460   6.938   9.035   6.942
 8740WAT      O26461   5.906   7.923   6.970
 8740WAT     H126462   5.875   7.893   7.060
 8740WAT     H226463   6.004   7.940   6.972
 8741WAT      O26464   2.242   8.825   1.611
 8741WAT     H126465   2.306   8.795   1.681
 8741WAT     H226466   2.260   8.776   1.525
 8742WAT      O26467   0.767   3.336   5.522
 8742WAT     H126468   0.846   3.281   5.547
 8742WAT     H226469   0.754   3.409   5.589
 8743WAT      O26470   5.644   5.427   7.795
 8743WAT     H126471   5.574   5.361   7.770
 8743WAT     H226472   5.680   5.470   7.713
 8744WAT      O26473   2.620   0.796   2.161
 8744WAT     H126474   2.610   0.873   2.224
 8744WAT     H226475   2.709   0.752   2.176
 8745WAT      O26476   3.026   9.150   4.627
 8745WAT     H126477   2.970   9.073   4.597
 8745WAT     H226478   2.994   9.182   4.716
 8746WAT      O26479   9.585   3.886   3.615
 8746WAT     H126480   9.556   3.790   3.613
 8746WAT     H226481   9.651   3.903   3.542
 8747WAT      O26482   2.077   3.460   6.362
 8747WAT     H126483   2.137   3.539   6.378
 8747WAT     H226484   1.984   3.483   6.390
 8748WAT      O26485   2.570   9.021   0.326
 8748WAT     H126486   2.582   9.030   0.227
 8748WAT     H226487   2.531   9.106   0.362
 8749WAT      O26488   4.838   7.939   9.598
 8749WAT     H126489   4.897   7.944   9.517
 8749WAT     H226490   4.836   8.027   9.643
 8750WAT      O26491   0.304   6.030   7.347
 8750WAT     H126492   0.369   6.008   7.419
 8750WAT     H226493   0.329   6.117   7.304
 8751WAT      O26494   4.590   2.455   1.136
 8751WAT     H126495   4.526   2.475   1.061
 8751WAT     H226496   4.648   2.378   1.110
 8752WAT      O26497   7.066   0.789   5.845
 8752WAT     H126498   7.144   0.840   5.810
 8752WAT     H226499   7.098   0.721   5.912
 8753WAT      O26500   5.496   8.120   3.407
 8753WAT     H126501   5.463   8.031   3.438
 8753WAT     H226502   5.444   8.193   3.452
 8754WAT      O26503   1.416   7.052   5.909
 8754WAT     H126504   1.387   7.017   5.820
 8754WAT     H226505   1.450   6.977   5.966
 8755WAT      O26506   7.825   1.683   9.771
 8755WAT     H126507   7.730   1.665   9.793
 8755WAT     H226508   7.882   1.672   9.852
 8756WAT      O26509   7.001   7.954   1.974
 8756WAT     H126510   6.967   8.013   2.048
 8756WAT     H226511   7.000   7.859   2.004
 8757WAT      O26512   3.496   2.083   0.421
 8757WAT     H126513   3.436   2.099   0.343
 8757WAT     H226514   3.513   1.984   0.430
 8758WAT      O26515   6.785   7.439   1.795
 8758WAT     H126516   6.867   7.475   1.751
 8758WAT     H226517   6.718   7.413   1.724
 8759WAT      O26518   1.255   3.808   3.212
 8759WAT     H126519   1.338   3.859   3.232
 8759WAT     H226520   1.234   3.815   3.115
 8760WAT      O26521   2.043   5.966   4.515
 8760WAT     H126522   2.127   5.985   4.565
 8760WAT     H226523   2.043   5.871   4.484
 8761WAT      O26524   1.342   4.233   1.880
 8761WAT     H126525   1.309   4.310   1.825
 8761WAT     H226526   1.384   4.267   1.964
 8762WAT      O26527   8.892   0.078   4.962
 8762WAT     H126528   8.966   0.146   4.969
 8762WAT     H226529   8.834   0.100   4.884
 8763WAT      O26530   8.346   9.035   9.259
 8763WAT     H126531   8.393   9.110   9.212
 8763WAT     H226532   8.306   9.068   9.344
 8764WAT      O26533   4.617   6.366   7.539
 8764WAT     H126534   4.542   6.380   7.475
 8764WAT     H226535   4.628   6.446   7.597
 8765WAT      O26536   2.906   8.646   0.949
 8765WAT     H126537   2.867   8.581   0.883
 8765WAT     H226538   2.915   8.736   0.906
 8766WAT      O26539   1.657   0.673   0.592
 8766WAT     H126540   1.584   0.699   0.655
 8766WAT     H226541   1.666   0.573   0.590
 8767WAT      O26542   2.157   1.229   5.681
 8767WAT     H126543   2.119   1.150   5.632
 8767WAT     H226544   2.114   1.313   5.647
 8768WAT      O26545   3.029   6.869   9.277
 8768WAT     H126546   2.993   6.927   9.204
 8768WAT     H226547   3.126   6.850   9.260
 8769WAT      O26548   6.988   6.055   4.352
 8769WAT     H126549   7.062   6.048   4.419
 8769WAT     H226550   7.007   6.130   4.289
 8770WAT      O26551   0.981   7.660   4.103
 8770WAT     H126552   0.925   7.741   4.086
 8770WAT     H226553   1.064   7.665   4.048
 8771WAT      O26554   1.604   0.932   4.588
 8771WAT     H126555   1.700   0.941   4.616
 8771WAT     H226556   1.573   1.017   4.546
 8772WAT      O26557   7.195   8.315   9.255
 8772WAT     H126558   7.104   8.284   9.284
 8772WAT     H226559   7.197   8.327   9.156
 8773WAT      O26560   3.448   5.272   5.684
 8773WAT     H126561   3.473   5.365   5.655
 8773WAT     H226562   3.513   5.207   5.646
 8774WAT      O26563   2.224   5.340   3.800
 8774WAT     H126564   2.250   5.281   3.876
 8774WAT     H226565   2.306   5.375   3.755
 8775WAT      O26566   6.934   5.394   7.698
 8775WAT     H126567   6.945   5.451   7.617
 8775WAT     H226568   6.859   5.329   7.684
 8776WAT      O26569   2.141   5.480   3.002
 8776WAT     H126570   2.194   5.516   3.079
 8776WAT     H226571   2.095   5.396   3.030
 8777WAT      O26572   6.017   6.930   4.853
 8777WAT     H126573   6.105   6.977   4.842
 8777WAT     H226574   5.959   6.982   4.915
 8778WAT      O26575   4.121   8.996   2.533
 8778WAT     H126576   4.213   8.972   2.565
 8778WAT     H226577   4.075   9.050   2.603
 8779WAT      O26578   5.344   1.636   1.452
 8779WAT     H126579   5.256   1.589   1.461
 8779WAT     H226580   5.414   1.569   1.427
 8780WAT      O26581   0.961   8.249   9.896
 8780WAT     H126582   0.964   8.271   9.798
 8780WAT     H226583   0.876   8.285   9.936
 8781WAT      O26584   3.840   7.573   5.112
 8781WAT     H126585   3.764   7.524   5.154
 8781WAT     H226586   3.807   7.624   5.033
 8782WAT      O26587   0.194   5.486   0.653
 8782WAT     H126588   0.245   5.401   0.641
 8782WAT     H226589   0.144   5.506   0.569
 8783WAT      O26590   0.521   6.185   3.516
 8783WAT     H126591   0.501   6.099   3.469
 8783WAT     H226592   0.611   6.218   3.488
 8784WAT      O26593   7.392   3.154   7.003
 8784WAT     H126594   7.355   3.232   7.055
 8784WAT     H226595   7.431   3.187   6.917
 8785WAT      O26596   4.516   9.716   5.055
 8785WAT     H126597   4.431   9.689   5.100
 8785WAT     H226598   4.535   9.654   4.979
 8786WAT      O26599   5.958   8.284   7.115
 8786WAT     H126600   5.921   8.375   7.094
 8786WAT     H226601   6.051   8.277   7.078
 8787WAT      O26602   6.127   4.116   8.815
 8787WAT     H126603   6.225   4.098   8.815
 8787WAT     H226604   6.081   4.051   8.876
 8788WAT      O26605   1.740   0.267   7.311
 8788WAT     H126606   1.813   0.336   7.307
 8788WAT     H226607   1.780   0.176   7.312
 8789WAT      O26608   6.529   5.209   0.387
 8789WAT     H126609   6.535   5.302   0.423
 8789WAT     H226610   6.478   5.151   0.451
 8790WAT      O26611   1.513   3.287   7.858
 8790WAT     H126612   1.600   3.324   7.827
 8790WAT     H226613   1.523   3.247   7.948
 8791WAT      O26614   4.010   1.870   4.292
 8791WAT     H126615   4.060   1.863   4.206
 8791WAT     H226616   3.947   1.792   4.300
 8792WAT      O26617   1.141   0.165   7.423
 8792WAT     H126618   1.189   0.249   7.448
 8792WAT     H226619   1.135   0.158   7.323
 8793WAT      O26620   5.343   0.248   2.368
 8793WAT     H126621   5.251   0.282   2.385
 8793WAT     H226622   5.376   0.282   2.280
 8794WAT      O26623   2.173   7.784   6.583
 8794WAT     H126624   2.166   7.765   6.485
 8794WAT     H226625   2.099   7.845   6.610
 8795WAT      O26626   9.188   3.607   3.997
 8795WAT     H126627   9.223   3.513   3.990
 8795WAT     H226628   9.162   3.625   4.092
 8796WAT      O26629   7.062   8.586   6.795
 8796WAT     H126630   6.969   8.609   6.767
 8796WAT     H226631   7.059   8.528   6.876
 8797WAT      O26632   2.870   5.554   0.922
 8797WAT     H126633   2.960   5.515   0.939
 8797WAT     H226634   2.855   5.633   0.981
 8798WAT      O26635   2.576   6.526   8.473
 8798WAT     H126636   2.602   6.618   8.502
 8798WAT     H226637   2.655   6.465   8.482
 8799WAT      O26638   2.108   6.881   4.658
 8799WAT     H126639   2.088   6.823   4.578
 8799WAT     H226640   2.207   6.893   4.665
 8800WAT      O26641   8.222   5.723   8.679
 8800WAT     H126642   8.314   5.686   8.664
 8800WAT     H226643   8.166   5.706   8.598
 8801WAT      O26644   3.938   0.505   4.810
 8801WAT     H126645   3.936   0.591   4.862
 8801WAT     H226646   4.001   0.514   4.734
 8802WAT      O26647   4.671   8.467   4.658
 8802WAT     H126648   4.768   8.491   4.664
 8802WAT     H226649   4.615   8.550   4.663
 8803WAT      O26650   5.797   1.490   9.808
 8803WAT     H126651   5.721   1.533   9.857
 8803WAT     H226652   5.775   1.394   9.791
 8804WAT      O26653   4.861   8.065   1.678
 8804WAT     H126654   4.933   8.094   1.616
 8804WAT     H226655   4.873   7.969   1.702
 8805WAT      O26656   0.540   7.273   5.123
 8805WAT     H126657   0.456   7.324   5.143
 8805WAT     H226658   0.525   7.176   5.140
 8806WAT      O26659   7.081   6.429   1.417
 8806WAT     H126660   7.111   6.355   1.357
 8806WAT     H226661   7.042   6.503   1.362
 8807WAT      O26662   6.280   2.259   5.162
 8807WAT     H126663   6.314   2.294   5.074
 8807WAT     H226664   6.213   2.324   5.199
 8808WAT      O26665   4.529   9.105   3.892
 8808WAT     H126666   4.447   9.053   3.872
 8808WAT     H226667   4.565   9.145   3.807
 8809WAT      O26668   1.313   2.608   4.609
 8809WAT     H126669   1.236   2.566   4.656
 8809WAT     H226670   1.306   2.708   4.615
 8810WAT      O26671   8.883   4.007   2.927
 8810WAT     H126672   8.947   3.935   2.956
 8810WAT     H226673   8.819   3.970   2.860
 8811WAT      O26674   5.967   1.537   6.383
 8811WAT     H126675   5.889   1.513   6.325
 8811WAT     H226676   5.979   1.637   6.383
 8812WAT      O26677   3.890   9.698   4.653
 8812WAT     H126678   3.935   9.786   4.639
 8812WAT     H226679   3.896   9.644   4.570
 8813WAT      O26680   4.006   7.910   1.864
 8813WAT     H126681   3.974   7.825   1.907
 8813WAT     H226682   4.075   7.889   1.795
 8814WAT      O26683   0.128   2.439   9.201
 8814WAT     H126684   0.175   2.385   9.131
 8814WAT     H226685   0.195   2.493   9.252
 8815WAT      O26686   6.746   3.285   8.182
 8815WAT     H126687   6.839   3.301   8.149
 8815WAT     H226688   6.685   3.357   8.147
 8816WAT      O26689   5.568   3.531   7.459
 8816WAT     H126690   5.507   3.606   7.432
 8816WAT     H226691   5.605   3.486   7.378
 8817WAT      O26692   2.683   2.355   5.898
 8817WAT     H126693   2.603   2.389   5.850
 8817WAT     H226694   2.763   2.410   5.874
 8818WAT      O26695   6.169   2.476   2.543
 8818WAT     H126696   6.238   2.429   2.489
 8818WAT     H226697   6.121   2.411   2.602
 8819WAT      O26698   0.722   5.018   2.034
 8819WAT     H126699   0.689   5.092   1.974
 8819WAT     H226700   0.655   4.944   2.035
 8820WAT      O26701   7.501   3.794   5.008
 8820WAT     H126702   7.480   3.884   5.047
 8820WAT     H226703   7.495   3.798   4.909
 8821WAT      O26704   8.779   5.051   7.674
 8821WAT     H126705   8.696   4.996   7.680
 8821WAT     H226706   8.828   5.028   7.590
 8822WAT      O26707   6.000   2.585   2.929
 8822WAT     H126708   6.052   2.550   3.007
 8822WAT     H226709   6.005   2.521   2.853
 8823WAT      O26710   5.475   2.447   5.587
 8823WAT     H126711   5.418   2.368   5.562
 8823WAT     H226712   5.418   2.516   5.631
 8824WAT      O26713   3.740   6.754   0.197
 8824WAT     H126714   3.803   6.700   0.141
 8824WAT     H226715   3.745   6.850   0.170
 8825WAT      O26716   1.646   1.520   2.031
 8825WAT     H126717   1.711   1.445   2.027
 8825WAT     H226718   1.554   1.484   2.048
 8826WAT      O26719   7.356   7.880   5.556
 8826WAT     H126720   7.438   7.899   5.609
 8826WAT     H226721   7.373   7.900   5.459
 8827WAT      O26722   4.470   9.628   3.581
 8827WAT     H126723   4.413   9.569   3.524
 8827WAT     H226724   4.419   9.655   3.663
 8828WAT      O26725   5.062   3.136   3.766
 8828WAT     H126726   5.100   3.197   3.836
 8828WAT     H226727   5.087   3.171   3.675
 8829WAT      O26728   9.573   5.829   6.074
 8829WAT     H126729   9.621   5.771   6.140
 8829WAT     H226730   9.561   5.920   6.111
 8830WAT      O26731   7.451   7.795   0.050
 8830WAT     H126732   7.385   7.803   0.124
 8830WAT     H226733   7.430   7.714  -0.005
 8831WAT      O26734   0.688   1.919   6.372
 8831WAT     H126735   0.694   1.830   6.326
 8831WAT     H226736   0.593   1.936   6.399
 8832WAT      O26737   0.078   1.165   4.439
 8832WAT     H126738   0.007   1.121   4.494
 8832WAT     H226739   0.164   1.116   4.450
 8833WAT      O26740   9.852   2.434   7.235
 8833WAT     H126741   9.790   2.496   7.187
 8833WAT     H226742   9.934   2.484   7.263
 8834WAT      O26743   4.630   0.785   4.479
 8834WAT     H126744   4.607   0.784   4.576
 8834WAT     H226745   4.570   0.723   4.429
 8835WAT      O26746   0.042   2.428   3.200
 8835WAT     H126747   0.030   2.526   3.212
 8835WAT     H226748   0.025   2.381   3.287
 8836WAT      O26749   6.354   4.288   9.138
 8836WAT     H126750   6.255   4.272   9.128
 8836WAT     H226751   6.379   4.278   9.235
 8837WAT      O26752   4.747   0.196   7.617
 8837WAT     H126753   4.756   0.272   7.553
 8837WAT     H226754   4.801   0.118   7.585
 8838WAT      O26755   1.252   8.944   0.622
 8838WAT     H126756   1.199   9.020   0.583
 8838WAT     H226757   1.251   8.951   0.722
 8839WAT      O26758   8.208   4.879   4.090
 8839WAT     H126759   8.202   4.873   3.991
 8839WAT     H226760   8.134   4.937   4.125
 8840WAT      O26761   7.238   1.286   5.407
 8840WAT     H126762   7.166   1.234   5.360
 8840WAT     H226763   7.309   1.311   5.341
 8841WAT      O26764   7.703   8.916   5.437
 8841WAT     H126765   7.610   8.881   5.430
 8841WAT     H226766   7.765   8.840   5.457
 8842WAT      O26767   1.238   6.916   3.216
 8842WAT     H126768   1.156   6.866   3.186
 8842WAT     H226769   1.318   6.858   3.206
 8843WAT      O26770   9.251   8.762   7.559
 8843WAT     H126771   9.289   8.800   7.475
 8843WAT     H226772   9.314   8.777   7.635
 8844WAT      O26773   1.342   5.280   3.774
 8844WAT     H126774   1.417   5.219   3.746
 8844WAT     H226775   1.348   5.298   3.872
 8845WAT      O26776   9.029   9.253   0.373
 8845WAT     H126777   8.972   9.321   0.419
 8845WAT     H226778   9.086   9.206   0.441
 8846WAT      O26779   5.282   8.163   8.599
 8846WAT     H126780   5.351   8.225   8.561
 8846WAT     H226781   5.196   8.174   8.548
 8847WAT      O26782   1.735   7.756   9.201
 8847WAT     H126783   1.761   7.662   9.182
 8847WAT     H226784   1.681   7.792   9.124
 8848WAT      O26785   6.791   4.897   4.260
 8848WAT     H126786   6.886   4.918   4.236
 8848WAT     H226787   6.783   4.802   4.287
 8849WAT      O26788   3.878   6.400   8.065
 8849WAT     H126789   3.885   6.408   7.966
 8849WAT     H226790   3.953   6.449   8.109
 8850WAT      O26791   9.762   6.185   3.023
 8850WAT     H126792   9.772   6.262   2.960
 8850WAT     H226793   9.840   6.123   3.013
 8851WAT      O26794   7.660   8.645   7.018
 8851WAT     H126795   7.629   8.616   6.927
 8851WAT     H226796   7.583   8.641   7.082
 8852WAT      O26797   4.339   2.683   8.773
 8852WAT     H126798   4.423   2.736   8.769
 8852WAT     H226799   4.354   2.593   8.731
 8853WAT      O26800   1.567   6.711   7.481
 8853WAT     H126801   1.624   6.721   7.399
 8853WAT     H226802   1.614   6.753   7.559
 8854WAT      O26803   4.672   8.093   4.005
 8854WAT     H126804   4.769   8.107   4.024
 8854WAT     H226805   4.618   8.156   4.061
 8855WAT      O26806   8.818   5.384   2.169
 8855WAT     H126807   8.788   5.467   2.217
 8855WAT     H226808   8.755   5.366   2.093
 8856WAT      O26809   0.715   3.003   3.348
 8856WAT     H126810   0.619   3.014   3.376
 8856WAT     H226811   0.770   3.076   3.387
 8857WAT      O26812   3.729   3.311   5.440
 8857WAT     H126813   3.679   3.397   5.430
 8857WAT     H226814   3.755   3.277   5.349
 8858WAT      O26815   1.995   6.434   1.725
 8858WAT     H126816   2.033   6.525   1.739
 8858WAT     H226817   1.976   6.392   1.814
 8859WAT      O26818   9.563   8.669   9.269
 8859WAT     H126819   9.470   8.639   9.291
 8859WAT     H226820   9.560   8.736   9.196
 8860WAT      O26821   7.639   2.251   5.571
 8860WAT     H126822   7.629   2.346   5.601
 8860WAT     H226823   7.573   2.231   5.499
 8861WAT      O26824   1.999   0.377   5.492
 8861WAT     H126825   2.088   0.394   5.536
 8861WAT     H226826   2.014   0.351   5.397
 8862WAT      O26827   9.832   5.641   4.988
 8862WAT     H126828   9.808   5.698   4.909
 8862WAT     H226829   9.769   5.564   4.994
 8863WAT      O26830   3.762   8.386   1.935
 8863WAT     H126831   3.824   8.431   1.870
 8863WAT     H226832   3.770   8.287   1.925
 8864WAT      O26833   8.969   5.007   6.788
 8864WAT     H126834   9.015   4.955   6.860
 8864WAT     H226835   8.981   5.105   6.805
 8865WAT      O26836   3.896   2.937   1.144
 8865WAT     H126837   3.854   2.859   1.192
 8865WAT     H226838   3.885   2.926   1.046
 8866WAT      O26839   5.980   3.659   3.355
 8866WAT     H126840   6.029   3.615   3.279
 8866WAT     H226841   6.042   3.722   3.402
 8867WAT      O26842   3.868   5.732   4.170
 8867WAT     H126843   3.892   5.646   4.214
 8867WAT     H226844   3.769   5.745   4.174
 8868WAT      O26845   1.507   2.697   1.182
 8868WAT     H126846   1.593   2.655   1.211
 8868WAT     H226847   1.437   2.679   1.251
 8869WAT      O26848   5.057   9.368   8.124
 8869WAT     H126849   5.103   9.337   8.041
 8869WAT     H226850   5.044   9.291   8.186
 8870WAT      O26851   4.007   7.998   4.214
 8870WAT     H126852   3.999   7.908   4.257
 8870WAT     H226853   3.953   8.065   4.266
 8871WAT      O26854   1.578   9.251   5.384
 8871WAT     H126855   1.570   9.350   5.370
 8871WAT     H226856   1.615   9.233   5.475
 8872WAT      O26857   1.814   1.969   5.949
 8872WAT     H126858   1.841   2.052   5.997
 8872WAT     H226859   1.869   1.892   5.981
 8873WAT      O26860   2.832   0.372   6.013
 8873WAT     H126861   2.863   0.287   5.970
 8873WAT     H226862   2.908   0.417   6.059
 8874WAT      O26863   8.394   9.692   8.966
 8874WAT     H126864   8.465   9.654   8.906
 8874WAT     H226865   8.391   9.791   8.956
 8875WAT      O26866   1.985   6.178   8.924
 8875WAT     H126867   2.062   6.221   8.971
 8875WAT     H226868   1.962   6.092   8.969
 8876WAT      O26869   3.913   2.517   6.498
 8876WAT     H126870   3.895   2.596   6.557
 8876WAT     H226871   3.984   2.540   6.432
 8877WAT      O26872   4.803   3.827   7.876
 8877WAT     H126873   4.851   3.915   7.873
 8877WAT     H226874   4.798   3.795   7.971
 8878WAT      O26875   6.078   6.020   1.285
 8878WAT     H126876   6.140   5.993   1.358
 8878WAT     H226877   5.991   6.050   1.325
 8879WAT      O26878   9.849   7.849   6.568
 8879WAT     H126879   9.925   7.908   6.542
 8879WAT     H226880   9.813   7.804   6.486
 8880WAT      O26881   3.428   5.064   1.799
 8880WAT     H126882   3.391   5.086   1.889
 8880WAT     H226883   3.354   5.063   1.732
 8881WAT      O26884   2.907   6.194   3.322
 8881WAT     H126885   2.967   6.115   3.332
 8881WAT     H226886   2.958   6.270   3.282
 8882WAT      O26887   8.654   3.215   8.758
 8882WAT     H126888   8.607   3.216   8.670
 8882WAT     H226889   8.666   3.121   8.789
 8883WAT      O26890   6.754   4.755   2.467
 8883WAT     H126891   6.823   4.687   2.492
 8883WAT     H226892   6.684   4.712   2.410
 8884WAT      O26893   1.565   6.061   4.204
 8884WAT     H126894   1.488   6.092   4.148
 8884WAT     H226895   1.627   6.006   4.148
 8885WAT      O26896   2.304   4.186   5.566
 8885WAT     H126897   2.368   4.143   5.630
 8885WAT     H226898   2.270   4.117   5.502
 8886WAT      O26899   8.353   7.347   8.858
 8886WAT     H126900   8.374   7.385   8.947
 8886WAT     H226901   8.395   7.402   8.786
 8887WAT      O26902   5.816   5.740   4.723
 8887WAT     H126903   5.836   5.816   4.785
 8887WAT     H226904   5.845   5.654   4.765
 8888WAT      O26905   0.774   2.349   0.564
 8888WAT     H126906   0.699   2.341   0.631
 8888WAT     H226907   0.821   2.436   0.579
 8889WAT      O26908   9.502   9.423   3.686
 8889WAT     H126909   9.418   9.462   3.647
 8889WAT     H226910   9.494   9.420   3.785
 8890WAT      O26911   1.765   0.594   8.777
 8890WAT     H126912   1.731   0.687   8.797
 8890WAT     H226913   1.785   0.586   8.680
 8891WAT      O26914   7.433   4.783   7.662
 8891WAT     H126915   7.363   4.849   7.687
 8891WAT     H226916   7.413   4.695   7.705
 8892WAT      O26917   2.941   8.428   9.209
 8892WAT     H126918   2.941   8.461   9.303
 8892WAT     H226919   2.880   8.484   9.154
 8893WAT      O26920   9.508   5.435   1.082
 8893WAT     H126921   9.424   5.430   1.136
 8893WAT     H226922   9.578   5.376   1.122
 8894WAT      O26923   2.094   9.703   8.411
 8894WAT     H126924   2.063   9.612   8.382
 8894WAT     H226925   2.078   9.768   8.337
 8895WAT      O26926   1.516   6.433   7.118
 8895WAT     H126927   1.436   6.413   7.061
 8895WAT     H226928   1.544   6.528   7.102
 8896WAT      O26929   4.627   0.664   5.167
 8896WAT     H126930   4.662   0.725   5.238
 8896WAT     H226931   4.702   0.637   5.107
 8897WAT      O26932   0.130   8.013   3.453
 8897WAT     H126933   0.196   7.963   3.397
 8897WAT     H226934   0.178   8.054   3.531
 8898WAT      O26935   4.783   8.008   2.809
 8898WAT     H126936   4.739   7.989   2.897
 8898WAT     H226937   4.868   7.956   2.803
 8899WAT      O26938   7.724   3.609   6.235
 8899WAT     H126939   7.702   3.567   6.323
 8899WAT     H226940   7.817   3.646   6.238
 8900WAT      O26941   9.276   7.177   3.513
 8900WAT     H126942   9.301   7.106   3.579
 8900WAT     H226943   9.183   7.210   3.533
 8901WAT      O26944   5.273   4.521   0.588
 8901WAT     H126945   5.333   4.499   0.665
 8901WAT     H226946   5.184   4.552   0.623
 8902WAT      O26947   1.119   8.634   9.873
 8902WAT     H126948   1.169   8.677   9.798
 8902WAT     H226949   1.151   8.672   9.960
 8903WAT      O26950   5.251   7.558   6.458
 8903WAT     H126951   5.170   7.502   6.440
 8903WAT     H226952   5.244   7.598   6.549
 8904WAT      O26953   1.047   5.169   9.545
 8904WAT     H126954   1.067   5.082   9.591
 8904WAT     H226955   1.036   5.153   9.447
 8905WAT      O26956   9.296   3.885   6.668
 8905WAT     H126957   9.259   3.878   6.575
 8905WAT     H226958   9.290   3.980   6.699
 8906WAT      O26959   9.709   5.023   4.354
 8906WAT     H126960   9.798   5.032   4.398
 8906WAT     H226961   9.721   5.029   4.254
 8907WAT      O26962   0.339   0.970   7.084
 8907WAT     H126963   0.279   1.038   7.126
 8907WAT     H226964   0.372   1.004   6.996
 8908WAT      O26965   6.246   1.089   7.508
 8908WAT     H126966   6.176   1.025   7.538
 8908WAT     H226967   6.226   1.120   7.415
 8909WAT      O26968   5.540   1.675   3.078
 8909WAT     H126969   5.632   1.706   3.054
 8909WAT     H226970   5.476   1.751   3.072
 8910WAT      O26971   5.742   3.977   9.158
 8910WAT     H126972   5.707   4.025   9.239
 8910WAT     H226973   5.733   3.878   9.172
 8911WAT      O26974   8.480   5.407   7.799
 8911WAT     H126975   8.475   5.307   7.807
 8911WAT     H226976   8.401   5.448   7.844
 8912WAT      O26977   7.296   2.193   8.328
 8912WAT     H126978   7.337   2.136   8.399
 8912WAT     H226979   7.320   2.157   8.238
 8913WAT      O26980   8.318   3.521   1.248
 8913WAT     H126981   8.405   3.533   1.296
 8913WAT     H226982   8.252   3.588   1.282
 8914WAT      O26983   1.765   6.193   5.189
 8914WAT     H126984   1.671   6.177   5.216
 8914WAT     H226985   1.768   6.216   5.091
 8915WAT      O26986   1.883   2.788   4.441
 8915WAT     H126987   1.979   2.761   4.444
 8915WAT     H226988   1.877   2.887   4.426
 8916WAT      O26989   8.621   9.004   3.921
 8916WAT     H126990   8.536   9.053   3.944
 8916WAT     H226991   8.697   9.069   3.917
 8917WAT      O26992   6.461   2.150   5.351
 8917WAT     H126993   6.398   2.185   5.282
 8917WAT     H226994   6.413   2.086   5.411
 8918WAT      O26995   6.553   7.408   8.631
 8918WAT     H126996   6.479   7.454   8.680
 8918WAT     H226997   6.515   7.343   8.566
 8919WAT      O26998   9.758   7.350   0.241
 8919WAT     H126999   9.850   7.343   0.277
 8919WAT     H227000   9.745   7.440   0.198
 8920WAT      O27001   2.717   4.477   2.463
 8920WAT     H127002   2.746   4.400   2.519
 8920WAT     H227003   2.795   4.537   2.445
 8921WAT      O27004   1.953   6.167   2.485
 8921WAT     H127005   1.972   6.225   2.564
 8921WAT     H227006   2.039   6.130   2.450
 8922WAT      O27007   7.591   9.376   5.553
 8922WAT     H127008   7.580   9.454   5.492
 8922WAT     H227009   7.502   9.345   5.584
 8923WAT      O27010   3.860   8.420   9.311
 8923WAT     H127011   3.924   8.346   9.288
 8923WAT     H227012   3.850   8.481   9.232
 8924WAT      O27013   3.457   6.364   3.027
 8924WAT     H127014   3.377   6.315   2.994
 8924WAT     H227015   3.539   6.311   3.005
 8925WAT      O27016   8.305   7.591   3.632
 8925WAT     H127017   8.249   7.620   3.710
 8925WAT     H227018   8.366   7.517   3.661
 8926WAT      O27019   8.193   6.903   6.731
 8926WAT     H127020   8.161   6.851   6.810
 8926WAT     H227021   8.177   7.000   6.746
 8927WAT      O27022   4.465   8.125   4.423
 8927WAT     H127023   4.455   8.087   4.515
 8927WAT     H227024   4.555   8.167   4.415
 8928WAT      O27025   0.333   8.744   2.098
 8928WAT     H127026   0.238   8.763   2.124
 8928WAT     H227027   0.382   8.706   2.177
 8929WAT      O27028   4.186   4.478   1.151
 8929WAT     H127029   4.142   4.507   1.066
 8929WAT     H227030   4.142   4.523   1.229
 8930WAT      O27031   0.720   2.847   4.304
 8930WAT     H127032   0.698   2.865   4.208
 8930WAT     H227033   0.794   2.908   4.332
 8931WAT      O27034   8.719   9.259   1.953
 8931WAT     H127035   8.748   9.224   2.042
 8931WAT     H227036   8.688   9.183   1.896
 8932WAT      O27037   9.878   1.929   0.719
 8932WAT     H127038   9.908   2.007   0.774
 8932WAT     H227039   9.830   1.863   0.779
 8933WAT      O27040   5.997   2.694   8.214
 8933WAT     H127041   5.932   2.753   8.167
 8933WAT     H227042   6.049   2.641   8.147
 8934WAT      O27043   0.602   5.713   0.909
 8934WAT     H127044   0.628   5.757   0.995
 8934WAT     H227045   0.504   5.690   0.912
 8935WAT      O27046   6.252   8.194   0.940
 8935WAT     H127047   6.244   8.279   0.888
 8935WAT     H227048   6.176   8.133   0.916
 8936WAT      O27049   5.371   2.403   7.417
 8936WAT     H127050   5.281   2.373   7.387
 8936WAT     H227051   5.410   2.465   7.348
 8937WAT      O27052   6.045   0.349   2.278
 8937WAT     H127053   5.987   0.282   2.323
 8937WAT     H227054   6.029   0.347   2.179
 8938WAT      O27055   4.042   0.479   9.206
 8938WAT     H127056   4.038   0.380   9.198
 8938WAT     H227057   4.036   0.505   9.302
 8939WAT      O27058   5.378   4.842   2.215
 8939WAT     H127059   5.431   4.769   2.172
 8939WAT     H227060   5.295   4.858   2.162
 8940WAT      O27061   0.095   5.742   6.614
 8940WAT     H127062   0.190   5.756   6.645
 8940WAT     H227063   0.039   5.818   6.648
 8941WAT      O27064   2.054   5.817   6.541
 8941WAT     H127065   2.113   5.815   6.622
 8941WAT     H227066   2.109   5.801   6.459
 8942WAT      O27067   5.095   7.061   2.933
 8942WAT     H127068   5.102   6.962   2.948
 8942WAT     H227069   4.999   7.084   2.916
 8943WAT      O27070   5.337   0.696   5.676
 8943WAT     H127071   5.402   0.620   5.672
 8943WAT     H227072   5.281   0.687   5.759
 8944WAT      O27073   1.134   7.785   8.263
 8944WAT     H127074   1.156   7.688   8.267
 8944WAT     H227075   1.214   7.838   8.292
 8945WAT      O27076   6.772   7.662   9.236
 8945WAT     H127077   6.773   7.683   9.138
 8945WAT     H227078   6.690   7.610   9.258
 8946WAT      O27079   2.439   5.414   8.373
 8946WAT     H127080   2.353   5.445   8.412
 8946WAT     H227081   2.514   5.436   8.435
 8947WAT      O27082   4.779   9.589   1.608
 8947WAT     H127083   4.796   9.682   1.641
 8947WAT     H227084   4.786   9.587   1.509
 8948WAT      O27085   1.552   6.888   6.694
 8948WAT     H127086   1.454   6.898   6.708
 8948WAT     H227087   1.582   6.951   6.622
 8949WAT      O27088   0.902   0.533   3.333
 8949WAT     H127089   0.874   0.502   3.424
 8949WAT     H227090   0.953   0.618   3.342
 8950WAT      O27091   6.611   1.704   4.957
 8950WAT     H127092   6.702   1.717   4.917
 8950WAT     H227093   6.610   1.739   5.050
 8951WAT      O27094   3.842   7.920   6.201
 8951WAT     H127095   3.899   7.976   6.261
 8951WAT     H227096   3.895   7.842   6.169
 8952WAT      O27097   1.074   6.406   9.823
 8952WAT     H127098   0.986   6.411   9.775
 8952WAT     H227099   1.135   6.343   9.775
 8953WAT      O27100   1.259   1.961   4.527
 8953WAT     H127101   1.309   2.042   4.556
 8953WAT     H227102   1.161   1.983   4.520
 8954WAT      O27103   1.255   1.491   6.114
 8954WAT     H127104   1.340   1.447   6.145
 8954WAT     H227105   1.265   1.518   6.019
 8955WAT      O27106   9.624   7.312   3.713
 8955WAT     H127107   9.537   7.314   3.763
 8955WAT     H227108   9.677   7.233   3.743
 8956WAT      O27109   6.111   3.964   2.615
 8956WAT     H127110   6.097   3.971   2.713
 8956WAT     H227111   6.105   4.055   2.573
 8957WAT      O27112   7.017   8.328   0.211
 8957WAT     H127113   7.088   8.306   0.144
 8957WAT     H227114   7.038   8.284   0.298
 8958WAT      O27115   6.022   2.785   2.149
 8958WAT     H127116   6.118   2.774   2.124
 8958WAT     H227117   6.012   2.774   2.247
 8959WAT      O27118   2.602   7.780   2.939
 8959WAT     H127119   2.511   7.791   2.978
 8959WAT     H227120   2.666   7.751   3.010
 8960WAT      O27121   3.644   2.837   1.070
 8960WAT     H127122   3.588   2.860   1.149
 8960WAT     H227123   3.707   2.763   1.094
 8961WAT      O27124   2.585   0.693   8.540
 8961WAT     H127125   2.524   0.753   8.488
 8961WAT     H227126   2.636   0.746   8.607
 8962WAT      O27127   8.185   2.250   7.656
 8962WAT     H127128   8.212   2.156   7.635
 8962WAT     H227129   8.141   2.291   7.576
 8963WAT      O27130   7.775   7.209   0.369
 8963WAT     H127131   7.809   7.116   0.389
 8963WAT     H227132   7.846   7.259   0.319
 8964WAT      O27133   1.749   3.282   3.535
 8964WAT     H127134   1.714   3.215   3.601
 8964WAT     H227135   1.673   3.337   3.500
 8965WAT      O27136   4.418   0.326   8.777
 8965WAT     H127137   4.364   0.255   8.731
 8965WAT     H227138   4.399   0.323   8.875
 8966WAT      O27139   8.688   4.935   3.074
 8966WAT     H127140   8.730   4.952   2.985
 8966WAT     H227141   8.669   5.022   3.120
 8967WAT      O27142   0.644   3.119   7.626
 8967WAT     H127143   0.603   3.143   7.537
 8967WAT     H227144   0.576   3.076   7.684
 8968WAT      O27145   2.895   7.142   5.964
 8968WAT     H127146   2.960   7.077   5.923
 8968WAT     H227147   2.832   7.092   6.023
 8969WAT      O27148   5.463   4.224   6.536
 8969WAT     H127149   5.412   4.298   6.493
 8969WAT     H227150   5.546   4.206   6.483
 8970WAT      O27151   8.415   3.256   2.669
 8970WAT     H127152   8.447   3.348   2.690
 8970WAT     H227153   8.334   3.235   2.724
 8971WAT      O27154   4.051   3.438   5.493
 8971WAT     H127155   4.062   3.535   5.517
 8971WAT     H227156   3.986   3.396   5.557
 8972WAT      O27157   6.073   4.389   9.647
 8972WAT     H127158   6.157   4.412   9.598
 8972WAT     H227159   5.995   4.400   9.587
 8973WAT      O27160   7.341   7.584   5.603
 8973WAT     H127161   7.331   7.683   5.616
 8973WAT     H227162   7.434   7.557   5.624
 8974WAT      O27163   5.240   1.233   0.514
 8974WAT     H127164   5.332   1.216   0.478
 8974WAT     H227165   5.202   1.315   0.471
 8975WAT      O27166   2.446   0.877   8.412
 8975WAT     H127167   2.453   0.959   8.469
 8975WAT     H227168   2.418   0.903   8.320
 8976WAT      O27169   0.561   4.603   8.820
 8976WAT     H127170   0.465   4.590   8.798
 8976WAT     H227171   0.617   4.549   8.757
 8977WAT      O27172   3.789   8.824   7.932
 8977WAT     H127173   3.806   8.735   7.974
 8977WAT     H227174   3.807   8.896   8.000
 8978WAT      O27175   2.178   7.884   2.608
 8978WAT     H127176   2.216   7.943   2.679
 8978WAT     H227177   2.084   7.859   2.632
 8979WAT      O27178   6.992   1.888   9.068
 8979WAT     H127179   6.922   1.957   9.052
 8979WAT     H227180   6.952   1.797   9.059
 8980WAT      O27181   0.430   5.107   3.153
 8980WAT     H127182   0.483   5.077   3.073
 8980WAT     H227183   0.411   5.205   3.145
 8981WAT      O27184   4.324   4.031   2.125
 8981WAT     H127185   4.239   4.079   2.144
 8981WAT     H227186   4.364   3.999   2.211
 8982WAT      O27187   0.835   0.967   1.929
 8982WAT     H127188   0.933   0.980   1.948
 8982WAT     H227189   0.823   0.949   1.831
 8983WAT      O27190   0.047   3.144   5.712
 8983WAT     H127191   0.052   3.070   5.645
 8983WAT     H227192  -0.049   3.159   5.737
 8984WAT      O27193   8.933   7.080   6.910
 8984WAT     H127194   8.972   7.068   6.818
 8984WAT     H227195   8.993   7.037   6.977
 8985WAT      O27196   6.539   6.214   8.197
 8985WAT     H127197   6.454   6.201   8.147
 8985WAT     H227198   6.603   6.141   8.174
 8986WAT      O27199   9.247   7.495   4.630
 8986WAT     H127200   9.345   7.490   4.616
 8986WAT     H227201   9.228   7.500   4.728
 8987WAT      O27202   9.672   5.113   1.574
 8987WAT     H127203   9.721   5.180   1.630
 8987WAT     H227204   9.574   5.131   1.578
 8988WAT      O27205   1.515   0.470   4.028
 8988WAT     H127206   1.598   0.512   4.066
 8988WAT     H227207   1.539   0.418   3.946
 8989WAT      O27208   9.848   5.889   3.512
 8989WAT     H127209   9.872   5.892   3.609
 8989WAT     H227210   9.838   5.982   3.477
 8990WAT      O27211   1.456   2.007   6.913
 8990WAT     H127212   1.442   1.992   6.815
 8990WAT     H227213   1.498   2.096   6.928
 8991WAT      O27214   0.198   1.127   3.949
 8991WAT     H127215   0.144   1.141   4.032
 8991WAT     H227216   0.231   1.216   3.916
 8992WAT      O27217   2.681   9.008   7.875
 8992WAT     H127218   2.703   8.968   7.964
 8992WAT     H227219   2.734   8.962   7.803
 8993WAT      O27220   0.386   9.020   4.152
 8993WAT     H127221   0.485   9.036   4.144
 8993WAT     H227222   0.357   8.956   4.081
 8994WAT      O27223   5.785   8.148   1.049
 8994WAT     H127224   5.803   8.070   0.989
 8994WAT     H227225   5.855   8.152   1.120
 8995WAT      O27226   6.419   6.652   7.770
 8995WAT     H127227   6.459   6.583   7.709
 8995WAT     H227228   6.474   6.660   7.853
 8996WAT      O27229   1.412   1.181   5.401
 8996WAT     H127230   1.359   1.221   5.475
 8996WAT     H227231   1.359   1.109   5.356
 8997WAT      O27232   6.251   6.884   8.303
 8997WAT     H127233   6.320   6.878   8.231
 8997WAT     H227234   6.253   6.801   8.358
 8998WAT      O27235   9.565   1.655   1.385
 8998WAT     H127236   9.613   1.684   1.468
 8998WAT     H227237   9.506   1.578   1.405
 8999WAT      O27238   4.993   4.465   9.594
 8999WAT     H127239   4.942   4.544   9.559
 8999WAT     H227240   4.968   4.449   9.690
 9000WAT      O27241   9.827   6.680   8.250
 9000WAT     H127242   9.865   6.725   8.331
 9000WAT     H227243   9.730   6.702   8.243
 9001WAT      O27244   0.829   7.230   3.030
 9001WAT     H127245   0.735   7.217   3.059
 9001WAT     H227246   0.888   7.237   3.111
 9002WAT      O27247   9.511   7.729   4.710
 9002WAT     H127248   9.434   7.719   4.773
 9002WAT     H227249   9.477   7.727   4.616
 9003WAT      O27250   4.535   5.217   0.701
 9003WAT     H127251   4.522   5.256   0.610
 9003WAT     H227252   4.568   5.123   0.693
 9004WAT      O27253   1.337   8.086   5.672
 9004WAT     H127254   1.432   8.097   5.643
 9004WAT     H227255   1.281   8.061   5.593
 9005WAT      O27256   8.074   5.299   0.621
 9005WAT     H127257   7.985   5.292   0.576
 9005WAT     H227258   8.099   5.212   0.661
 9006WAT      O27259   8.529   8.284   8.088
 9006WAT     H127260   8.438   8.243   8.092
 9006WAT     H227261   8.583   8.239   8.018
 9007WAT      O27262   2.343   2.819   6.353
 9007WAT     H127263   2.336   2.790   6.258
 9007WAT     H227264   2.256   2.856   6.384
 9008WAT      O27265   0.394   5.319   4.723
 9008WAT     H127266   0.391   5.252   4.649
 9008WAT     H227267   0.327   5.391   4.706
 9009WAT      O27268   6.375   1.474   2.395
 9009WAT     H127269   6.472   1.472   2.372
 9009WAT     H227270   6.356   1.554   2.452
 9010WAT      O27271   7.741   3.680   9.809
 9010WAT     H127272   7.780   3.625   9.735
 9010WAT     H227273   7.755   3.777   9.789
 9011WAT      O27274   6.324   7.115   5.410
 9011WAT     H127275   6.382   7.104   5.329
 9011WAT     H227276   6.237   7.068   5.395
 9012WAT      O27277   9.260   7.828   3.668
 9012WAT     H127278   9.267   7.750   3.729
 9012WAT     H227279   9.323   7.816   3.591
 9013WAT      O27280   4.885   1.652   4.436
 9013WAT     H127281   4.957   1.620   4.498
 9013WAT     H227282   4.846   1.574   4.388
 9014WAT      O27283   3.523   4.976   3.159
 9014WAT     H127284   3.442   5.025   3.193
 9014WAT     H227285   3.527   4.984   3.059
 9015WAT      O27286   6.951   7.670   1.986
 9015WAT     H127287   6.961   7.598   1.917
 9015WAT     H227288   6.879   7.644   2.050
 9016WAT      O27289   7.476   6.128   1.163
 9016WAT     H127290   7.528   6.177   1.232
 9016WAT     H227291   7.494   6.030   1.169
 9017WAT      O27292   5.403   9.300   8.460
 9017WAT     H127293   5.497   9.270   8.476
 9017WAT     H227294   5.400   9.400   8.457
 9018WAT      O27295   2.508   2.974   0.005
 9018WAT     H127296   2.428   2.922   0.035
 9018WAT     H227297   2.559   3.006   0.085
 9019WAT      O27298   4.863   0.859   2.978
 9019WAT     H127299   4.818   0.813   2.901
 9019WAT     H227300   4.862   0.958   2.962
 9020WAT      O27301   2.332   7.621   3.388
 9020WAT     H127302   2.279   7.536   3.392
 9020WAT     H227303   2.311   7.677   3.468
 9021WAT      O27304   9.358   9.355   6.363
 9021WAT     H127305   9.271   9.327   6.321
 9021WAT     H227306   9.367   9.454   6.357
 9022WAT      O27307   4.597   1.688   4.657
 9022WAT     H127308   4.652   1.604   4.653
 9022WAT     H227309   4.592   1.730   4.567
 9023WAT      O27310   0.925   3.915   3.904
 9023WAT     H127311   0.916   3.989   3.972
 9023WAT     H227312   0.843   3.913   3.847
 9024WAT      O27313   9.675   4.696   9.616
 9024WAT     H127314   9.576   4.691   9.624
 9024WAT     H227315   9.717   4.614   9.654
 9025WAT      O27316   1.534   0.647   3.223
 9025WAT     H127317   1.630   0.620   3.211
 9025WAT     H227318   1.528   0.746   3.232
 9026WAT      O27319   5.060   8.711   3.905
 9026WAT     H127320   5.126   8.775   3.865
 9026WAT     H227321   4.975   8.715   3.852
 9027WAT      O27322   0.318   8.889   4.505
 9027WAT     H127323   0.267   8.838   4.574
 9027WAT     H227324   0.282   8.982   4.499
 9028WAT      O27325   7.735   6.944   8.362
 9028WAT     H127326   7.783   6.870   8.315
 9028WAT     H227327   7.643   6.915   8.387
 9029WAT      O27328   7.054   3.599   8.259
 9029WAT     H127329   7.009   3.621   8.173
 9029WAT     H227330   6.995   3.625   8.335
 9030WAT      O27331   4.777   0.157   8.800
 9030WAT     H127332   4.680   0.133   8.789
 9030WAT     H227333   4.829   0.075   8.823
 9031WAT      O27334   8.747   8.304   9.560
 9031WAT     H127335   8.751   8.321   9.462
 9031WAT     H227336   8.816   8.236   9.585
 9032WAT      O27337   2.359   9.427   4.512
 9032WAT     H127338   2.278   9.398   4.462
 9032WAT     H227339   2.351   9.400   4.608
 9033WAT      O27340   2.251   4.357   3.731
 9033WAT     H127341   2.195   4.275   3.714
 9033WAT     H227342   2.347   4.331   3.737
 9034WAT      O27343   7.365   7.128   8.353
 9034WAT     H127344   7.444   7.183   8.380
 9034WAT     H227345   7.322   7.089   8.434
 9035WAT      O27346   0.308   1.616   9.393
 9035WAT     H127347   0.255   1.674   9.331
 9035WAT     H227348   0.402   1.609   9.361
 9036WAT      O27349   4.249   9.259   7.218
 9036WAT     H127350   4.228   9.324   7.145
 9036WAT     H227351   4.179   9.264   7.289
 9037WAT      O27352   8.708   6.662   1.605
 9037WAT     H127353   8.779   6.592   1.603
 9037WAT     H227354   8.750   6.752   1.619
 9038WAT      O27355   7.102   6.958   9.304
 9038WAT     H127356   7.191   6.931   9.342
 9038WAT     H227357   7.052   6.876   9.276
 9039WAT      O27358   7.661   2.497   6.203
 9039WAT     H127359   7.756   2.522   6.184
 9039WAT     H227360   7.650   2.398   6.192
 9040WAT      O27361   1.142   0.012   4.856
 9040WAT     H127362   1.201  -0.014   4.931
 9040WAT     H227363   1.193   0.068   4.790
 9041WAT      O27364   6.457   6.259   4.091
 9041WAT     H127365   6.408   6.214   4.166
 9041WAT     H227366   6.398   6.262   4.010
 9042WAT      O27367   5.734   2.323   4.312
 9042WAT     H127368   5.752   2.298   4.407
 9042WAT     H227369   5.666   2.261   4.274
 9043WAT      O27370   4.718   6.980   7.183
 9043WAT     H127371   4.635   6.957   7.133
 9043WAT     H227372   4.786   7.016   7.119
 9044WAT      O27373   1.179   0.931   4.285
 9044WAT     H127374   1.188   0.914   4.383
 9044WAT     H227375   1.098   0.883   4.250
 9045WAT      O27376   0.491   0.546   7.055
 9045WAT     H127377   0.474   0.454   7.091
 9045WAT     H227378   0.536   0.539   6.966
 9046WAT      O27379   0.309   8.955   7.260
 9046WAT     H127380   0.309   8.925   7.355
 9046WAT     H227381   0.402   8.959   7.225
 9047WAT      O27382   9.394   3.646   7.204
 9047WAT     H127383   9.442   3.569   7.161
 9047WAT     H227384   9.300   3.649   7.171
 9048WAT      O27385   7.375   5.443   4.169
 9048WAT     H127386   7.380   5.543   4.159
 9048WAT     H227387   7.467   5.407   4.187
 9049WAT      O27388   0.356   1.805   0.975
 9049WAT     H127389   0.340   1.745   0.896
 9049WAT     H227390   0.354   1.900   0.946
 9050WAT      O27391   2.838   1.459   6.986
 9050WAT     H127392   2.887   1.519   6.922
 9050WAT     H227393   2.856   1.489   7.080
 9051WAT      O27394   3.887   9.241   1.099
 9051WAT     H127395   3.870   9.285   1.011
 9051WAT     H227396   3.802   9.234   1.150
 9052WAT      O27397   8.320   2.014   0.476
 9052WAT     H127398   8.361   1.935   0.520
 9052WAT     H227399   8.225   2.024   0.506
 9053WAT      O27400   6.142   5.489   0.381
 9053WAT     H127401   6.126   5.551   0.303
 9053WAT     H227402   6.237   5.459   0.380
 9054WAT      O27403   9.276   7.660   3.872
 9054WAT     H127404   9.220   7.704   3.942
 9054WAT     H227405   9.238   7.569   3.853
 9055WAT      O27406   4.619   2.680   2.062
 9055WAT     H127407   4.670   2.715   2.140
 9055WAT     H227408   4.684   2.640   1.996
 9056WAT      O27409   1.330   9.173   1.097
 9056WAT     H127410   1.377   9.087   1.078
 9056WAT     H227411   1.297   9.174   1.191
 9057WAT      O27412   4.663   3.368   7.658
 9057WAT     H127413   4.675   3.462   7.689
 9057WAT     H227414   4.677   3.364   7.559
 9058WAT      O27415   6.830   2.655   8.323
 9058WAT     H127416   6.751   2.654   8.385
 9058WAT     H227417   6.840   2.746   8.283
 9059WAT      O27418   4.033   8.138   3.716
 9059WAT     H127419   4.035   8.060   3.655
 9059WAT     H227420   4.007   8.108   3.808
 9060WAT      O27421   9.162   6.248   5.588
 9060WAT     H127422   9.165   6.332   5.642
 9060WAT     H227423   9.232   6.252   5.517
 9061WAT      O27424   9.014   2.062   4.860
 9061WAT     H127425   8.957   2.121   4.803
 9061WAT     H227426   9.081   2.014   4.803
 9062WAT      O27427   0.203   5.526   4.707
 9062WAT     H127428   0.135   5.557   4.641
 9062WAT     H227429   0.183   5.564   4.797
 9063WAT      O27430   2.155   3.795   3.283
 9063WAT     H127431   2.195   3.721   3.337
 9063WAT     H227432   2.059   3.807   3.308
 9064WAT      O27433   0.114   0.713   3.441
 9064WAT     H127434   0.055   0.637   3.470
 9064WAT     H227435   0.060   0.797   3.437
 9065WAT      O27436   5.846   4.996   0.493
 9065WAT     H127437   5.864   5.018   0.397
 9065WAT     H227438   5.765   5.048   0.523
 9066WAT      O27439   6.916   8.430   6.331
 9066WAT     H127440   6.865   8.419   6.416
 9066WAT     H227441   6.898   8.520   6.292
 9067WAT      O27442   3.009   1.334   9.541
 9067WAT     H127443   3.077   1.300   9.476
 9067WAT     H227444   3.002   1.270   9.618
 9068WAT      O27445   1.658   4.920   2.423
 9068WAT     H127446   1.725   4.947   2.354
 9068WAT     H227447   1.612   4.836   2.394
 9069WAT      O27448   9.593   9.751   8.573
 9069WAT     H127449   9.646   9.768   8.490
 9069WAT     H227450   9.519   9.818   8.579
 9070WAT      O27451   0.005   9.297   7.580
 9070WAT     H127452   0.004   9.265   7.485
 9070WAT     H227453  -0.052   9.379   7.588
 9071WAT      O27454   8.004   6.140   1.451
 9071WAT     H127455   7.991   6.183   1.540
 9071WAT     H227456   8.100   6.115   1.439
 9072WAT      O27457   4.409   3.455   9.774
 9072WAT     H127458   4.490   3.488   9.726
 9072WAT     H227459   4.433   3.428   9.867
 9073WAT      O27460   4.956   9.288   0.558
 9073WAT     H127461   4.961   9.341   0.474
 9073WAT     H227462   5.023   9.214   0.555
 9074WAT      O27463   1.031   8.096   8.027
 9074WAT     H127464   1.114   8.098   8.083
 9074WAT     H227465   0.959   8.047   8.076
 9075WAT      O27466   9.510   2.244   6.003
 9075WAT     H127467   9.445   2.307   5.960
 9075WAT     H227468   9.496   2.245   6.102
 9076WAT      O27469   7.915   2.247   7.987
 9076WAT     H127470   7.987   2.190   7.949
 9076WAT     H227471   7.839   2.254   7.922
 9077WAT      O27472   6.353   1.183   5.326
 9077WAT     H127473   6.294   1.168   5.405
 9077WAT     H227474   6.377   1.094   5.285
 9078WAT      O27475   0.995   3.991   8.935
 9078WAT     H127476   1.042   4.073   8.968
 9078WAT     H227477   0.961   4.008   8.842
 9079WAT      O27478   5.639   6.248   3.861
 9079WAT     H127479   5.675   6.155   3.869
 9079WAT     H227480   5.595   6.274   3.947
 9080WAT      O27481   7.742   0.114   4.339
 9080WAT     H127482   7.816   0.167   4.298
 9080WAT     H227483   7.714   0.041   4.276
 9081WAT      O27484   8.996   9.225   6.803
 9081WAT     H127485   9.038   9.195   6.718
 9081WAT     H227486   8.947   9.149   6.846
 9082WAT      O27487   2.356   2.040   5.468
 9082WAT     H127488   2.417   2.034   5.390
 9082WAT     H227489   2.326   1.948   5.495
 9083WAT      O27490   3.328   1.723   9.166
 9083WAT     H127491   3.316   1.675   9.079
 9083WAT     H227492   3.252   1.701   9.227
 9084WAT      O27493   2.823   3.825   4.083
 9084WAT     H127494   2.920   3.819   4.062
 9084WAT     H227495   2.777   3.742   4.051
 9085WAT      O27496   1.489   0.486   3.025
 9085WAT     H127497   1.523   0.405   3.073
 9085WAT     H227498   1.465   0.557   3.091
 9086WAT      O27499   3.031   9.606   1.577
 9086WAT     H127500   2.975   9.624   1.657
 9086WAT     H227501   3.107   9.671   1.574
 9087WAT      O27502   5.862   9.738   6.902
 9087WAT     H127503   5.783   9.781   6.946
 9087WAT     H227504   5.906   9.804   6.840
 9088WAT      O27505   9.274   8.402   0.039
 9088WAT     H127506   9.347   8.468   0.056
 9088WAT     H227507   9.240   8.366   0.126
 9089WAT      O27508   6.637   8.086   5.352
 9089WAT     H127509   6.656   8.120   5.260
 9089WAT     H227510   6.580   8.004   5.347
 9090WAT      O27511   2.063   6.612   2.679
 9090WAT     H127512   2.141   6.583   2.734
 9090WAT     H227513   1.988   6.640   2.739
 9091WAT      O27514   7.102   8.215   1.241
 9091WAT     H127515   7.054   8.223   1.329
 9091WAT     H227516   7.196   8.187   1.258
 9092WAT      O27517   8.979   0.137   2.815
 9092WAT     H127518   8.962   0.075   2.891
 9092WAT     H227519   9.078   0.143   2.799
 9093WAT      O27520   3.389   1.952   0.951
 9093WAT     H127521   3.291   1.969   0.963
 9093WAT     H227522   3.440   2.000   1.023
 9094WAT      O27523   1.768   6.710   9.621
 9094WAT     H127524   1.866   6.693   9.617
 9094WAT     H227525   1.731   6.673   9.706
 9095WAT      O27526   3.067   8.906   2.689
 9095WAT     H127527   3.121   8.835   2.734
 9095WAT     H227528   3.031   8.969   2.758
 9096WAT      O27529   8.273   8.830   7.963
 9096WAT     H127530   8.303   8.735   7.951
 9096WAT     H227531   8.347   8.892   7.936
 9097WAT      O27532   7.969   7.594   2.064
 9097WAT     H127533   7.914   7.522   2.109
 9097WAT     H227534   7.927   7.683   2.082
 9098WAT      O27535   8.694   0.425   4.704
 9098WAT     H127536   8.764   0.445   4.773
 9098WAT     H227537   8.728   0.453   4.614
 9099WAT      O27538   9.000   4.679   1.685
 9099WAT     H127539   8.929   4.746   1.662
 9099WAT     H227540   8.962   4.587   1.681
 9100WAT      O27541   3.029   1.429   5.182
 9100WAT     H127542   3.033   1.399   5.277
 9100WAT     H227543   2.972   1.367   5.129
 9101WAT      O27544   7.818   2.434   0.150
 9101WAT     H127545   7.839   2.511   0.210
 9101WAT     H227546   7.761   2.466   0.074
 9102WAT      O27547   1.870   5.701   3.890
 9102WAT     H127548   1.968   5.683   3.899
 9102WAT     H227549   1.840   5.680   3.797
 9103WAT      O27550   0.290   6.268   0.775
 9103WAT     H127551   0.207   6.215   0.755
 9103WAT     H227552   0.334   6.232   0.857
 9104WAT      O27553   6.775   4.632   0.354
 9104WAT     H127554   6.693   4.658   0.304
 9104WAT     H227555   6.806   4.542   0.323
 9105WAT      O27556   3.064   7.504   4.049
 9105WAT     H127557   2.974   7.466   4.071
 9105WAT     H227558   3.109   7.535   4.133
 9106WAT      O27559   6.385   2.736   9.192
 9106WAT     H127560   6.312   2.714   9.127
 9106WAT     H227561   6.401   2.658   9.252
 9107WAT      O27562   0.280   3.104   8.566
 9107WAT     H127563   0.184   3.115   8.540
 9107WAT     H227564   0.338   3.149   8.497
 9108WAT      O27565   0.138   9.480   1.382
 9108WAT     H127566   0.213   9.418   1.405
 9108WAT     H227567   0.174   9.571   1.364
 9109WAT      O27568   1.305   8.362   8.329
 9109WAT     H127569   1.334   8.340   8.422
 9109WAT     H227570   1.206   8.378   8.328
 9110WAT      O27571   1.452   1.039   3.772
 9110WAT     H127572   1.397   1.006   3.848
 9110WAT     H227573   1.531   1.089   3.807
 9111WAT      O27574   2.505   0.778   8.841
 9111WAT     H127575   2.526   0.772   8.939
 9111WAT     H227576   2.590   0.788   8.789
 9112WAT      O27577   7.775   8.856   7.154
 9112WAT     H127578   7.749   8.820   7.244
 9112WAT     H227579   7.752   8.790   7.083
 9113WAT      O27580   4.115   9.260   9.622
 9113WAT     H127581   4.080   9.195   9.690
 9113WAT     H227582   4.064   9.250   9.537
 9114WAT      O27583   8.520   4.499   5.401
 9114WAT     H127584   8.489   4.506   5.496
 9114WAT     H227585   8.441   4.505   5.340
 9115WAT      O27586   7.958   9.101   5.279
 9115WAT     H127587   7.970   9.006   5.248
 9115WAT     H227588   7.896   9.102   5.357
 9116WAT      O27589   5.483   7.605   7.571
 9116WAT     H127590   5.555   7.674   7.581
 9116WAT     H227591   5.412   7.619   7.640
 9117WAT      O27592   0.573   0.593   9.785
 9117WAT     H127593   0.595   0.499   9.758
 9117WAT     H227594   0.657   0.640   9.813
 9118WAT      O27595   5.946   1.246   3.554
 9118WAT     H127596   5.939   1.212   3.648
 9118WAT     H227597   5.856   1.280   3.525
 9119WAT      O27598   2.189   1.513   3.611
 9119WAT     H127599   2.244   1.519   3.527
 9119WAT     H227600   2.112   1.576   3.605
 9120WAT      O27601   7.475   5.712   3.792
 9120WAT     H127602   7.541   5.703   3.866
 9120WAT     H227603   7.495   5.796   3.740
 9121WAT      O27604   9.269   1.908   1.655
 9121WAT     H127605   9.295   1.841   1.725
 9121WAT     H227606   9.322   1.992   1.669
 9122WAT      O27607   0.826   9.130   1.205
 9122WAT     H127608   0.913   9.117   1.158
 9122WAT     H227609   0.813   9.227   1.226
 9123WAT      O27610   5.378   7.656   7.058
 9123WAT     H127611   5.445   7.646   7.131
 9123WAT     H227612   5.286   7.636   7.094
 9124WAT      O27613   2.375   7.168   3.326
 9124WAT     H127614   2.431   7.202   3.250
 9124WAT     H227615   2.434   7.144   3.403
 9125WAT      O27616   8.683   4.468   4.111
 9125WAT     H127617   8.596   4.421   4.098
 9125WAT     H227618   8.683   4.514   4.199
 9126WAT      O27619   0.052   4.879   7.125
 9126WAT     H127620   0.109   4.960   7.118
 9126WAT     H227621  -0.039   4.904   7.157
 9127WAT      O27622   8.725   1.845   4.900
 9127WAT     H127623   8.634   1.873   4.930
 9127WAT     H227624   8.791   1.861   4.973
 9128WAT      O27625   7.080   8.867   6.431
 9128WAT     H127626   7.114   8.853   6.337
 9128WAT     H227627   7.149   8.915   6.484
 9129WAT      O27628   9.064   7.287   2.361
 9129WAT     H127629   9.002   7.280   2.282
 9129WAT     H227630   9.014   7.323   2.440
 9130WAT      O27631   8.985   0.944   5.173
 9130WAT     H127632   8.919   0.958   5.247
 9130WAT     H227633   8.986   1.024   5.114
 9131WAT      O27634   7.820   8.081   4.632
 9131WAT     H127635   7.831   8.175   4.664
 9131WAT     H227636   7.731   8.070   4.589
 9132WAT      O27637   0.786   1.060   8.088
 9132WAT     H127638   0.854   1.098   8.151
 9132WAT     H227639   0.830   1.034   8.002
 9133WAT      O27640   2.790   7.903   6.684
 9133WAT     H127641   2.705   7.903   6.736
 9133WAT     H227642   2.867   7.922   6.746
 9134WAT      O27643   7.713   2.104   9.072
 9134WAT     H127644   7.809   2.096   9.044
 9134WAT     H227645   7.654   2.094   8.991
 9135WAT      O27646   0.881   7.731   1.002
 9135WAT     H127647   0.873   7.649   1.057
 9135WAT     H227648   0.882   7.707   0.905
 9136WAT      O27649   3.212   5.392   3.976
 9136WAT     H127650   3.262   5.324   4.029
 9136WAT     H227651   3.184   5.352   3.889
 9137WAT      O27652   2.085   4.685   6.582
 9137WAT     H127653   2.132   4.654   6.665
 9137WAT     H227654   2.153   4.719   6.517
 9138WAT      O27655   4.307   9.151   4.593
 9138WAT     H127656   4.401   9.125   4.615
 9138WAT     H227657   4.244   9.106   4.657
 9139WAT      O27658   2.702   6.682   8.959
 9139WAT     H127659   2.702   6.780   8.979
 9139WAT     H227660   2.744   6.666   8.869
 9140WAT      O27661   9.076   6.828   3.669
 9140WAT     H127662   9.087   6.729   3.667
 9140WAT     H227663   9.163   6.871   3.693
 9141WAT      O27664   8.877   0.601   3.180
 9141WAT     H127665   8.874   0.631   3.276
 9141WAT     H227666   8.934   0.664   3.127
 9142WAT      O27667   4.220   9.227   1.077
 9142WAT     H127668   4.192   9.292   1.147
 9142WAT     H227669   4.166   9.143   1.085
 9143WAT      O27670   9.150   1.546   5.507
 9143WAT     H127671   9.128   1.449   5.521
 9143WAT     H227672   9.068   1.595   5.480
 9144WAT      O27673   7.229   0.868   8.804
 9144WAT     H127674   7.212   0.966   8.818
 9144WAT     H227675   7.327   0.850   8.812
 9145WAT      O27676   5.024   0.574   3.570
 9145WAT     H127677   5.001   0.537   3.480
 9145WAT     H227678   4.970   0.527   3.640
 9146WAT      O27679   2.504   8.396   9.709
 9146WAT     H127680   2.483   8.314   9.656
 9146WAT     H227681   2.425   8.421   9.765
 9147WAT      O27682   8.628   4.387   8.214
 9147WAT     H127683   8.711   4.334   8.229
 9147WAT     H227684   8.604   4.386   8.117
 9148WAT      O27685   0.685   6.146   7.184
 9148WAT     H127686   0.652   6.211   7.116
 9148WAT     H227687   0.641   6.166   7.272
 9149WAT      O27688   9.835   3.939   2.897
 9149WAT     H127689   9.874   3.906   2.811
 9149WAT     H227690   9.892   3.908   2.973
 9150WAT      O27691   1.841   2.890   2.371
 9150WAT     H127692   1.762   2.836   2.399
 9150WAT     H227693   1.840   2.978   2.419
 9151WAT      O27694   8.296   7.125   8.239
 9151WAT     H127695   8.329   7.161   8.326
 9151WAT     H227696   8.249   7.197   8.188
 9152WAT      O27697   0.509   1.541   4.151
 9152WAT     H127698   0.592   1.582   4.114
 9152WAT     H227699   0.531   1.489   4.234
 9153WAT      O27700   6.851   8.355   5.801
 9153WAT     H127701   6.791   8.417   5.752
 9153WAT     H227702   6.927   8.327   5.742
 9154WAT      O27703   4.913   6.211   8.743
 9154WAT     H127704   4.937   6.245   8.834
 9154WAT     H227705   4.877   6.286   8.687
 9155WAT      O27706   5.061   6.291   4.335
 9155WAT     H127707   5.046   6.287   4.434
 9155WAT     H227708   5.146   6.341   4.316
 9156WAT      O27709   7.826   2.767   9.644
 9156WAT     H127710   7.794   2.776   9.550
 9156WAT     H227711   7.837   2.670   9.666
 9157WAT      O27712   0.424   7.035   7.507
 9157WAT     H127713   0.515   6.993   7.511
 9157WAT     H227714   0.355   6.970   7.538
 9158WAT      O27715   1.652   1.997   8.925
 9158WAT     H127716   1.647   2.097   8.920
 9158WAT     H227717   1.722   1.970   8.990
 9159WAT      O27718   5.130   6.857   3.364
 9159WAT     H127719   5.089   6.861   3.273
 9159WAT     H227720   5.142   6.762   3.392
 9160WAT      O27721   2.766   4.288   4.717
 9160WAT     H127722   2.844   4.232   4.691
 9160WAT     H227723   2.681   4.246   4.685
 9161WAT      O27724   7.195   5.471   4.906
 9161WAT     H127725   7.267   5.406   4.878
 9161WAT     H227726   7.237   5.553   4.943
 9162WAT      O27727   6.373   8.012   0.559
 9162WAT     H127728   6.469   7.997   0.535
 9162WAT     H227729   6.360   8.108   0.585
 9163WAT      O27730   8.657   5.686   7.542
 9163WAT     H127731   8.684   5.596   7.576
 9163WAT     H227732   8.583   5.722   7.598
 9164WAT      O27733   0.109   1.070   6.073
 9164WAT     H127734   0.133   0.986   6.121
 9164WAT     H227735   0.191   1.113   6.038
 9165WAT      O27736   6.550   5.648   7.042
 9165WAT     H127737   6.569   5.680   7.134
 9165WAT     H227738   6.527   5.726   6.983
 9166WAT      O27739   1.797   1.182   8.438
 9166WAT     H127740   1.871   1.169   8.504
 9166WAT     H227741   1.745   1.097   8.430
 9167WAT      O27742   8.502   5.816   5.639
 9167WAT     H127743   8.478   5.865   5.723
 9167WAT     H227744   8.523   5.881   5.567
 9168WAT      O27745   2.327   5.511   5.326
 9168WAT     H127746   2.277   5.499   5.241
 9168WAT     H227747   2.420   5.544   5.306
 9169WAT      O27748   8.946   6.450   2.271
 9169WAT     H127749   8.998   6.535   2.283
 9169WAT     H227750   8.855   6.461   2.309
 9170WAT      O27751   5.030   7.961   1.094
 9170WAT     H127752   4.992   7.951   1.186
 9170WAT     H227753   5.125   7.929   1.093
 9171WAT      O27754   9.360   0.059   8.614
 9171WAT     H127755   9.377   0.035   8.709
 9171WAT     H227756   9.261   0.062   8.597
 9172WAT      O27757   9.024   8.356   2.877
 9172WAT     H127758   9.049   8.385   2.784
 9172WAT     H227759   9.064   8.267   2.897
 9173WAT      O27760   4.323   6.138   9.692
 9173WAT     H127761   4.376   6.055   9.679
 9173WAT     H227762   4.346   6.179   9.780
 9174WAT      O27763   8.821   1.307   5.876
 9174WAT     H127764   8.877   1.224   5.880
 9174WAT     H227765   8.774   1.320   5.964
 9175WAT      O27766   6.686   3.119   9.841
 9175WAT     H127767   6.734   3.194   9.795
 9175WAT     H227768   6.595   3.107   9.801
 9176WAT      O27769   3.237   9.751   1.628
 9176WAT     H127770   3.237   9.846   1.659
 9176WAT     H227771   3.330   9.716   1.627
 9177WAT      O27772   9.717   4.560   8.257
 9177WAT     H127773   9.751   4.507   8.335
 9177WAT     H227774   9.794   4.605   8.211
 9178WAT      O27775   5.182   8.136   4.991
 9178WAT     H127776   5.221   8.054   4.950
 9178WAT     H227777   5.131   8.111   5.074
 9179WAT      O27778   2.077   0.549   6.214
 9179WAT     H127779   2.134   0.631   6.221
 9179WAT     H227780   2.134   0.467   6.220
 9180WAT      O27781   3.628   0.691   7.603
 9180WAT     H127782   3.653   0.615   7.542
 9180WAT     H227783   3.619   0.775   7.550
 9181WAT      O27784   2.402   9.419   6.452
 9181WAT     H127785   2.423   9.321   6.459
 9181WAT     H227786   2.376   9.453   6.542
 9182WAT      O27787   4.947   8.004   6.074
 9182WAT     H127788   4.996   7.935   6.127
 9182WAT     H227789   4.964   8.095   6.113
 9183WAT      O27790   4.189   8.959   1.080
 9183WAT     H127791   4.207   8.917   1.169
 9183WAT     H227792   4.260   8.930   1.015
 9184WAT      O27793   2.772   6.568   6.247
 9184WAT     H127794   2.729   6.648   6.290
 9184WAT     H227795   2.861   6.595   6.209
 9185WAT      O27796   6.078   4.922   3.391
 9185WAT     H127797   6.040   4.977   3.465
 9185WAT     H227798   6.052   4.826   3.404
 9186WAT      O27799   6.303   0.350   6.432
 9186WAT     H127800   6.260   0.436   6.460
 9186WAT     H227801   6.271   0.276   6.492
 9187WAT      O27802   6.248   9.119   7.419
 9187WAT     H127803   6.312   9.187   7.455
 9187WAT     H227804   6.183   9.093   7.490
 9188WAT      O27805   0.357   1.915   5.896
 9188WAT     H127806   0.452   1.946   5.891
 9188WAT     H227807   0.344   1.839   5.832
 9189WAT      O27808   0.061   1.956   6.696
 9189WAT     H127809   0.152   1.979   6.730
 9189WAT     H227810  -0.004   1.951   6.772
 9190WAT      O27811   5.514   2.263   3.365
 9190WAT     H127812   5.532   2.359   3.340
 9190WAT     H227813   5.502   2.256   3.464
 9191WAT      O27814   2.732   5.297   3.575
 9191WAT     H127815   2.670   5.246   3.515
 9191WAT     H227816   2.682   5.371   3.620
 9192WAT      O27817   9.869   3.456   0.299
 9192WAT     H127818   9.881   3.373   0.353
 9192WAT     H227819   9.923   3.449   0.215
 9193WAT      O27820   3.022   1.597   8.174
 9193WAT     H127821   2.985   1.563   8.087
 9193WAT     H227822   3.119   1.574   8.180
 9194WAT      O27823   3.426   2.387   7.423
 9194WAT     H127824   3.361   2.335   7.368
 9194WAT     H227825   3.392   2.481   7.434
 9195WAT      O27826   7.295   3.162   9.040
 9195WAT     H127827   7.378   3.142   9.092
 9195WAT     H227828   7.293   3.260   9.017
 9196WAT      O27829   5.558   3.029   1.406
 9196WAT     H127830   5.471   3.014   1.359
 9196WAT     H227831   5.616   3.087   1.348
 9197WAT      O27832   1.692   2.842   3.089
 9197WAT     H127833   1.733   2.919   3.040
 9197WAT     H227834   1.596   2.864   3.111
 9198WAT      O27835   5.716   5.655   7.593
 9198WAT     H127836   5.808   5.616   7.585
 9198WAT     H227837   5.706   5.730   7.528
 9199WAT      O27838   8.857   9.048   5.246
 9199WAT     H127839   8.766   9.078   5.217
 9199WAT     H227840   8.920   9.055   5.169
 9200WAT      O27841   0.609   5.144   6.711
 9200WAT     H127842   0.663   5.060   6.705
 9200WAT     H227843   0.609   5.190   6.622
 9201WAT      O27844   5.237   3.651   0.702
 9201WAT     H127845   5.317   3.671   0.647
 9201WAT     H227846   5.255   3.571   0.760
 9202WAT      O27847   8.745   2.980   1.633
 9202WAT     H127848   8.836   2.940   1.625
 9202WAT     H227849   8.678   2.919   1.591
 9203WAT      O27850   5.892   8.799   0.160
 9203WAT     H127851   5.982   8.759   0.176
 9203WAT     H227852   5.843   8.807   0.246
 9204WAT      O27853   2.870   3.649   2.401
 9204WAT     H127854   2.883   3.658   2.303
 9204WAT     H227855   2.952   3.611   2.443
 9205WAT      O27856   7.279   4.131   0.654
 9205WAT     H127857   7.276   4.035   0.626
 9205WAT     H227858   7.294   4.137   0.753
 9206WAT      O27859   7.422   5.651   2.484
 9206WAT     H127860   7.374   5.638   2.397
 9206WAT     H227861   7.356   5.650   2.559
 9207WAT      O27862   5.658   2.339   7.912
 9207WAT     H127863   5.706   2.426   7.899
 9207WAT     H227864   5.606   2.317   7.830
 9208WAT      O27865   7.545   4.587   8.555
 9208WAT     H127866   7.458   4.607   8.511
 9208WAT     H227867   7.593   4.673   8.574
 9209WAT      O27868   4.441   7.432   1.771
 9209WAT     H127869   4.409   7.467   1.860
 9209WAT     H227870   4.400   7.342   1.754
 9210WAT      O27871   2.157   0.474   3.706
 9210WAT     H127872   2.173   0.516   3.617
 9210WAT     H227873   2.230   0.501   3.769
 9211WAT      O27874   8.304   1.669   7.795
 9211WAT     H127875   8.311   1.694   7.698
 9211WAT     H227876   8.292   1.570   7.803
 9212WAT      O27877   2.839   7.203   6.638
 9212WAT     H127878   2.921   7.243   6.680
 9212WAT     H227879   2.784   7.276   6.598
 9213WAT      O27880   7.011   3.421   8.585
 9213WAT     H127881   7.012   3.337   8.641
 9213WAT     H227882   6.922   3.466   8.596
 9214WAT      O27883   4.316   8.125   2.799
 9214WAT     H127884   4.289   8.171   2.715
 9214WAT     H227885   4.281   8.176   2.878
 9215WAT      O27886   2.618   6.640   2.929
 9215WAT     H127887   2.527   6.652   2.892
 9215WAT     H227888   2.670   6.725   2.921
 9216WAT      O27889   3.309   6.877   9.534
 9216WAT     H127890   3.392   6.930   9.553
 9216WAT     H227891   3.305   6.798   9.596
 9217WAT      O27892   0.119   7.167   9.375
 9217WAT     H127893   0.070   7.193   9.458
 9217WAT     H227894   0.056   7.125   9.310
 9218WAT      O27895   4.138   0.685   1.005
 9218WAT     H127896   4.128   0.676   1.104
 9218WAT     H227897   4.063   0.637   0.960
 9219WAT      O27898   8.980   5.627   7.131
 9219WAT     H127899   8.937   5.604   7.218
 9219WAT     H227900   8.957   5.559   7.062
 9220WAT      O27901   0.189   4.374   6.094
 9220WAT     H127902   0.093   4.347   6.091
 9220WAT     H227903   0.247   4.293   6.098
 9221WAT      O27904   1.792   0.273   1.273
 9221WAT     H127905   1.856   0.222   1.329
 9221WAT     H227906   1.798   0.242   1.178
 9222WAT      O27907   6.338   9.796   5.473
 9222WAT     H127908   6.392   9.713   5.461
 9222WAT     H227909   6.272   9.783   5.546
 9223WAT      O27910   0.162   0.111   8.050
 9223WAT     H127911   0.158   0.200   8.096
 9223WAT     H227912   0.205   0.122   7.961
 9224WAT      O27913   0.999   0.488   2.323
 9224WAT     H127914   1.051   0.486   2.408
 9224WAT     H227915   1.055   0.529   2.251
 9225WAT      O27916   5.375   2.851   8.957
 9225WAT     H127917   5.389   2.846   8.858
 9225WAT     H227918   5.461   2.828   9.004
 9226WAT      O27919   0.372   8.369   4.933
 9226WAT     H127920   0.308   8.436   4.969
 9226WAT     H227921   0.453   8.365   4.993
 9227WAT      O27922   1.083   3.862   5.871
 9227WAT     H127923   1.163   3.887   5.926
 9227WAT     H227924   1.083   3.764   5.855
 9228WAT      O27925   7.763   1.892   5.778
 9228WAT     H127926   7.777   1.942   5.692
 9228WAT     H227927   7.688   1.934   5.829
 9229WAT      O27928   2.275   8.544   3.987
 9229WAT     H127929   2.299   8.447   3.980
 9229WAT     H227930   2.296   8.577   4.079
 9230WAT      O27931   5.960   4.050   1.394
 9230WAT     H127932   6.049   4.023   1.429
 9230WAT     H227933   5.904   4.086   1.468
 9231WAT      O27934   8.644   1.557   4.952
 9231WAT     H127935   8.669   1.637   4.897
 9231WAT     H227936   8.574   1.584   5.019
 9232WAT      O27937   1.460   1.445   5.386
 9232WAT     H127938   1.433   1.350   5.371
 9232WAT     H227939   1.448   1.497   5.301
 9233WAT      O27940   7.509   0.701   4.571
 9233WAT     H127941   7.561   0.619   4.545
 9233WAT     H227942   7.478   0.748   4.489
 9234WAT      O27943   7.227   3.869   2.754
 9234WAT     H127944   7.242   3.771   2.745
 9234WAT     H227945   7.240   3.896   2.850
 9235WAT      O27946   9.502   3.656   7.869
 9235WAT     H127947   9.536   3.750   7.876
 9235WAT     H227948   9.524   3.619   7.779
 9236WAT      O27949   3.918   6.093   2.070
 9236WAT     H127950   3.978   6.103   2.149
 9236WAT     H227951   3.852   6.020   2.088
 9237WAT      O27952   2.019   4.785   8.019
 9237WAT     H127953   2.076   4.704   8.029
 9237WAT     H227954   2.034   4.826   7.929
 9238WAT      O27955   3.126   9.517   1.039
 9238WAT     H127956   3.105   9.572   0.959
 9238WAT     H227957   3.203   9.456   1.018
 9239WAT      O27958   8.934   2.352   5.178
 9239WAT     H127959   8.952   2.418   5.106
 9239WAT     H227960   8.863   2.288   5.149
 9240WAT      O27961   5.060   5.374   1.437
 9240WAT     H127962   4.986   5.438   1.415
 9240WAT     H227963   5.125   5.371   1.362
 9241WAT      O27964   9.781   4.493   8.532
 9241WAT     H127965   9.711   4.426   8.557
 9241WAT     H227966   9.854   4.492   8.601
 9242WAT      O27967   9.863   2.577   5.811
 9242WAT     H127968   9.817   2.577   5.900
 9242WAT     H227969   9.860   2.668   5.771
 9243WAT      O27970   5.126   6.221   5.222
 9243WAT     H127971   5.059   6.165   5.271
 9243WAT     H227972   5.209   6.168   5.207
 9244WAT      O27973   4.512   1.424   8.983
 9244WAT     H127974   4.569   1.406   9.063
 9244WAT     H227975   4.566   1.470   8.913
 9245WAT      O27976   3.123   6.574   3.558
 9245WAT     H127977   3.024   6.591   3.550
 9245WAT     H227978   3.160   6.552   3.468
 9246WAT      O27979   9.313   5.446   5.562
 9246WAT     H127980   9.273   5.489   5.643
 9246WAT     H227981   9.347   5.355   5.586
 9247WAT      O27982   8.244   7.232   1.274
 9247WAT     H127983   8.332   7.273   1.250
 9247WAT     H227984   8.186   7.300   1.318
 9248WAT      O27985   8.012   0.663   6.656
 9248WAT     H127986   8.033   0.606   6.735
 9248WAT     H227987   8.097   0.693   6.612
 9249WAT      O27988   6.001   5.007   0.714
 9249WAT     H127989   5.949   5.020   0.630
 9249WAT     H227990   5.938   4.991   0.790
 9250WAT      O27991   3.889   1.242   5.402
 9250WAT     H127992   3.868   1.229   5.499
 9250WAT     H227993   3.809   1.216   5.347
 9251WAT      O27994   8.461   3.767   4.079
 9251WAT     H127995   8.382   3.714   4.048
 9251WAT     H227996   8.535   3.758   4.013
 9252WAT      O27997   0.685   1.328   6.076
 9252WAT     H127998   0.614   1.394   6.100
 9252WAT     H227999   0.653   1.272   6.000
 9253WAT      O28000   0.464   1.800   1.620
 9253WAT     H128001   0.421   1.710   1.620
 9253WAT     H228002   0.418   1.860   1.685
 9254WAT      O28003   3.379   9.166   7.472
 9254WAT     H128004   3.312   9.147   7.544
 9254WAT     H228005   3.470   9.175   7.512
 9255WAT      O28006   2.034   8.048   5.980
 9255WAT     H128007   2.064   8.067   6.073
 9255WAT     H228008   2.018   7.949   5.971
 9256WAT      O28009   0.227   4.005   5.466
 9256WAT     H128010   0.204   4.100   5.487
 9256WAT     H228011   0.258   3.959   5.550
 9257WAT      O28012   2.163   3.976   3.898
 9257WAT     H128013   2.179   4.016   3.808
 9257WAT     H228014   2.065   3.973   3.916
 9258WAT      O28015   3.656   0.312   8.721
 9258WAT     H128016   3.721   0.236   8.716
 9258WAT     H228017   3.663   0.366   8.637
 9259WAT      O28018   2.644   6.016   9.659
 9259WAT     H128019   2.737   5.979   9.656
 9259WAT     H228020   2.619   6.047   9.567
 9260WAT      O28021   5.461   7.132   7.060
 9260WAT     H128022   5.421   7.162   6.974
 9260WAT     H228023   5.435   7.195   7.133
 9261WAT      O28024   6.828   6.344   8.883
 9261WAT     H128025   6.801   6.408   8.812
 9261WAT     H228026   6.917   6.305   8.862
 9262WAT      O28027   0.001   7.792   5.725
 9262WAT     H128028  -0.028   7.888   5.717
 9262WAT     H228029   0.085   7.778   5.671
 9263WAT      O28030   1.808   5.739   7.084
 9263WAT     H128031   1.813   5.811   7.154
 9263WAT     H228032   1.721   5.692   7.091
 9264WAT      O28033   6.402   4.486   1.336
 9264WAT     H128034   6.443   4.577   1.324
 9264WAT     H228035   6.469   4.424   1.377
 9265WAT      O28036   2.294   8.746   6.690
 9265WAT     H128037   2.291   8.646   6.676
 9265WAT     H228038   2.273   8.767   6.785
 9266WAT      O28039   0.915   5.241   1.787
 9266WAT     H128040   0.862   5.310   1.739
 9266WAT     H228041   0.976   5.285   1.854
 9267WAT      O28042   7.264   6.963   4.354
 9267WAT     H128043   7.318   6.948   4.272
 9267WAT     H228044   7.254   7.061   4.371
 9268WAT      O28045   8.463   6.967   6.719
 9268WAT     H128046   8.494   7.012   6.635
 9268WAT     H228047   8.385   6.908   6.698
 9269WAT      O28048   2.108   9.843   8.703
 9269WAT     H128049   2.155   9.803   8.781
 9269WAT     H228050   2.100   9.775   8.630
 9270WAT      O28051   3.688   1.935   0.696
 9270WAT     H128052   3.635   1.861   0.738
 9270WAT     H228053   3.678   1.930   0.596
 9271WAT      O28054   9.132   7.398   8.170
 9271WAT     H128055   9.190   7.388   8.089
 9271WAT     H228056   9.104   7.493   8.179
 9272WAT      O28057   8.683   4.303   1.569
 9272WAT     H128058   8.750   4.241   1.528
 9272WAT     H228059   8.630   4.347   1.497
 9273WAT      O28060   7.746   8.239   8.609
 9273WAT     H128061   7.840   8.266   8.592
 9273WAT     H228062   7.744   8.148   8.650
 9274WAT      O28063   3.723   2.266   4.996
 9274WAT     H128064   3.768   2.180   5.022
 9274WAT     H228065   3.791   2.339   4.996
 9275WAT      O28066   3.496   7.789   0.951
 9275WAT     H128067   3.411   7.788   1.003
 9275WAT     H228068   3.495   7.716   0.883
 9276WAT      O28069   1.882   5.405   1.385
 9276WAT     H128070   1.910   5.337   1.453
 9276WAT     H228071   1.792   5.441   1.410
 9277WAT      O28072   9.755   1.142   2.699
 9277WAT     H128073   9.665   1.180   2.719
 9277WAT     H228074   9.822   1.216   2.694
 9278WAT      O28075   3.923   1.949   6.662
 9278WAT     H128076   3.888   1.914   6.575
 9278WAT     H228077   3.879   2.037   6.683
 9279WAT      O28078   4.248   9.599   4.270
 9279WAT     H128079   4.155   9.566   4.286
 9279WAT     H228080   4.261   9.687   4.315
 9280WAT      O28081   1.997   9.649   9.129
 9280WAT     H128082   2.001   9.551   9.147
 9280WAT     H228083   1.990   9.698   9.216
 9281WAT      O28084   7.285   0.607   0.601
 9281WAT     H128085   7.378   0.597   0.566
 9281WAT     H228086   7.273   0.552   0.683
 9282WAT      O28087   4.512   3.991   5.433
 9282WAT     H128088   4.532   3.971   5.337
 9282WAT     H228089   4.571   4.066   5.463
 9283WAT      O28090   9.062   2.141   9.821
 9283WAT     H128091   9.141   2.108   9.872
 9283WAT     H228092   9.063   2.101   9.729
 9284WAT      O28093   9.274   2.007   6.423
 9284WAT     H128094   9.345   1.945   6.389
 9284WAT     H228095   9.184   1.972   6.398
 9285WAT      O28096   8.590   7.088   0.318
 9285WAT     H128097   8.599   7.004   0.265
 9285WAT     H228098   8.678   7.111   0.360
 9286WAT      O28099   9.396   1.236   7.506
 9286WAT     H128100   9.419   1.228   7.409
 9286WAT     H228101   9.348   1.322   7.522
 9287WAT      O28102   5.097   9.636   8.952
 9287WAT     H128103   5.192   9.649   8.979
 9287WAT     H228104   5.051   9.577   9.018
 9288WAT      O28105   4.232   4.411   2.084
 9288WAT     H128106   4.213   4.395   2.181
 9288WAT     H228107   4.329   4.431   2.072
 9289WAT      O28108   0.126   1.526   9.059
 9289WAT     H128109   0.066   1.605   9.047
 9289WAT     H228110   0.096   1.452   8.999
 9290WAT      O28111   3.377   5.043   3.535
 9290WAT     H128112   3.440   5.057   3.611
 9290WAT     H228113   3.297   4.994   3.568
 9291WAT      O28114   9.439   4.299   3.161
 9291WAT     H128115   9.504   4.288   3.085
 9291WAT     H228116   9.391   4.212   3.176
 9292WAT      O28117   0.833   5.996   9.014
 9292WAT     H128118   0.816   6.063   8.942
 9292WAT     H228119   0.753   5.937   9.024
 9293WAT      O28120   7.460   2.958   5.221
 9293WAT     H128121   7.381   2.967   5.282
 9293WAT     H228122   7.507   3.045   5.214
 9294WAT      O28123   4.257   1.199   4.483
 9294WAT     H128124   4.289   1.241   4.569
 9294WAT     H228125   4.300   1.246   4.406
 9295WAT      O28126   9.449   5.206   4.396
 9295WAT     H128127   9.357   5.192   4.433
 9295WAT     H228128   9.517   5.175   4.462
 9296WAT      O28129   5.530   3.772   0.680
 9296WAT     H128130   5.625   3.758   0.707
 9296WAT     H228131   5.506   3.868   0.692
 9297WAT      O28132   5.723   6.417   8.635
 9297WAT     H128133   5.659   6.363   8.689
 9297WAT     H228134   5.769   6.484   8.693
 9298WAT      O28135   4.590   0.127   2.254
 9298WAT     H128136   4.514   0.179   2.216
 9298WAT     H228137   4.581   0.031   2.228
 9299WAT      O28138   7.067   8.714   3.268
 9299WAT     H128139   7.086   8.810   3.290
 9299WAT     H228140   6.968   8.702   3.255
 9300WAT      O28141   3.938   6.496   3.375
 9300WAT     H128142   4.026   6.492   3.422
 9300WAT     H228143   3.869   6.448   3.428
 9301WAT      O28144   5.348   1.708   3.388
 9301WAT     H128145   5.348   1.727   3.289
 9301WAT     H228146   5.415   1.636   3.408
 9302WAT      O28147   3.863   1.227   0.400
 9302WAT     H128148   3.806   1.160   0.354
 9302WAT     H228149   3.959   1.209   0.380
 9303WAT      O28150   5.926   9.293   1.014
 9303WAT     H128151   6.020   9.327   1.021
 9303WAT     H228152   5.895   9.261   1.104
 9304WAT      O28153   7.341   6.465   7.699
 9304WAT     H128154   7.350   6.398   7.626
 9304WAT     H228155   7.339   6.419   7.788
 9305WAT      O28156   1.655   7.973   8.195
 9305WAT     H128157   1.715   8.038   8.148
 9305WAT     H228158   1.595   7.929   8.128
 9306WAT      O28159   6.645   7.892   3.483
 9306WAT     H128160   6.555   7.919   3.450
 9306WAT     H228161   6.715   7.942   3.432
 9307WAT      O28162   7.450   5.083   7.327
 9307WAT     H128163   7.356   5.109   7.308
 9307WAT     H228164   7.503   5.087   7.243
 9308WAT      O28165   6.506   0.584   6.114
 9308WAT     H128166   6.559   0.586   6.029
 9308WAT     H228167   6.425   0.641   6.104
 9309WAT      O28168   7.883   7.749   6.500
 9309WAT     H128169   7.867   7.795   6.412
 9309WAT     H228170   7.980   7.750   6.521
 9310WAT      O28171   9.289   0.648   9.764
 9310WAT     H128172   9.344   0.725   9.798
 9310WAT     H228173   9.217   0.682   9.703
 9311WAT      O28174   8.124   8.668   7.730
 9311WAT     H128175   8.121   8.620   7.818
 9311WAT     H228176   8.041   8.648   7.678
 9312WAT      O28177   6.255   5.923   1.458
 9312WAT     H128178   6.240   5.986   1.534
 9312WAT     H228179   6.293   5.837   1.492
 9313WAT      O28180   9.851   3.623   5.978
 9313WAT     H128181   9.801   3.565   5.914
 9313WAT     H228182   9.795   3.641   6.058
 9314WAT      O28183   1.710   4.324   4.150
 9314WAT     H128184   1.675   4.415   4.128
 9314WAT     H228185   1.774   4.294   4.080
 9315WAT      O28186   1.046   7.368   4.093
 9315WAT     H128187   1.106   7.448   4.081
 9315WAT     H228188   0.953   7.391   4.065
 9316WAT      O28189   2.489   3.785   5.644
 9316WAT     H128190   2.488   3.885   5.654
 9316WAT     H228191   2.401   3.754   5.608
 9317WAT      O28192   8.278   4.547   5.256
 9317WAT     H128193   8.251   4.512   5.166
 9317WAT     H228194   8.202   4.598   5.296
 9318WAT      O28195   4.175   8.379   8.960
 9318WAT     H128196   4.175   8.469   8.916
 9318WAT     H228197   4.163   8.390   9.059
 9319WAT      O28198   3.960   6.404   1.180
 9319WAT     H128199   4.048   6.362   1.159
 9319WAT     H228200   3.893   6.332   1.201
 9320WAT      O28201   6.055   0.448   1.042
 9320WAT     H128202   6.035   0.519   0.974
 9320WAT     H228203   6.146   0.465   1.082
 9321WAT      O28204   7.973   9.779   2.400
 9321WAT     H128205   7.992   9.681   2.402
 9321WAT     H228206   7.929   9.803   2.314
 9322WAT      O28207   8.689   4.355   2.622
 9322WAT     H128208   8.679   4.400   2.711
 9322WAT     H228209   8.732   4.418   2.558
 9323WAT      O28210   9.050   4.510   8.316
 9323WAT     H128211   9.069   4.470   8.406
 9323WAT     H228212   9.136   4.545   8.277
 9324WAT      O28213   7.172   5.196   0.981
 9324WAT     H128214   7.224   5.237   0.907
 9324WAT     H228215   7.165   5.097   0.966
 9325WAT      O28216   9.043   6.019   8.155
 9325WAT     H128217   9.112   6.091   8.165
 9325WAT     H228218   8.953   6.061   8.142
 9326WAT      O28219   8.330   9.256   0.856
 9326WAT     H128220   8.265   9.300   0.918
 9326WAT     H228221   8.358   9.320   0.785
 9327WAT      O28222   4.280   2.130   1.947
 9327WAT     H128223   4.203   2.193   1.946
 9327WAT     H228224   4.263   2.059   2.016
 9328WAT      O28225   0.379   9.694   4.836
 9328WAT     H128226   0.469   9.714   4.799
 9328WAT     H228227   0.373   9.597   4.861
 9329WAT      O28228   0.460   1.343   4.516
 9329WAT     H128229   0.524   1.415   4.489
 9329WAT     H228230   0.395   1.380   4.583
 9330WAT      O28231   1.927   7.690   1.982
 9330WAT     H128232   1.851   7.667   2.043
 9330WAT     H228233   1.939   7.789   1.979
 9331WAT      O28234   1.728   6.215   1.846
 9331WAT     H128235   1.802   6.274   1.877
 9331WAT     H228236   1.644   6.237   1.897
 9332WAT      O28237   7.256   6.125   0.773
 9332WAT     H128238   7.302   6.197   0.722
 9332WAT     H228239   7.277   6.135   0.871
 9333WAT      O28240   7.492   2.388   8.248
 9333WAT     H128241   7.499   2.411   8.151
 9333WAT     H228242   7.415   2.325   8.262
 9334WAT      O28243   4.868   7.533   2.909
 9334WAT     H128244   4.864   7.541   2.810
 9334WAT     H228245   4.956   7.567   2.942
 9335WAT      O28246   0.799   6.268   8.387
 9335WAT     H128247   0.731   6.207   8.428
 9335WAT     H228248   0.878   6.214   8.358
 9336WAT      O28249   7.682   9.666   1.818
 9336WAT     H128250   7.667   9.762   1.842
 9336WAT     H228251   7.747   9.660   1.743
 9337WAT      O28252   8.018   1.447   4.436
 9337WAT     H128253   8.079   1.523   4.414
 9337WAT     H228254   8.061   1.390   4.506
 9338WAT      O28255   9.473   4.229   0.996
 9338WAT     H128256   9.510   4.296   1.060
 9338WAT     H228257   9.391   4.268   0.952
 9339WAT      O28258   6.258   3.672   9.075
 9339WAT     H128259   6.267   3.752   9.135
 9339WAT     H228260   6.197   3.693   8.999
 9340WAT      O28261   0.873   0.330   1.644
 9340WAT     H128262   0.782   0.304   1.677
 9340WAT     H228263   0.942   0.277   1.692
 9341WAT      O28264   0.622   9.823   7.286
 9341WAT     H128265   0.607   9.794   7.381
 9341WAT     H228266   0.605   9.922   7.279
 9342WAT      O28267   4.080   4.710   0.309
 9342WAT     H128268   4.162   4.690   0.255
 9342WAT     H228269   4.000   4.714   0.248
 9343WAT      O28270   7.757   0.567   1.415
 9343WAT     H128271   7.686   0.510   1.455
 9343WAT     H228272   7.818   0.601   1.487
 9344WAT      O28273   5.365   1.605   5.686
 9344WAT     H128274   5.348   1.583   5.590
 9344WAT     H228275   5.282   1.643   5.727
 9345WAT      O28276   6.685   3.100   0.209
 9345WAT     H128277   6.688   3.113   0.110
 9345WAT     H228278   6.603   3.046   0.233
 9346WAT      O28279   2.765   3.211   4.216
 9346WAT     H128280   2.689   3.162   4.173
 9346WAT     H228281   2.843   3.150   4.228
 9347WAT      O28282   7.299   5.333   7.589
 9347WAT     H128283   7.395   5.350   7.610
 9347WAT     H228284   7.266   5.404   7.526
 9348WAT      O28285   5.118   6.833   7.594
 9348WAT     H128286   5.197   6.885   7.624
 9348WAT     H228287   5.054   6.822   7.670
 9349WAT      O28288   1.652   6.764   0.733
 9349WAT     H128289   1.557   6.738   0.747
 9349WAT     H228290   1.657   6.832   0.659
 9350WAT      O28291   4.151   6.033   7.395
 9350WAT     H128292   4.231   6.009   7.450
 9350WAT     H228293   4.092   5.953   7.384
 9351WAT      O28294   0.589   9.227   6.374
 9351WAT     H128295   0.570   9.151   6.436
 9351WAT     H228296   0.593   9.312   6.427
 9352WAT      O28297   2.292   0.856   9.125
 9352WAT     H128298   2.257   0.809   9.206
 9352WAT     H228299   2.389   0.833   9.112
 9353WAT      O28300   1.669   5.108   6.887
 9353WAT     H128301   1.638   5.036   6.949
 9353WAT     H228302   1.722   5.066   6.812
 9354WAT      O28303   4.135   2.923   4.091
 9354WAT     H128304   4.037   2.926   4.109
 9354WAT     H228305   4.159   2.834   4.053
 9355WAT      O28306   2.038   8.496   0.036
 9355WAT     H128307   2.136   8.499   0.017
 9355WAT     H228308   1.989   8.547  -0.036
 9356WAT      O28309   5.409   7.894   3.520
 9356WAT     H128310   5.447   7.803   3.500
 9356WAT     H228311   5.309   7.887   3.525
 9357WAT      O28312   2.503   5.767   6.945
 9357WAT     H128313   2.508   5.865   6.926
 9357WAT     H228314   2.589   5.723   6.919
 9358WAT      O28315   7.517   0.734   5.292
 9358WAT     H128316   7.496   0.740   5.389
 9358WAT     H228317   7.489   0.819   5.247
 9359WAT      O28318   8.841   0.614   7.922
 9359WAT     H128319   8.795   0.612   8.011
 9359WAT     H228320   8.841   0.523   7.882
 9360WAT      O28321   2.821   3.092   0.865
 9360WAT     H128322   2.897   3.048   0.912
 9360WAT     H228323   2.823   3.065   0.768
 9361WAT      O28324   5.703   9.186   5.557
 9361WAT     H128325   5.640   9.225   5.491
 9361WAT     H228326   5.791   9.234   5.552
 9362WAT      O28327   4.667   0.649   5.544
 9362WAT     H128328   4.590   0.611   5.492
 9362WAT     H228329   4.631   0.708   5.616
 9363WAT      O28330   5.306   7.666   1.637
 9363WAT     H128331   5.305   7.589   1.701
 9363WAT     H228332   5.284   7.634   1.546
 9364WAT      O28333   3.543   7.698   1.249
 9364WAT     H128334   3.572   7.773   1.189
 9364WAT     H228335   3.453   7.665   1.220
 9365WAT      O28336   0.536   3.107   8.131
 9365WAT     H128337   0.482   3.126   8.213
 9365WAT     H228338   0.514   3.174   8.060
 9366WAT      O28339   2.059   6.761   6.988
 9366WAT     H128340   2.021   6.781   6.897
 9366WAT     H228341   2.156   6.737   6.978
 9367WAT      O28342   4.553   6.205   6.789
 9367WAT     H128343   4.560   6.127   6.728
 9367WAT     H228344   4.623   6.273   6.766
 9368WAT      O28345   4.997   5.391   5.361
 9368WAT     H128346   5.002   5.359   5.266
 9368WAT     H228347   4.967   5.486   5.362
 9369WAT      O28348   9.456   0.922   1.106
 9369WAT     H128349   9.374   0.925   1.049
 9369WAT     H228350   9.474   0.827   1.133
 9370WAT      O28351   8.807   7.130   0.476
 9370WAT     H128352   8.898   7.143   0.436
 9370WAT     H228353   8.812   7.059   0.546
 9371WAT      O28354   4.998   4.964   8.002
 9371WAT     H128355   5.045   5.039   8.047
 9371WAT     H228356   5.052   4.880   8.010
 9372WAT      O28357   0.277   7.620   4.221
 9372WAT     H128358   0.354   7.557   4.218
 9372WAT     H228359   0.253   7.649   4.129
 9373WAT      O28360   7.485   3.247   2.585
 9373WAT     H128361   7.487   3.205   2.494
 9373WAT     H228362   7.499   3.176   2.654
 9374WAT      O28363   2.994   3.024   1.108
 9374WAT     H128364   2.902   3.035   1.147
 9374WAT     H228365   3.044   3.110   1.116
 9375WAT      O28366   1.969   4.099   0.109
 9375WAT     H128367   1.918   4.015   0.126
 9375WAT     H228368   1.991   4.105   0.012
 9376WAT      O28369   3.389   5.591   0.724
 9376WAT     H128370   3.444   5.655   0.777
 9376WAT     H228371   3.442   5.555   0.648
 9377WAT      O28372   9.282   9.507   3.343
 9377WAT     H128373   9.222   9.508   3.423
 9377WAT     H228374   9.329   9.419   3.338
 9378WAT      O28375   0.065   8.849   5.238
 9378WAT     H128376   0.142   8.804   5.191
 9378WAT     H228377  -0.001   8.780   5.267
 9379WAT      O28378   2.414   6.900   4.983
 9379WAT     H128379   2.380   6.989   5.012
 9379WAT     H228380   2.509   6.890   5.014
 9380WAT      O28381   3.714   1.528   0.101
 9380WAT     H128382   3.695   1.468   0.178
 9380WAT     H228383   3.743   1.474   0.022
 9381WAT      O28384   5.776   4.536   5.899
 9381WAT     H128385   5.831   4.453   5.906
 9381WAT     H228386   5.795   4.595   5.978
 9382WAT      O28387   2.798   9.257   1.794
 9382WAT     H128388   2.826   9.207   1.712
 9382WAT     H228389   2.814   9.201   1.875
 9383WAT      O28390   4.349   1.374   4.266
 9383WAT     H128391   4.408   1.426   4.328
 9383WAT     H228392   4.357   1.411   4.174
 9384WAT      O28393   9.580   3.945   6.495
 9384WAT     H128394   9.557   3.848   6.506
 9384WAT     H228395   9.534   3.981   6.414
 9385WAT      O28396   8.703   9.588   5.411
 9385WAT     H128397   8.631   9.539   5.460
 9385WAT     H228398   8.674   9.602   5.316
 9386WAT      O28399   3.293   0.520   1.508
 9386WAT     H128400   3.310   0.618   1.519
 9386WAT     H228401   3.380   0.472   1.499
 9387WAT      O28402   3.592   6.965   1.565
 9387WAT     H128403   3.605   6.877   1.520
 9387WAT     H228404   3.677   7.017   1.561
 9388WAT      O28405   7.957   9.052   8.681
 9388WAT     H128406   7.917   9.055   8.773
 9388WAT     H228407   8.042   9.000   8.684
 9389WAT      O28408   7.021   4.096   9.848
 9389WAT     H128409   6.984   4.013   9.805
 9389WAT     H228410   7.113   4.112   9.812
 9390WAT      O28411   9.263   6.498   0.594
 9390WAT     H128412   9.255   6.596   0.577
 9390WAT     H228413   9.292   6.483   0.688
 9391WAT      O28414   9.044   1.088   7.106
 9391WAT     H128415   9.123   1.083   7.044
 9391WAT     H228416   9.074   1.126   7.193
 9392WAT      O28417   6.111   8.535   2.800
 9392WAT     H128418   6.145   8.608   2.859
 9392WAT     H228419   6.183   8.509   2.735
 9393WAT      O28420   2.113   6.138   4.945
 9393WAT     H128421   2.096   6.126   5.042
 9393WAT     H228422   2.098   6.233   4.919
 9394WAT      O28423   0.704   2.617   9.154
 9394WAT     H128424   0.709   2.579   9.062
 9394WAT     H228425   0.769   2.568   9.213
 9395WAT      O28426   7.395   0.890   2.924
 9395WAT     H128427   7.382   0.891   3.023
 9395WAT     H228428   7.489   0.916   2.902
 9396WAT      O28429   9.097   8.860   3.931
 9396WAT     H128430   9.135   8.952   3.930
 9396WAT     H228431   9.116   8.814   3.844
 9397WAT      O28432   7.183   3.003   3.973
 9397WAT     H128433   7.129   3.073   3.927
 9397WAT     H228434   7.147   2.913   3.952
 9398WAT      O28435   3.495   3.807   3.436
 9398WAT     H128436   3.485   3.740   3.362
 9398WAT     H228437   3.415   3.867   3.437
 9399WAT      O28438   5.392   3.895   6.892
 9399WAT     H128439   5.365   3.842   6.812
 9399WAT     H228440   5.316   3.899   6.957
 9400WAT      O28441   2.802   2.697   1.336
 9400WAT     H128442   2.719   2.647   1.362
 9400WAT     H228443   2.831   2.669   1.245
 9401WAT      O28444   2.906   8.661   2.174
 9401WAT     H128445   2.822   8.691   2.129
 9401WAT     H228446   2.883   8.624   2.265
 9402WAT      O28447   5.190   1.549   4.936
 9402WAT     H128448   5.183   1.455   4.902
 9402WAT     H228449   5.139   1.609   4.875
 9403WAT      O28450   0.065   6.898   0.168
 9403WAT     H128451   0.001   6.919   0.093
 9403WAT     H228452   0.024   6.828   0.226
 9404WAT      O28453   9.512   0.484   6.936
 9404WAT     H128454   9.438   0.417   6.929
 9404WAT     H228455   9.522   0.513   7.031
 9405WAT      O28456   2.927   8.552   9.892
 9405WAT     H128457   2.933   8.463   9.938
 9405WAT     H228458   2.851   8.551   9.827
 9406WAT      O28459   3.528   2.807   8.136
 9406WAT     H128460   3.461   2.873   8.169
 9406WAT     H228461   3.620   2.845   8.147
 9407WAT      O28462   7.744   3.627   7.002
 9407WAT     H128463   7.805   3.706   6.991
 9407WAT     H228464   7.799   3.545   7.016
 9408WAT      O28465   5.964   9.040   9.669
 9408WAT     H128466   5.960   8.960   9.609
 9408WAT     H228467   6.018   9.112   9.624
 9409WAT      O28468   5.068   7.133   7.934
 9409WAT     H128469   5.105   7.114   7.843
 9409WAT     H228470   4.988   7.075   7.950
 9410WAT      O28471   9.022   9.066   8.223
 9410WAT     H128472   9.015   9.040   8.319
 9410WAT     H228473   8.939   9.115   8.195
 9411WAT      O28474   6.066   1.632   6.678
 9411WAT     H128475   6.071   1.663   6.773
 9411WAT     H228476   6.052   1.533   6.676
 9412WAT      O28477   5.070   1.018   9.033
 9412WAT     H128478   4.980   0.984   9.006
 9412WAT     H228479   5.140   0.978   8.973
 9413WAT      O28480   6.463   5.512   8.165
 9413WAT     H128481   6.539   5.491   8.226
 9413WAT     H228482   6.408   5.430   8.150
 9414WAT      O28483   3.040   0.469   6.149
 9414WAT     H128484   3.112   0.525   6.189
 9414WAT     H228485   2.993   0.418   6.221
 9415WAT      O28486   4.357   6.590   8.868
 9415WAT     H128487   4.450   6.554   8.875
 9415WAT     H228488   4.305   6.564   8.949
 9416WAT      O28489   0.719   1.316   9.528
 9416WAT     H128490   0.651   1.243   9.524
 9416WAT     H228491   0.785   1.297   9.600
 9417WAT      O28492   2.610   8.345   2.472
 9417WAT     H128493   2.619   8.367   2.375
 9417WAT     H228494   2.604   8.246   2.483
 9418WAT      O28495   0.695   2.835   6.597
 9418WAT     H128496   0.707   2.860   6.693
 9418WAT     H228497   0.770   2.776   6.568
 9419WAT      O28498   2.111   6.881   3.097
 9419WAT     H128499   2.060   6.967   3.103
 9419WAT     H228500   2.208   6.899   3.116
 9420WAT      O28501   0.981   7.431   2.582
 9420WAT     H128502   1.009   7.369   2.656
 9420WAT     H228503   0.927   7.381   2.515
 9421WAT      O28504   5.242   3.995   1.509
 9421WAT     H128505   5.206   3.930   1.442
 9421WAT     H228506   5.225   4.088   1.477
 9422WAT      O28507   4.777   8.607   0.233
 9422WAT     H128508   4.727   8.531   0.274
 9422WAT     H228509   4.720   8.689   0.233
 9423WAT      O28510   3.642   0.451   9.212
 9423WAT     H128511   3.709   0.517   9.178
 9423WAT     H228512   3.624   0.383   9.140
 9424WAT      O28513   0.054   7.078   6.151
 9424WAT     H128514   0.052   6.995   6.207
 9424WAT     H228515   0.145   7.089   6.112
 9425WAT      O28516   1.939   2.285   1.227
 9425WAT     H128517   1.844   2.307   1.250
 9425WAT     H228518   1.945   2.260   1.130
 9426WAT      O28519   0.054   1.550   5.363
 9426WAT     H128520   0.017   1.511   5.448
 9426WAT     H228521  -0.017   1.551   5.293
 9427WAT      O28522   2.936   1.091   5.919
 9427WAT     H128523   3.014   1.152   5.918
 9427WAT     H228524   2.882   1.107   6.002
 9428WAT      O28525   3.207   1.470   1.259
 9428WAT     H128526   3.239   1.378   1.239
 9428WAT     H228527   3.261   1.536   1.208
 9429WAT      O28528   7.917   4.312   8.987
 9429WAT     H128529   7.992   4.263   8.943
 9429WAT     H228530   7.953   4.390   9.037
 9430WAT      O28531   1.193   5.989   9.376
 9430WAT     H128532   1.198   6.086   9.401
 9430WAT     H228533   1.251   5.971   9.297
 9431WAT      O28534   6.217   1.885   5.960
 9431WAT     H128535   6.228   1.786   5.963
 9431WAT     H228536   6.302   1.929   5.992
 9432WAT      O28537   4.782   8.691   8.644
 9432WAT     H128538   4.802   8.654   8.553
 9432WAT     H228539   4.771   8.615   8.708
 9433WAT      O28540   6.317   2.362   4.229
 9433WAT     H128541   6.254   2.439   4.246
 9433WAT     H228542   6.278   2.278   4.267
 9434WAT      O28543   8.822   5.533   3.069
 9434WAT     H128544   8.873   5.546   3.153
 9434WAT     H228545   8.738   5.482   3.088
 9435WAT      O28546   4.562   4.373   3.102
 9435WAT     H128547   4.535   4.466   3.127
 9435WAT     H228548   4.653   4.375   3.061
 9436WAT      O28549   5.791   3.613   3.057
 9436WAT     H128550   5.861   3.555   3.015
 9436WAT     H228551   5.823   3.708   3.058
 9437WAT      O28552   2.516   8.889   2.584
 9437WAT     H128553   2.604   8.851   2.613
 9437WAT     H228554   2.513   8.987   2.605
 9438WAT      O28555   5.034   5.795   8.128
 9438WAT     H128556   4.994   5.877   8.170
 9438WAT     H228557   5.042   5.724   8.198
 9439WAT      O28558   8.752   1.404   7.656
 9439WAT     H128559   8.797   1.444   7.735
 9439WAT     H228560   8.670   1.355   7.686
 9440WAT      O28561   3.412   8.602   1.766
 9440WAT     H128562   3.480   8.649   1.710
 9440WAT     H228563   3.456   8.565   1.848
 9441WAT      O28564   2.541   5.529   5.691
 9441WAT     H128565   2.621   5.541   5.632
 9441WAT     H228566   2.568   5.543   5.786
 9442WAT      O28567   3.188   4.256   4.460
 9442WAT     H128568   3.109   4.241   4.400
 9442WAT     H228569   3.272   4.249   4.406
 9443WAT      O28570   9.715   1.891   6.009
 9443WAT     H128571   9.781   1.816   6.003
 9443WAT     H228572   9.742   1.963   5.945
 9444WAT      O28573   6.927   7.135   0.420
 9444WAT     H128574   6.904   7.232   0.417
 9444WAT     H228575   6.844   7.081   0.434
 9445WAT      O28576   1.095   4.380   7.286
 9445WAT     H128577   1.021   4.442   7.259
 9445WAT     H228578   1.152   4.358   7.207
 9446WAT      O28579   7.344   5.050   4.727
 9446WAT     H128580   7.394   5.073   4.643
 9446WAT     H228581   7.294   4.965   4.713
 9447WAT      O28582   8.876   9.684   2.030
 9447WAT     H128583   8.970   9.717   2.019
 9447WAT     H228584   8.877   9.599   2.084
 9448WAT      O28585   4.152   4.863   3.409
 9448WAT     H128586   4.093   4.942   3.395
 9448WAT     H228587   4.100   4.788   3.450
 9449WAT      O28588   9.735   2.497   9.682
 9449WAT     H128589   9.818   2.488   9.736
 9449WAT     H228590   9.726   2.591   9.648
 9450WAT      O28591   0.102   0.332   9.385
 9450WAT     H128592   0.135   0.380   9.466
 9450WAT     H228593   0.008   0.303   9.399
 9451WAT      O28594   0.251   0.469   3.587
 9451WAT     H128595   0.189   0.392   3.571
 9451WAT     H228596   0.234   0.541   3.520
 9452WAT      O28597   0.906   5.673   5.508
 9452WAT     H128598   1.005   5.670   5.494
 9452WAT     H228599   0.863   5.601   5.453
 9453WAT      O28600   6.395   8.954   2.222
 9453WAT     H128601   6.420   8.997   2.309
 9453WAT     H228602   6.368   9.024   2.156
 9454WAT      O28603   0.680   9.813   6.594
 9454WAT     H128604   0.737   9.886   6.632
 9454WAT     H228605   0.607   9.853   6.539
 9455WAT      O28606   4.437   0.512   7.851
 9455WAT     H128607   4.457   0.474   7.760
 9455WAT     H228608   4.339   0.507   7.868
 9456WAT      O28609   1.821   4.412   5.775
 9456WAT     H128610   1.919   4.397   5.765
 9456WAT     H228611   1.789   4.476   5.704
 9457WAT      O28612   8.896   6.053   3.952
 9457WAT     H128613   8.927   6.124   3.889
 9457WAT     H228614   8.973   6.018   4.005
 9458WAT      O28615   7.019   7.194   0.680
 9458WAT     H128616   7.118   7.179   0.684
 9458WAT     H228617   6.986   7.174   0.587
 9459WAT      O28618   3.251   4.761   8.175
 9459WAT     H128619   3.297   4.777   8.088
 9459WAT     H228620   3.152   4.763   8.162
 9460WAT      O28621   8.198   3.204   2.825
 9460WAT     H128622   8.107   3.229   2.856
 9460WAT     H228623   8.253   3.171   2.902
 9461WAT      O28624   7.927   1.751   7.509
 9461WAT     H128625   7.883   1.731   7.421
 9461WAT     H228626   7.906   1.845   7.536
 9462WAT      O28627   7.928   3.592   3.758
 9462WAT     H128628   7.971   3.564   3.673
 9462WAT     H228629   7.879   3.515   3.798
 9463WAT      O28630   8.152   0.783   2.729
 9463WAT     H128631   8.197   0.704   2.687
 9463WAT     H228632   8.189   0.799   2.820
 9464WAT      O28633   9.354   5.703   5.071
 9464WAT     H128634   9.346   5.629   5.139
 9464WAT     H228635   9.439   5.753   5.087
 9465WAT      O28636   4.720   3.852   9.225
 9465WAT     H128637   4.725   3.799   9.310
 9465WAT     H228638   4.625   3.869   9.202
 9466WAT      O28639   5.934   1.589   0.745
 9466WAT     H128640   6.002   1.574   0.817
 9466WAT     H228641   5.947   1.681   0.707
 9467WAT      O28642   1.507   6.198   6.137
 9467WAT     H128643   1.482   6.130   6.206
 9467WAT     H228644   1.439   6.196   6.064
 9468WAT      O28645   6.377   4.803   9.795
 9468WAT     H128646   6.444   4.865   9.754
 9468WAT     H228647   6.402   4.709   9.772
 9469WAT      O28648   6.658   8.826   1.631
 9469WAT     H128649   6.597   8.882   1.576
 9469WAT     H228650   6.645   8.729   1.607
 9470WAT      O28651   4.126   4.440   5.120
 9470WAT     H128652   4.095   4.472   5.209
 9470WAT     H228653   4.136   4.519   5.058
 9471WAT      O28654   0.609   3.763   7.067
 9471WAT     H128655   0.666   3.843   7.048
 9471WAT     H228656   0.548   3.748   6.989
 9472WAT      O28657   6.993   7.720   0.784
 9472WAT     H128658   6.995   7.621   0.771
 9472WAT     H228659   7.067   7.746   0.846
 9473WAT      O28660   7.761   5.178   4.580
 9473WAT     H128661   7.751   5.093   4.633
 9473WAT     H228662   7.834   5.233   4.620
 9474WAT      O28663   6.633   8.392   0.429
 9474WAT     H128664   6.613   8.321   0.361
 9474WAT     H228665   6.732   8.399   0.442
 9475WAT      O28666   8.645   2.589   1.020
 9475WAT     H128667   8.718   2.629   0.966
 9475WAT     H228668   8.595   2.662   1.068
 9476WAT      O28669   5.927   9.626   8.833
 9476WAT     H128670   5.889   9.615   8.925
 9476WAT     H228671   5.962   9.719   8.822
 9477WAT      O28672   6.764   4.775   9.760
 9477WAT     H128673   6.849   4.766   9.708
 9477WAT     H228674   6.735   4.685   9.792
 9478WAT      O28675   8.070   9.492   3.987
 9478WAT     H128676   8.112   9.513   3.898
 9478WAT     H228677   8.061   9.575   4.041
 9479WAT      O28678   6.989   0.673   4.631
 9479WAT     H128679   6.994   0.703   4.726
 9479WAT     H228680   6.970   0.751   4.572
 9480WAT      O28681   6.531   9.715   0.806
 9480WAT     H128682   6.448   9.707   0.751
 9480WAT     H228683   6.610   9.730   0.747
 9481WAT      O28684   7.569   3.763   6.828
 9481WAT     H128685   7.626   3.718   6.896
 9481WAT     H228686   7.611   3.850   6.802
 9482WAT      O28687   6.982   0.546   9.588
 9482WAT     H128688   7.024   0.473   9.642
 9482WAT     H228689   6.917   0.506   9.523
 9483WAT      O28690   4.956   4.822   6.106
 9483WAT     H128691   4.948   4.913   6.146
 9483WAT     H228692   4.946   4.829   6.007
 9484WAT      O28693   5.417   2.342   4.736
 9484WAT     H128694   5.416   2.275   4.662
 9484WAT     H228695   5.427   2.434   4.698
 9485WAT      O28696   2.147   8.511   2.119
 9485WAT     H128697   2.199   8.504   2.204
 9485WAT     H228698   2.192   8.458   2.047
 9486WAT      O28699   6.189   6.235   5.685
 9486WAT     H128700   6.202   6.138   5.707
 9486WAT     H228701   6.179   6.245   5.586
 9487WAT      O28702   2.588   3.546   7.522
 9487WAT     H128703   2.538   3.533   7.436
 9487WAT     H228704   2.611   3.643   7.532
 9488WAT      O28705   6.057   7.527   4.553
 9488WAT     H128706   6.042   7.475   4.469
 9488WAT     H228707   6.059   7.625   4.532
 9489WAT      O28708   8.330   1.243   7.411
 9489WAT     H128709   8.363   1.304   7.340
 9489WAT     H228710   8.376   1.154   7.404
 9490WAT      O28711   1.541   1.617   6.597
 9490WAT     H128712   1.533   1.590   6.501
 9490WAT     H228713   1.637   1.636   6.618
 9491WAT      O28714   2.907   6.673   4.015
 9491WAT     H128715   2.932   6.720   3.931
 9491WAT     H228716   2.988   6.628   4.053
 9492WAT      O28717   3.190   0.970   9.507
 9492WAT     H128718   3.230   1.037   9.569
 9492WAT     H228719   3.261   0.932   9.448
 9493WAT      O28720   4.451   9.594   9.635
 9493WAT     H128721   4.430   9.656   9.711
 9493WAT     H228722   4.440   9.499   9.664
 9494WAT      O28723   5.665   8.011   3.024
 9494WAT     H128724   5.739   8.004   2.957
 9494WAT     H228725   5.593   8.069   2.988
 9495WAT      O28726   4.425   9.550   4.033
 9495WAT     H128727   4.351   9.579   4.094
 9495WAT     H228728   4.513   9.560   4.079
 9496WAT      O28729   8.395   7.148   4.329
 9496WAT     H128730   8.301   7.115   4.326
 9496WAT     H228731   8.457   7.076   4.298
 9497WAT      O28732   3.344   9.810   2.011
 9497WAT     H128733   3.339   9.868   2.092
 9497WAT     H228734   3.340   9.868   1.929
 9498WAT      O28735   8.735   8.867   9.174
 9498WAT     H128736   8.711   8.936   9.106
 9498WAT     H228737   8.832   8.877   9.200
 9499WAT      O28738   0.627   2.739   0.751
 9499WAT     H128739   0.625   2.722   0.653
 9499WAT     H228740   0.624   2.651   0.800
 9500WAT      O28741   1.650   4.083   0.109
 9500WAT     H128742   1.664   4.111   0.014
 9500WAT     H228743   1.599   4.154   0.158
 9501WAT      O28744   7.097   8.060   6.115
 9501WAT     H128745   7.030   8.002   6.163
 9501WAT     H228746   7.113   8.143   6.168
 9502WAT      O28747   9.167   5.096   2.135
 9502WAT     H128748   9.201   5.015   2.088
 9502WAT     H228749   9.225   5.116   2.213
 9503WAT      O28750   3.695   2.321   0.471
 9503WAT     H128751   3.613   2.378   0.459
 9503WAT     H228752   3.667   2.225   0.484
 9504WAT      O28753   0.740   6.316   2.590
 9504WAT     H128754   0.751   6.345   2.685
 9504WAT     H228755   0.728   6.396   2.532
 9505WAT      O28756   5.440   1.924   1.230
 9505WAT     H128757   5.536   1.915   1.207
 9505WAT     H228758   5.431   1.973   1.317
 9506WAT      O28759   4.028   0.283   4.029
 9506WAT     H128760   4.056   0.318   3.940
 9506WAT     H228761   4.018   0.184   4.025
 9507WAT      O28762   6.260   5.233   9.675
 9507WAT     H128763   6.345   5.220   9.725
 9507WAT     H228764   6.278   5.286   9.592
 9508WAT      O28765   2.641   4.701   5.959
 9508WAT     H128766   2.691   4.686   6.044
 9508WAT     H228767   2.682   4.645   5.886
 9509WAT      O28768   6.013   7.808   4.847
 9509WAT     H128769   5.973   7.877   4.908
 9509WAT     H228770   5.988   7.717   4.878
 9510WAT      O28771   2.615   2.983   2.393
 9510WAT     H128772   2.544   3.024   2.449
 9510WAT     H228773   2.697   3.041   2.393
 9511WAT      O28774   3.342   2.100   3.628
 9511WAT     H128775   3.261   2.110   3.686
 9511WAT     H228776   3.378   2.190   3.603
 9512WAT      O28777   7.553   4.000   7.816
 9512WAT     H128778   7.634   4.009   7.873
 9512WAT     H228779   7.471   4.005   7.872
 9513WAT      O28780   4.071   8.164   8.811
 9513WAT     H128781   4.145   8.107   8.775
 9513WAT     H228782   4.110   8.242   8.861
 9514WAT      O28783   3.682   5.142   9.214
 9514WAT     H128784   3.764   5.137   9.158
 9514WAT     H228785   3.703   5.113   9.307
 9515WAT      O28786   4.002   2.697   9.664
 9515WAT     H128787   4.040   2.790   9.666
 9515WAT     H228788   4.003   2.663   9.570
 9516WAT      O28789   5.576   0.065   8.740
 9516WAT     H128790   5.479   0.073   8.761
 9516WAT     H228791   5.587   0.024   8.649
 9517WAT      O28792   5.237   7.215   3.149
 9517WAT     H128793   5.219   7.151   3.074
 9517WAT     H228794   5.221   7.169   3.237
 9518WAT      O28795   5.493   7.623   5.388
 9518WAT     H128796   5.394   7.612   5.404
 9518WAT     H228797   5.521   7.714   5.417
 9519WAT      O28798   2.311   5.248   9.481
 9519WAT     H128799   2.305   5.295   9.393
 9519WAT     H228800   2.330   5.316   9.553
 9520WAT      O28801   4.853   4.395   7.190
 9520WAT     H128802   4.852   4.317   7.128
 9520WAT     H228803   4.878   4.364   7.282
 9521WAT      O28804   0.913   1.213   9.684
 9521WAT     H128805   0.981   1.171   9.625
 9521WAT     H228806   0.957   1.246   9.768
 9522WAT      O28807   4.379   1.926   7.557
 9522WAT     H128808   4.329   1.902   7.474
 9522WAT     H228809   4.451   1.992   7.535
 9523WAT      O28810   1.892   2.596   7.960
 9523WAT     H128811   1.966   2.561   8.017
 9523WAT     H228812   1.877   2.693   7.981
 9524WAT      O28813   3.408   7.752   9.792
 9524WAT     H128814   3.467   7.778   9.869
 9524WAT     H228815   3.350   7.829   9.767
 9525WAT      O28816   8.643   1.800   6.453
 9525WAT     H128817   8.546   1.782   6.438
 9525WAT     H228818   8.696   1.762   6.377
 9526WAT      O28819   7.011   4.977   2.051
 9526WAT     H128820   7.059   4.923   2.120
 9526WAT     H228821   6.916   4.992   2.081
 9527WAT      O28822   2.567   1.808   6.756
 9527WAT     H128823   2.583   1.752   6.675
 9527WAT     H228824   2.469   1.829   6.765
 9528WAT      O28825   8.320   9.500   4.896
 9528WAT     H128826   8.319   9.409   4.856
 9528WAT     H228827   8.230   9.542   4.886
 9529WAT      O28828   0.011   3.011   6.083
 9529WAT     H128829  -0.056   2.982   6.015
 9529WAT     H228830   0.012   3.111   6.088
 9530WAT      O28831   3.295   9.566   7.225
 9530WAT     H128832   3.349   9.640   7.265
 9530WAT     H228833   3.347   9.481   7.229
 9531WAT      O28834   8.420   7.332   7.861
 9531WAT     H128835   8.325   7.359   7.847
 9531WAT     H228836   8.424   7.252   7.921
 9532WAT      O28837   3.457   6.791   5.009
 9532WAT     H128838   3.475   6.822   5.102
 9532WAT     H228839   3.531   6.732   4.978
 9533WAT      O28840   5.497   0.023   3.510
 9533WAT     H128841   5.483   0.109   3.461
 9533WAT     H228842   5.492  -0.053   3.446
 9534WAT      O28843   9.353   7.548   1.050
 9534WAT     H128844   9.343   7.548   1.149
 9534WAT     H228845   9.373   7.641   1.019
 9535WAT      O28846   7.069   7.891   0.602
 9535WAT     H128847   7.036   7.824   0.669
 9535WAT     H228848   7.025   7.979   0.618
 9536WAT      O28849   3.727   8.239   9.706
 9536WAT     H128850   3.746   8.190   9.621
 9536WAT     H228851   3.813   8.272   9.746
 9537WAT      O28852   6.581   0.972   7.776
 9537WAT     H128853   6.651   0.909   7.809
 9537WAT     H228854   6.537   1.017   7.855
 9538WAT      O28855   6.546   4.196   2.244
 9538WAT     H128856   6.561   4.227   2.338
 9538WAT     H228857   6.557   4.096   2.240
 9539WAT      O28858   0.396   0.416   2.457
 9539WAT     H128859   0.452   0.499   2.457
 9539WAT     H228860   0.431   0.352   2.525
 9540WAT      O28861   1.220   5.226   2.882
 9540WAT     H128862   1.262   5.183   2.962
 9540WAT     H228863   1.132   5.181   2.864
 9541WAT      O28864   4.057   8.703   9.317
 9541WAT     H128865   3.989   8.667   9.253
 9541WAT     H228866   4.087   8.793   9.286
 9542WAT      O28867   6.121   7.089   9.331
 9542WAT     H128868   6.212   7.131   9.330
 9542WAT     H228869   6.110   7.031   9.250
 9543WAT      O28870   6.282   4.339   2.640
 9543WAT     H128871   6.202   4.291   2.605
 9543WAT     H228872   6.257   4.390   2.723
 9544WAT      O28873   4.809   6.382   8.553
 9544WAT     H128874   4.885   6.390   8.488
 9544WAT     H228875   4.734   6.441   8.524
 9545WAT      O28876   9.397   1.785   0.712
 9545WAT     H128877   9.473   1.736   0.668
 9545WAT     H228878   9.382   1.872   0.665
 9546WAT      O28879   9.825   7.110   0.547
 9546WAT     H128880   9.904   7.068   0.592
 9546WAT     H228881   9.857   7.177   0.480
 9547WAT      O28882   1.824   8.096   5.675
 9547WAT     H128883   1.904   8.054   5.631
 9547WAT     H228884   1.846   8.189   5.705
 9548WAT      O28885   2.378   0.335   7.417
 9548WAT     H128886   2.333   0.394   7.349
 9548WAT     H228887   2.331   0.345   7.505
 9549WAT      O28888   3.037   3.959   1.124
 9549WAT     H128889   3.088   4.021   1.063
 9549WAT     H228890   3.041   3.995   1.217
 9550WAT      O28891   6.078   5.629   4.550
 9550WAT     H128892   6.098   5.584   4.463
 9550WAT     H228893   6.043   5.561   4.615
 9551WAT      O28894   3.433   1.277   9.888
 9551WAT     H128895   3.462   1.287   9.984
 9551WAT     H228896   3.418   1.367   9.848
 9552WAT      O28897   4.625   2.082   4.480
 9552WAT     H128898   4.566   2.078   4.561
 9552WAT     H228899   4.705   2.024   4.494
 9553WAT      O28900   5.473   8.425   5.564
 9553WAT     H128901   5.485   8.520   5.592
 9553WAT     H228902   5.382   8.413   5.525
 9554WAT      O28903   7.981   0.916   6.980
 9554WAT     H128904   7.953   1.003   7.019
 9554WAT     H228905   8.081   0.907   6.985
 9555WAT      O28906   5.630   8.211   4.747
 9555WAT     H128907   5.543   8.257   4.764
 9555WAT     H228908   5.687   8.217   4.829
 9556WAT      O28909   9.600   4.360   5.113
 9556WAT     H128910   9.639   4.304   5.040
 9556WAT     H228911   9.665   4.368   5.188
 9557WAT      O28912   4.437   4.862   8.498
 9557WAT     H128913   4.360   4.921   8.473
 9557WAT     H228914   4.495   4.847   8.418
 9558WAT      O28915   4.506   4.648   6.285
 9558WAT     H128916   4.603   4.628   6.268
 9558WAT     H228917   4.459   4.563   6.309
 9559WAT      O28918   6.749   3.733   2.930
 9559WAT     H128919   6.663   3.773   2.963
 9559WAT     H228920   6.751   3.635   2.953
 9560WAT      O28921   8.588   1.972   8.901
 9560WAT     H128922   8.599   2.066   8.867
 9560WAT     H228923   8.656   1.913   8.857
 9561WAT      O28924   0.565   8.197   3.655
 9561WAT     H128925   0.548   8.147   3.740
 9561WAT     H228926   0.487   8.257   3.636
 9562WAT      O28927   3.328   2.549   7.819
 9562WAT     H128928   3.387   2.621   7.785
 9562WAT     H228929   3.370   2.505   7.899
 9563WAT      O28930   9.618   7.758   9.371
 9563WAT     H128931   9.633   7.706   9.456
 9563WAT     H228932   9.538   7.817   9.382
 9564WAT      O28933   8.667   3.062   2.990
 9564WAT     H128934   8.617   3.059   2.904
 9564WAT     H228935   8.758   3.022   2.978
 9565WAT      O28936   0.826   9.563   6.490
 9565WAT     H128937   0.778   9.647   6.516
 9565WAT     H228938   0.849   9.511   6.573
 9566WAT      O28939   4.503   6.419   4.372
 9566WAT     H128940   4.591   6.436   4.416
 9566WAT     H228941   4.516   6.358   4.294
 9567WAT      O28942   7.396   7.870   2.535
 9567WAT     H128943   7.336   7.838   2.608
 9567WAT     H228944   7.369   7.963   2.508
 9568WAT      O28945   7.260   7.755   0.439
 9568WAT     H128946   7.182   7.800   0.484
 9568WAT     H228947   7.247   7.656   0.442
 9569WAT      O28948   0.999   9.532   0.310
 9569WAT     H128949   1.073   9.589   0.344
 9569WAT     H228950   1.037   9.459   0.253
 9570WAT      O28951   7.558   9.262   1.276
 9570WAT     H128952   7.525   9.284   1.367
 9570WAT     H228953   7.502   9.189   1.237
 9571WAT      O28954   2.212   0.444   4.597
 9571WAT     H128955   2.240   0.349   4.612
 9571WAT     H228956   2.289   0.496   4.558
 9572WAT      O28957   8.350   4.706   0.006
 9572WAT     H128958   8.330   4.757   0.089
 9572WAT     H228959   8.281   4.727  -0.064
 9573WAT      O28960   5.691   9.437   5.954
 9573WAT     H128961   5.615   9.434   6.019
 9573WAT     H228962   5.695   9.351   5.903
 9574WAT      O28963   7.742   7.851   4.245
 9574WAT     H128964   7.825   7.799   4.265
 9574WAT     H228965   7.662   7.799   4.275
 9575WAT      O28966   0.726   6.699   8.228
 9575WAT     H128967   0.663   6.713   8.152
 9575WAT     H228968   0.686   6.635   8.294
 9576WAT      O28969   2.722   4.318   1.097
 9576WAT     H128970   2.806   4.368   1.120
 9576WAT     H228971   2.743   4.250   1.027
 9577WAT      O28972   8.280   6.195   2.102
 9577WAT     H128973   8.277   6.289   2.138
 9577WAT     H228974   8.189   6.168   2.073
 9578WAT      O28975   8.341   2.298   8.440
 9578WAT     H128976   8.364   2.357   8.518
 9578WAT     H228977   8.256   2.331   8.399
 9579WAT      O28978   4.041   6.883   5.028
 9579WAT     H128979   3.954   6.834   5.031
 9579WAT     H228980   4.097   6.855   5.106
 9580WAT      O28981   7.688   4.711   5.644
 9580WAT     H128982   7.759   4.780   5.659
 9580WAT     H228983   7.603   4.756   5.618
 9581WAT      O28984   4.031   9.140   7.770
 9581WAT     H128985   4.130   9.133   7.753
 9581WAT     H228986   3.982   9.116   7.686
 9582WAT      O28987   7.014   0.214   7.230
 9582WAT     H128988   7.088   0.278   7.207
 9582WAT     H228989   6.968   0.184   7.146
 9583WAT      O28990   0.965   8.384   2.696
 9583WAT     H128991   0.913   8.466   2.721
 9583WAT     H228992   0.906   8.304   2.706
 9584WAT      O28993   1.194   9.150   3.245
 9584WAT     H128994   1.217   9.063   3.203
 9584WAT     H228995   1.143   9.206   3.180
 9585WAT      O28996   7.623   4.762   6.699
 9585WAT     H128997   7.702   4.759   6.639
 9585WAT     H228998   7.546   4.805   6.651
 9586WAT      O28999   1.988   4.827   9.104
 9586WAT     H129000   2.051   4.751   9.091
 9586WAT     H229001   1.894   4.795   9.094
 9587WAT      O29002   4.903   2.537   6.289
 9587WAT     H129003   4.918   2.438   6.291
 9587WAT     H229004   4.858   2.565   6.373
 9588WAT      O29005   1.016   7.370   7.171
 9588WAT     H129006   0.923   7.402   7.192
 9588WAT     H229007   1.070   7.447   7.137
 9589WAT      O29008   6.690   6.046   6.586
 9589WAT     H129009   6.783   6.079   6.571
 9589WAT     H229010   6.634   6.063   6.505
 9590WAT      O29011   6.204   1.886   9.198
 9590WAT     H129012   6.256   1.802   9.181
 9590WAT     H229013   6.256   1.964   9.164
 9591WAT      O29014   0.888   8.459   4.047
 9591WAT     H129015   0.872   8.557   4.061
 9591WAT     H229016   0.914   8.442   3.952
 9592WAT      O29017   9.314   8.047   5.189
 9592WAT     H129018   9.288   8.140   5.216
 9592WAT     H229019   9.329   8.044   5.090
 9593WAT      O29020   7.828   1.827   4.283
 9593WAT     H129021   7.860   1.764   4.354
 9593WAT     H229022   7.738   1.862   4.308
 9594WAT      O29023   1.499   1.492   0.428
 9594WAT     H129024   1.443   1.424   0.475
 9594WAT     H229025   1.577   1.447   0.385
 9595WAT      O29026   4.019   7.904   8.211
 9595WAT     H129027   4.092   7.855   8.162
 9595WAT     H229028   3.967   7.840   8.267
 9596WAT      O29029   3.878   4.715   7.124
 9596WAT     H129030   3.953   4.731   7.188
 9596WAT     H229031   3.821   4.640   7.157
 9597WAT      O29032   8.105   6.543   1.869
 9597WAT     H129033   8.011   6.564   1.897
 9597WAT     H229034   8.145   6.479   1.934
 9598WAT      O29035   2.819   6.224   1.754
 9598WAT     H129036   2.860   6.139   1.722
 9598WAT     H229037   2.818   6.291   1.679
 9599WAT      O29038   7.875   8.924   3.299
 9599WAT     H129039   7.949   8.934   3.233
 9599WAT     H229040   7.912   8.924   3.391
 9600WAT      O29041   4.145   6.704   6.780
 9600WAT     H129042   4.105   6.619   6.746
 9600WAT     H229043   4.225   6.727   6.725
 9601WAT      O29044   1.366   8.330   2.739
 9601WAT     H129045   1.424   8.403   2.703
 9601WAT     H229046   1.287   8.370   2.785
 9602WAT      O29047   1.003   3.146   8.527
 9602WAT     H129048   0.953   3.077   8.474
 9602WAT     H229049   1.101   3.133   8.513
 9603WAT      O29050   3.270   2.970   5.924
 9603WAT     H129051   3.197   2.935   5.984
 9603WAT     H229052   3.359   2.937   5.958
 9604WAT      O29053   4.188   3.693   2.247
 9604WAT     H129054   4.243   3.619   2.287
 9604WAT     H229055   4.161   3.757   2.319
 9605WAT      O29056   6.953   0.109   5.112
 9605WAT     H129057   6.996   0.160   5.187
 9605WAT     H229058   6.947   0.168   5.031
 9606WAT      O29059   4.957   8.593   1.214
 9606WAT     H129060   4.896   8.660   1.173
 9606WAT     H229061   5.050   8.606   1.178
 9607WAT      O29062   0.284   8.511   8.810
 9607WAT     H129063   0.291   8.413   8.824
 9607WAT     H229064   0.301   8.533   8.713
 9608WAT      O29065   3.097   1.115   7.421
 9608WAT     H129066   3.036   1.169   7.480
 9608WAT     H229067   3.188   1.110   7.462
 9609WAT      O29068   5.582   8.663   2.849
 9609WAT     H129069   5.613   8.732   2.915
 9609WAT     H229070   5.486   8.642   2.866
 9610WAT      O29071   5.502   9.329   6.446
 9610WAT     H129072   5.592   9.296   6.475
 9610WAT     H229073   5.500   9.429   6.450
 9611WAT      O29074   6.726   0.524   9.852
 9611WAT     H129075   6.641   0.542   9.902
 9611WAT     H229076   6.709   0.534   9.754
 9612WAT      O29077   6.946   6.144   3.622
 9612WAT     H129078   6.951   6.231   3.573
 9612WAT     H229079   6.877   6.150   3.694
 9613WAT      O29080   5.967   0.483   5.855
 9613WAT     H129081   6.031   0.459   5.928
 9613WAT     H229082   5.982   0.578   5.828
 9614WAT      O29083   7.865   3.186   8.869
 9614WAT     H129084   7.867   3.278   8.831
 9614WAT     H229085   7.771   3.160   8.888
 9615WAT      O29086   2.647   1.124   6.431
 9615WAT     H129087   2.679   1.197   6.491
 9615WAT     H229088   2.724   1.064   6.408
 9616WAT      O29089   9.372   2.718   9.024
 9616WAT     H129090   9.378   2.816   9.046
 9616WAT     H229091   9.460   2.688   8.987
 9617WAT      O29092   5.778   4.022   6.169
 9617WAT     H129093   5.770   3.980   6.079
 9617WAT     H229094   5.737   3.962   6.238
 9618WAT      O29095   0.753   5.224   5.362
 9618WAT     H129096   0.812   5.186   5.291
 9618WAT     H229097   0.657   5.200   5.343
 9619WAT      O29098   3.709   2.228   6.205
 9619WAT     H129099   3.756   2.317   6.203
 9619WAT     H229100   3.614   2.239   6.175
 9620WAT      O29101   2.524   4.456   1.635
 9620WAT     H129102   2.497   4.550   1.616
 9620WAT     H229103   2.597   4.429   1.572
 9621WAT      O29104   7.624   1.503   7.722
 9621WAT     H129105   7.700   1.438   7.723
 9621WAT     H229106   7.622   1.554   7.808
 9622WAT      O29107   3.904   0.297   4.439
 9622WAT     H129108   3.809   0.306   4.471
 9622WAT     H229109   3.906   0.238   4.358
 9623WAT      O29110   8.700   2.164   5.079
 9623WAT     H129111   8.623   2.210   5.035
 9623WAT     H229112   8.735   2.092   5.018
 9624WAT      O29113   0.173   9.407   3.265
 9624WAT     H129114   0.222   9.336   3.214
 9624WAT     H229115   0.094   9.366   3.311
 9625WAT      O29116   3.462   3.684   0.712
 9625WAT     H129117   3.396   3.618   0.676
 9625WAT     H229118   3.552   3.668   0.671
 9626WAT      O29119   4.283   2.559   2.733
 9626WAT     H129120   4.280   2.471   2.780
 9626WAT     H229121   4.189   2.592   2.717
 9627WAT      O29122   7.245   2.973   3.063
 9627WAT     H129123   7.149   2.953   3.084
 9627WAT     H229124   7.303   2.928   3.130
 9628WAT      O29125   2.139   9.619   2.399
 9628WAT     H129126   2.197   9.700   2.409
 9628WAT     H229127   2.047   9.647   2.371
 9629WAT      O29128   7.220   3.823   3.031
 9629WAT     H129129   7.298   3.761   3.037
 9629WAT     H229130   7.160   3.808   3.110
 9630WAT      O29131   9.821   4.860   3.571
 9630WAT     H129132   9.800   4.823   3.481
 9630WAT     H229133   9.808   4.959   3.571
 9631WAT      O29134   3.811   1.892   7.134
 9631WAT     H129135   3.718   1.924   7.118
 9631WAT     H229136   3.862   1.895   7.048
 9632WAT      O29137   8.503   1.421   2.191
 9632WAT     H129138   8.504   1.321   2.198
 9632WAT     H229139   8.461   1.448   2.104
 9633WAT      O29140   5.296   9.664   9.312
 9633WAT     H129141   5.317   9.644   9.217
 9633WAT     H229142   5.337   9.594   9.371
 9634WAT      O29143   4.591   0.277   6.683
 9634WAT     H129144   4.651   0.306   6.758
 9634WAT     H229145   4.647   0.244   6.607
 9635WAT      O29146   8.260   7.904   7.845
 9635WAT     H129147   8.185   7.945   7.793
 9635WAT     H229148   8.223   7.863   7.929
 9636WAT      O29149   5.495   9.583   1.404
 9636WAT     H129150   5.463   9.636   1.326
 9636WAT     H229151   5.456   9.491   1.400
 9637WAT      O29152   3.318   2.704   6.495
 9637WAT     H129153   3.356   2.643   6.565
 9637WAT     H229154   3.388   2.770   6.467
 9638WAT      O29155   9.225   0.743   6.001
 9638WAT     H129156   9.140   0.692   5.993
 9638WAT     H229157   9.258   0.770   5.911
 9639WAT      O29158   0.644   3.923   4.116
 9639WAT     H129159   0.651   4.007   4.064
 9639WAT     H229160   0.549   3.911   4.147
 9640WAT      O29161   4.681   7.943   7.671
 9640WAT     H129162   4.603   7.958   7.732
 9640WAT     H229163   4.764   7.978   7.715
 9641WAT      O29164   6.125   7.288   2.029
 9641WAT     H129165   6.086   7.300   1.937
 9641WAT     H229166   6.163   7.375   2.061
 9642WAT      O29167   8.350   9.211   1.781
 9642WAT     H129168   8.321   9.231   1.687
 9642WAT     H229169   8.378   9.296   1.826
 9643WAT      O29170   0.211   3.417   8.290
 9643WAT     H129171   0.162   3.348   8.343
 9643WAT     H229172   0.155   3.500   8.283
 9644WAT      O29173   2.140   2.114   4.265
 9644WAT     H129174   2.144   2.119   4.165
 9644WAT     H229175   2.069   2.176   4.298
 9645WAT      O29176   6.317   5.505   3.060
 9645WAT     H129177   6.314   5.411   3.026
 9645WAT     H229178   6.224   5.536   3.082
 9646WAT      O29179   8.695   4.601   3.017
 9646WAT     H129180   8.756   4.604   3.095
 9646WAT     H229181   8.649   4.689   3.006
 9647WAT      O29182   5.522   2.131   7.057
 9647WAT     H129183   5.553   2.204   6.996
 9647WAT     H229184   5.423   2.140   7.072
 9648WAT      O29185   9.628   5.454   2.508
 9648WAT     H129186   9.723   5.448   2.478
 9648WAT     H229187   9.608   5.547   2.539
 9649WAT      O29188   6.588   7.846   2.435
 9649WAT     H129189   6.666   7.791   2.403
 9649WAT     H229190   6.608   7.881   2.526
 9650WAT      O29191   4.106   2.699   5.590
 9650WAT     H129192   4.045   2.622   5.604
 9650WAT     H229193   4.179   2.673   5.526
 9651WAT      O29194   0.492   3.891   7.301
 9651WAT     H129195   0.496   3.970   7.239
 9651WAT     H229196   0.520   3.809   7.252
 9652WAT      O29197   2.936   5.386   1.253
 9652WAT     H129198   2.899   5.308   1.303
 9652WAT     H229199   2.944   5.465   1.314
 9653WAT      O29200   6.481   8.651   8.934
 9653WAT     H129201   6.571   8.612   8.953
 9653WAT     H229202   6.487   8.750   8.933
 9654WAT      O29203   9.226   0.016   2.251
 9654WAT     H129204   9.265  -0.024   2.334
 9654WAT     H229205   9.239   0.115   2.253
 9655WAT      O29206   3.428   5.311   8.933
 9655WAT     H129207   3.436   5.215   8.961
 9655WAT     H229208   3.370   5.317   8.851
 9656WAT      O29209   3.520   4.481   5.954
 9656WAT     H129210   3.476   4.541   6.021
 9656WAT     H229211   3.620   4.487   5.965
 9657WAT      O29212   1.036   2.282   0.980
 9657WAT     H129213   1.060   2.187   0.958
 9657WAT     H229214   1.114   2.342   0.961
 9658WAT      O29215   6.722   7.028   0.954
 9658WAT     H129216   6.796   6.999   0.893
 9658WAT     H229217   6.760   7.083   1.028
 9659WAT      O29218   0.063   3.044   2.674
 9659WAT     H129219   0.095   2.958   2.635
 9659WAT     H229220   0.137   3.087   2.726
 9660WAT      O29221   3.127   7.710   2.177
 9660WAT     H129222   3.223   7.683   2.167
 9660WAT     H229223   3.092   7.675   2.264
 9661WAT      O29224   9.198   7.992   2.533
 9661WAT     H129225   9.206   8.042   2.446
 9661WAT     H229226   9.151   7.905   2.516
 9662WAT      O29227   8.164   6.576   9.606
 9662WAT     H129228   8.227   6.576   9.684
 9662WAT     H229229   8.216   6.592   9.522
 9663WAT      O29230   6.992   4.337   7.730
 9663WAT     H129231   7.007   4.405   7.801
 9663WAT     H229232   7.000   4.380   7.640
 9664WAT      O29233   9.367   8.075   3.446
 9664WAT     H129234   9.402   7.998   3.499
 9664WAT     H229235   9.297   8.123   3.500
 9665WAT      O29236   8.671   1.059   1.180
 9665WAT     H129237   8.630   1.043   1.091
 9665WAT     H229238   8.765   1.023   1.180
 9666WAT      O29239   9.379   3.629   0.097
 9666WAT     H129240   9.428   3.716   0.101
 9666WAT     H229241   9.329   3.623   0.011
 9667WAT      O29242   6.705   4.650   1.821
 9667WAT     H129243   6.674   4.723   1.760
 9667WAT     H229244   6.796   4.620   1.794
 9668WAT      O29245   7.073   4.045   6.022
 9668WAT     H129246   6.982   4.084   6.034
 9668WAT     H229247   7.073   3.980   5.947
 9669WAT      O29248   0.124   0.438   9.645
 9669WAT     H129249   0.109   0.520   9.700
 9669WAT     H229250   0.069   0.363   9.681
 9670WAT      O29251   9.792   6.765   5.286
 9670WAT     H129252   9.713   6.784   5.344
 9670WAT     H229253   9.806   6.841   5.223
 9671WAT      O29254   8.901   0.400   3.505
 9671WAT     H129255   8.995   0.433   3.503
 9671WAT     H229256   8.839   0.476   3.525
 9672WAT      O29257   8.453   0.838   3.706
 9672WAT     H129258   8.381   0.895   3.747
 9672WAT     H229259   8.532   0.835   3.766
 9673WAT      O29260   8.264   9.537   8.084
 9673WAT     H129261   8.331   9.611   8.098
 9673WAT     H229262   8.249   9.489   8.170
 9674WAT      O29263   8.417   2.412   4.643
 9674WAT     H129264   8.446   2.362   4.562
 9674WAT     H229265   8.497   2.432   4.700
 9675WAT      O29266   3.439   3.982   4.992
 9675WAT     H129267   3.508   4.004   4.922
 9675WAT     H229268   3.478   3.919   5.059
 9676WAT      O29269   8.332   8.655   9.012
 9676WAT     H129270   8.430   8.668   9.027
 9676WAT     H229271   8.283   8.738   9.040
 9677WAT      O29272   9.399   0.657   7.434
 9677WAT     H129273   9.300   0.663   7.439
 9677WAT     H229274   9.438   0.749   7.434
 9678WAT      O29275   6.104   0.691   5.043
 9678WAT     H129276   6.083   0.726   5.135
 9678WAT     H229277   6.020   0.667   4.996
 9679WAT      O29278   3.262   1.054   8.162
 9679WAT     H129279   3.259   0.988   8.087
 9679WAT     H229280   3.177   1.106   8.163
 9680WAT      O29281   4.634   8.885   9.292
 9680WAT     H129282   4.689   8.823   9.349
 9680WAT     H229283   4.655   8.869   9.196
 9681WAT      O29284   6.216   6.534   6.308
 9681WAT     H129285   6.134   6.560   6.359
 9681WAT     H229286   6.226   6.593   6.228
 9682WAT      O29287   4.766   8.333   5.744
 9682WAT     H129288   4.711   8.254   5.772
 9682WAT     H229289   4.778   8.331   5.645
 9683WAT      O29290   2.090   1.244   6.729
 9683WAT     H129291   2.186   1.268   6.718
 9683WAT     H229292   2.068   1.166   6.671
 9684WAT      O29293   9.664   8.842   6.987
 9684WAT     H129294   9.622   8.869   7.074
 9684WAT     H229295   9.751   8.890   6.976
 9685WAT      O29296   8.503   2.477   0.308
 9685WAT     H129297   8.603   2.486   0.309
 9685WAT     H229298   8.474   2.418   0.384
 9686WAT      O29299   5.862   2.640   1.496
 9686WAT     H129300   5.845   2.690   1.582
 9686WAT     H229301   5.951   2.666   1.460
 9687WAT      O29302   3.201   2.755   6.107
 9687WAT     H129303   3.231   2.724   6.017
 9687WAT     H229304   3.223   2.686   6.176
 9688WAT      O29305   7.228   1.149   8.797
 9688WAT     H129306   7.151   1.200   8.835
 9688WAT     H229307   7.313   1.195   8.819
 9689WAT      O29308   1.283   4.906   7.962
 9689WAT     H129309   1.372   4.915   7.917
 9689WAT     H229310   1.264   4.810   7.979
 9690WAT      O29311   3.479   0.061   4.903
 9690WAT     H129312   3.539  -0.019   4.891
 9690WAT     H229313   3.491   0.098   4.995
 9691WAT      O29314   4.381   5.623   2.651
 9691WAT     H129315   4.292   5.659   2.623
 9691WAT     H229316   4.392   5.637   2.750
 9692WAT      O29317   0.715   0.140   7.682
 9692WAT     H129318   0.682   0.050   7.653
 9692WAT     H229319   0.795   0.165   7.627
 9693WAT      O29320   5.237   1.430   1.966
 9693WAT     H129321   5.186   1.439   2.051
 9693WAT     H229322   5.271   1.336   1.957
 9694WAT      O29323   5.247   3.929   7.839
 9694WAT     H129324   5.199   3.957   7.922
 9694WAT     H229325   5.340   3.965   7.840
 9695WAT      O29326   6.624   0.550   3.771
 9695WAT     H129327   6.625   0.615   3.847
 9695WAT     H229328   6.589   0.462   3.803
 9696WAT      O29329   4.713   1.167   1.345
 9696WAT     H129330   4.622   1.128   1.361
 9696WAT     H229331   4.704   1.262   1.315
 9697WAT      O29332   7.782   3.399   3.538
 9697WAT     H129333   7.703   3.344   3.564
 9697WAT     H229334   7.753   3.474   3.478
 9698WAT      O29335   1.224   7.586   4.652
 9698WAT     H129336   1.260   7.657   4.591
 9698WAT     H229337   1.160   7.528   4.602
 9699WAT      O29338   8.212   0.440   8.671
 9699WAT     H129339   8.166   0.356   8.644
 9699WAT     H229340   8.187   0.463   8.765
 9700WAT      O29341   4.375   1.022   9.473
 9700WAT     H129342   4.351   1.012   9.570
 9700WAT     H229343   4.295   1.002   9.417
 9701WAT      O29344   4.226   1.359   0.190
 9701WAT     H129345   4.309   1.306   0.174
 9701WAT     H229346   4.175   1.319   0.267
 9702WAT      O29347   6.650   2.437   9.642
 9702WAT     H129348   6.740   2.466   9.675
 9702WAT     H229349   6.656   2.413   9.545
 9703WAT      O29350   4.971   7.322   2.610
 9703WAT     H129351   4.948   7.308   2.513
 9703WAT     H229352   4.934   7.409   2.641
 9704WAT      O29353   5.589   4.213   2.406
 9704WAT     H129354   5.631   4.126   2.385
 9704WAT     H229355   5.497   4.198   2.442
 9705WAT      O29356   5.910   7.597   9.351
 9705WAT     H129357   5.876   7.513   9.309
 9705WAT     H229358   5.961   7.574   9.434
 9706WAT      O29359   2.833   2.686   8.822
 9706WAT     H129360   2.782   2.682   8.736
 9706WAT     H229361   2.805   2.766   8.874
 9707WAT      O29362   8.935   4.716   0.406
 9707WAT     H129363   8.995   4.763   0.472
 9707WAT     H229364   8.980   4.633   0.373
 9708WAT      O29365   5.784   6.959   5.406
 9708WAT     H129366   5.692   6.992   5.426
 9708WAT     H229367   5.822   6.915   5.487
 9709WAT      O29368   0.636   7.506   0.759
 9709WAT     H129369   0.713   7.463   0.807
 9709WAT     H229370   0.665   7.593   0.720
 9710WAT      O29371   3.077   2.555   3.990
 9710WAT     H129372   2.989   2.523   3.956
 9710WAT     H229373   3.062   2.627   4.058
 9711WAT      O29374   7.245   3.265   3.461
 9711WAT     H129375   7.235   3.362   3.438
 9711WAT     H229376   7.214   3.209   3.385
 9712WAT      O29377   7.198   4.650   6.534
 9712WAT     H129378   7.117   4.676   6.482
 9712WAT     H229379   7.262   4.727   6.537
 9713WAT      O29380   8.472   0.996   1.395
 9713WAT     H129381   8.562   0.983   1.353
 9713WAT     H229382   8.433   1.083   1.364
 9714WAT      O29383   3.422   3.522   1.203
 9714WAT     H129384   3.345   3.462   1.223
 9714WAT     H229385   3.504   3.467   1.186
 9715WAT      O29386   4.045   2.630   0.049
 9715WAT     H129387   4.027   2.700   0.118
 9715WAT     H229388   3.996   2.651  -0.035
 9716WAT      O29389   8.040   7.883   0.059
 9716WAT     H129390   7.997   7.861   0.146
 9716WAT     H229391   8.101   7.809   0.032
 9717WAT      O29392   7.229   2.714   2.448
 9717WAT     H129393   7.286   2.743   2.371
 9717WAT     H229394   7.152   2.777   2.458
 9718WAT      O29395   6.508   8.319   6.887
 9718WAT     H129396   6.586   8.381   6.886
 9718WAT     H229397   6.424   8.371   6.870
 9719WAT      O29398   5.919   8.754   1.883
 9719WAT     H129399   5.966   8.677   1.927
 9719WAT     H229400   5.949   8.762   1.788
 9720WAT      O29401   6.255   9.365   4.437
 9720WAT     H129402   6.203   9.313   4.370
 9720WAT     H229403   6.337   9.313   4.463
 9721WAT      O29404   4.457   6.261   6.282
 9721WAT     H129405   4.551   6.229   6.293
 9721WAT     H229406   4.422   6.292   6.370
 9722WAT      O29407   0.871   9.595   4.126
 9722WAT     H129408   0.967   9.618   4.114
 9722WAT     H229409   0.836   9.553   4.042
 9723WAT      O29410   5.434   2.218   2.723
 9723WAT     H129411   5.473   2.131   2.693
 9723WAT     H229412   5.439   2.223   2.823
 9724WAT      O29413   0.955   8.503   6.668
 9724WAT     H129414   0.944   8.439   6.592
 9724WAT     H229415   1.047   8.495   6.705
 9725WAT      O29416   3.841   7.837   4.578
 9725WAT     H129417   3.747   7.870   4.569
 9725WAT     H229418   3.876   7.811   4.488
 9726WAT      O29419   1.485   9.103   0.186
 9726WAT     H129420   1.517   9.159   0.263
 9726WAT     H229421   1.541   9.122   0.105
 9727WAT      O29422   2.076   8.774   9.620
 9727WAT     H129423   2.008   8.748   9.689
 9727WAT     H229424   2.090   8.698   9.557
 9728WAT      O29425   8.909   7.174   5.567
 9728WAT     H129426   8.990   7.116   5.573
 9728WAT     H229427   8.922   7.241   5.494
 9729WAT      O29428   0.450   6.352   3.833
 9729WAT     H129429   0.460   6.420   3.905
 9729WAT     H229430   0.472   6.393   3.745
 9730WAT      O29431   9.233   0.480   2.888
 9730WAT     H129432   9.291   0.516   2.961
 9730WAT     H229433   9.140   0.470   2.922
 9731WAT      O29434   0.915   3.773   9.080
 9731WAT     H129435   0.945   3.850   9.023
 9731WAT     H229436   0.818   3.754   9.062
 9732WAT      O29437   3.388   3.150   0.137
 9732WAT     H129438   3.435   3.101   0.210
 9732WAT     H229439   3.351   3.236   0.173
 9733WAT      O29440   6.773   5.036   2.147
 9733WAT     H129441   6.691   4.989   2.180
 9733WAT     H229442   6.747   5.124   2.107
 9734WAT      O29443   0.715   5.203   8.978
 9734WAT     H129444   0.777   5.207   9.057
 9734WAT     H229445   0.768   5.182   8.896
 9735WAT      O29446   2.891   5.229   2.363
 9735WAT     H129447   2.820   5.198   2.426
 9735WAT     H229448   2.932   5.150   2.318
 9736WAT      O29449   7.598   2.591   8.662
 9736WAT     H129450   7.691   2.580   8.625
 9736WAT     H229451   7.532   2.589   8.586
 9737WAT      O29452   0.979   5.634   3.063
 9737WAT     H129453   1.026   5.651   2.977
 9737WAT     H229454   1.005   5.544   3.099
 9738WAT      O29455   7.469   7.986   4.840
 9738WAT     H129456   7.523   8.060   4.800
 9738WAT     H229457   7.456   7.914   4.772
 9739WAT      O29458   8.361   1.110   8.180
 9739WAT     H129459   8.309   1.117   8.265
 9739WAT     H229460   8.298   1.118   8.102
 9740WAT      O29461   9.700   3.641   2.867
 9740WAT     H129462   9.765   3.714   2.887
 9740WAT     H229463   9.738   3.580   2.798
 9741WAT      O29464   0.774   8.014   5.446
 9741WAT     H129465   0.698   8.015   5.512
 9741WAT     H229466   0.813   8.105   5.439
 9742WAT      O29467   9.818   6.620   0.871
 9742WAT     H129468   9.912   6.654   0.871
 9742WAT     H229469   9.819   6.520   0.859
 9743WAT      O29470   7.828   0.770   8.994
 9743WAT     H129471   7.729   0.760   8.999
 9743WAT     H229472   7.855   0.857   9.034
 9744WAT      O29473   2.569   6.598   3.680
 9744WAT     H129474   2.534   6.648   3.758
 9744WAT     H229475   2.668   6.590   3.687
 9745WAT      O29476   5.423   2.252   2.991
 9745WAT     H129477   5.483   2.332   2.984
 9745WAT     H229478   5.386   2.247   3.084
 9746WAT      O29479   0.313   2.013   6.799
 9746WAT     H129480   0.392   2.058   6.758
 9746WAT     H229481   0.265   2.077   6.858
 9747WAT      O29482   6.722   2.975   6.905
 9747WAT     H129483   6.820   2.991   6.901
 9747WAT     H229484   6.681   2.998   6.817
 9748WAT      O29485   1.147   8.477   1.703
 9748WAT     H129486   1.178   8.444   1.792
 9748WAT     H229487   1.226   8.494   1.645
 9749WAT      O29488   4.924   6.415   8.288
 9749WAT     H129489   4.921   6.457   8.197
 9749WAT     H229490   5.016   6.425   8.326
 9750WAT      O29491   8.088   6.260   7.491
 9750WAT     H129492   8.137   6.184   7.534
 9750WAT     H229493   7.989   6.248   7.505
 9751WAT      O29494   6.708   6.458   3.534
 9751WAT     H129495   6.626   6.418   3.492
 9751WAT     H229496   6.686   6.491   3.626
 9752WAT      O29497   4.787   1.004   6.464
 9752WAT     H129498   4.737   1.042   6.386
 9752WAT     H229499   4.885   1.010   6.447
 9753WAT      O29500   1.299   9.504   3.423
 9753WAT     H129501   1.258   9.487   3.334
 9753WAT     H229502   1.378   9.565   3.412
 9754WAT      O29503   4.338   4.884   8.141
 9754WAT     H129504   4.329   4.933   8.055
 9754WAT     H229505   4.266   4.815   8.148
 9755WAT      O29506   9.344   0.144   1.551
 9755WAT     H129507   9.356   0.045   1.542
 9755WAT     H229508   9.410   0.191   1.491
 9756WAT      O29509   4.380   1.763   5.022
 9756WAT     H129510   4.475   1.763   5.054
 9756WAT     H229511   4.331   1.685   5.063
 9757WAT      O29512   0.011   0.521   6.344
 9757WAT     H129513  -0.067   0.559   6.294
 9757WAT     H229514  -0.023   0.465   6.419
 9758WAT      O29515   2.736   6.924   1.582
 9758WAT     H129516   2.782   7.003   1.541
 9758WAT     H229517   2.746   6.845   1.522
 9759WAT      O29518   4.871   3.206   7.105
 9759WAT     H129519   4.788   3.152   7.095
 9759WAT     H229520   4.855   3.299   7.071
 9760WAT      O29521   2.750   1.160   2.030
 9760WAT     H129522   2.821   1.093   2.008
 9760WAT     H229523   2.790   1.234   2.084
 9761WAT      O29524   2.732   3.277   5.880
 9761WAT     H129525   2.818   3.233   5.906
 9761WAT     H229526   2.720   3.361   5.933
 9762WAT      O29527   4.934   0.967   3.288
 9762WAT     H129528   4.986   0.951   3.205
 9762WAT     H229529   4.987   1.024   3.351
 9763WAT      O29530   1.947   6.448   8.401
 9763WAT     H129531   2.033   6.494   8.424
 9763WAT     H229532   1.956   6.350   8.422
 9764WAT      O29533   7.477   2.388   1.633
 9764WAT     H129534   7.459   2.403   1.536
 9764WAT     H229535   7.565   2.428   1.658
 9765WAT      O29536   8.881   0.769   2.193
 9765WAT     H129537   8.854   0.707   2.119
 9765WAT     H229538   8.917   0.715   2.269
 9766WAT      O29539   9.276   4.332   4.394
 9766WAT     H129540   9.234   4.422   4.380
 9766WAT     H229541   9.322   4.304   4.310
 9767WAT      O29542   4.697   3.803   8.877
 9767WAT     H129543   4.607   3.818   8.835
 9767WAT     H229544   4.700   3.712   8.918
 9768WAT      O29545   2.062   4.322   5.605
 9768WAT     H129546   2.156   4.297   5.582
 9768WAT     H229547   2.006   4.239   5.611
 9769WAT      O29548   1.415   8.987   3.848
 9769WAT     H129549   1.442   9.016   3.756
 9769WAT     H229550   1.324   8.948   3.845
 9770WAT      O29551   0.446   5.914   0.499
 9770WAT     H129552   0.542   5.923   0.471
 9770WAT     H229553   0.422   5.817   0.505
 9771WAT      O29554   0.575   4.978   7.444
 9771WAT     H129555   0.606   4.890   7.481
 9771WAT     H229556   0.622   4.996   7.358
 9772WAT      O29557   4.231   2.817   5.261
 9772WAT     H129558   4.317   2.856   5.229
 9772WAT     H229559   4.248   2.724   5.296
 9773WAT      O29560   4.450   3.244   7.771
 9773WAT     H129561   4.532   3.271   7.721
 9773WAT     H229562   4.381   3.210   7.707
 9774WAT      O29563   8.355   9.018   7.279
 9774WAT     H129564   8.413   9.031   7.360
 9774WAT     H229565   8.277   8.960   7.303
 9775WAT      O29566   9.326   6.786   4.569
 9775WAT     H129567   9.261   6.858   4.544
 9775WAT     H229568   9.308   6.705   4.512
 9776WAT      O29569   7.805   1.990   7.582
 9776WAT     H129570   7.720   2.001   7.634
 9776WAT     H229571   7.796   2.034   7.493
 9777WAT      O29572   8.628   3.138   5.451
 9777WAT     H129573   8.612   3.229   5.490
 9777WAT     H229574   8.727   3.124   5.441
 9778WAT      O29575   3.932   7.928   2.308
 9778WAT     H129576   3.893   7.929   2.401
 9778WAT     H229577   3.897   8.006   2.256
 9779WAT      O29578   6.854   6.598   0.787
 9779WAT     H129579   6.895   6.628   0.701
 9779WAT     H229580   6.926   6.571   0.851
 9780WAT      O29581   4.997   8.331   4.937
 9780WAT     H129582   5.070   8.271   4.969
 9780WAT     H229583   4.929   8.278   4.887
 9781WAT      O29584   0.320   6.873   0.100
 9781WAT     H129585   0.229   6.911   0.109
 9781WAT     H229586   0.325   6.784   0.145
 9782WAT      O29587   1.135   5.082   1.179
 9782WAT     H129588   1.054   5.116   1.132
 9782WAT     H229589   1.201   5.050   1.111
 9783WAT      O29590   2.276   3.345   3.209
 9783WAT     H129591   2.252   3.260   3.256
 9783WAT     H229592   2.220   3.355   3.127
 9784WAT      O29593   5.657   5.587   2.095
 9784WAT     H129594   5.735   5.648   2.085
 9784WAT     H229595   5.672   5.504   2.041
 9785WAT      O29596   6.521   4.968   2.242
 9785WAT     H129597   6.453   5.038   2.263
 9785WAT     H229598   6.506   4.933   2.150
 9786WAT      O29599   3.980   5.061   1.432
 9786WAT     H129600   4.070   5.028   1.459
 9786WAT     H229601   3.956   5.024   1.342
 9787WAT      O29602   7.043   8.468   2.694
 9787WAT     H129603   7.026   8.378   2.732
 9787WAT     H229604   7.059   8.533   2.768
 9788WAT      O29605   2.561   9.619   7.863
 9788WAT     H129606   2.475   9.589   7.821
 9788WAT     H229607   2.557   9.604   7.962
 9789WAT      O29608   2.116   7.583   7.486
 9789WAT     H129609   2.017   7.584   7.503
 9789WAT     H229610   2.151   7.676   7.488
 9790WAT      O29611   6.401   1.833   9.486
 9790WAT     H129612   6.331   1.770   9.450
 9790WAT     H229613   6.387   1.844   9.584
 9791WAT      O29614   1.967   2.421   0.369
 9791WAT     H129615   1.955   2.336   0.420
 9791WAT     H229616   1.927   2.497   0.419
 9792WAT      O29617   5.553   5.225   9.600
 9792WAT     H129618   5.546   5.324   9.586
 9792WAT     H229619   5.520   5.202   9.692
 9793WAT      O29620   7.657   9.236   6.701
 9793WAT     H129621   7.692   9.327   6.682
 9793WAT     H229622   7.700   9.170   6.639
 9794WAT      O29623   8.589   8.752   3.733
 9794WAT     H129624   8.505   8.705   3.760
 9794WAT     H229625   8.618   8.814   3.807
 9795WAT      O29626   8.882   6.977   1.055
 9795WAT     H129627   8.882   6.952   0.958
 9795WAT     H229628   8.865   6.896   1.111
 9796WAT      O29629   0.835   1.308   6.867
 9796WAT     H129630   0.765   1.266   6.924
 9796WAT     H229631   0.799   1.324   6.776
 9797WAT      O29632   1.249   3.223   9.236
 9797WAT     H129633   1.220   3.187   9.147
 9797WAT     H229634   1.170   3.257   9.286
 9798WAT      O29635   6.279   3.854   7.459
 9798WAT     H129636   6.305   3.793   7.384
 9798WAT     H229637   6.361   3.889   7.503
 9799WAT      O29638   4.957   8.389   6.480
 9799WAT     H129639   5.005   8.435   6.555
 9799WAT     H229640   4.865   8.427   6.471
 9800WAT      O29641   6.211   3.623   4.791
 9800WAT     H129642   6.172   3.651   4.878
 9800WAT     H229643   6.292   3.566   4.807
 9801WAT      O29644   6.456   1.282   4.065
 9801WAT     H129645   6.400   1.342   4.122
 9801WAT     H229646   6.488   1.205   4.119
 9802WAT      O29647   3.952   1.940   8.712
 9802WAT     H129648   3.971   2.034   8.684
 9802WAT     H229649   3.861   1.935   8.752
 9803WAT      O29650   1.986   8.660   7.845
 9803WAT     H129651   1.891   8.643   7.822
 9803WAT     H229652   1.991   8.717   7.927
 9804WAT      O29653   9.177   7.522   2.296
 9804WAT     H129654   9.143   7.598   2.352
 9804WAT     H229655   9.149   7.435   2.337
 9805WAT      O29656   1.337   7.712   1.618
 9805WAT     H129657   1.246   7.735   1.651
 9805WAT     H229658   1.332   7.677   1.524
 9806WAT      O29659   0.516   6.024   2.010
 9806WAT     H129660   0.605   5.992   2.042
 9806WAT     H229661   0.446   5.999   2.077
 9807WAT      O29662   7.231   3.975   0.376
 9807WAT     H129663   7.320   4.013   0.351
 9807WAT     H229664   7.229   3.957   0.475
 9808WAT      O29665   8.509   0.454   2.969
 9808WAT     H129666   8.542   0.531   3.023
 9808WAT     H229667   8.588   0.403   2.933
 9809WAT      O29668   9.827   8.757   8.492
 9809WAT     H129669   9.897   8.826   8.511
 9809WAT     H229670   9.737   8.801   8.487
 9810WAT      O29671   5.105   0.616   1.268
 9810WAT     H129672   5.133   0.561   1.189
 9810WAT     H229673   5.166   0.597   1.345
 9811WAT      O29674   2.257   5.442   1.595
 9811WAT     H129675   2.211   5.530   1.585
 9811WAT     H229676   2.298   5.416   1.508
 9812WAT      O29677   4.086   7.856   8.566
 9812WAT     H129678   4.073   7.955   8.555
 9812WAT     H229679   4.157   7.840   8.635
 9813WAT      O29680   3.146   7.153   1.497
 9813WAT     H129681   3.164   7.243   1.536
 9813WAT     H229682   3.226   7.094   1.510
 9814WAT      O29683   3.331   6.937   9.265
 9814WAT     H129684   3.320   6.919   9.363
 9814WAT     H229685   3.337   7.035   9.250
 9815WAT      O29686   9.592   1.997   6.559
 9815WAT     H129687   9.511   1.974   6.614
 9815WAT     H229688   9.601   1.931   6.484
 9816WAT      O29689   9.131   4.043   9.214
 9816WAT     H129690   9.165   4.125   9.260
 9816WAT     H229691   9.038   4.024   9.244
 9817WAT      O29692   3.920   9.408   7.290
 9817WAT     H129693   3.827   9.433   7.317
 9817WAT     H229694   3.970   9.373   7.370
 9818WAT      O29695   6.830   4.208   0.462
 9818WAT     H129696   6.850   4.160   0.548
 9818WAT     H229697   6.894   4.180   0.392
 9819WAT      O29698   2.306   9.531   5.453
 9819WAT     H129699   2.333   9.626   5.467
 9819WAT     H229700   2.353   9.494   5.372
 9820WAT      O29701   7.512   9.720   5.587
 9820WAT     H129702   7.519   9.774   5.670
 9820WAT     H229703   7.597   9.729   5.534
 9821WAT      O29704   3.589   2.583   0.084
 9821WAT     H129705   3.620   2.495   0.120
 9821WAT     H229706   3.489   2.590   0.094
 9822WAT      O29707   9.885   9.064   8.237
 9822WAT     H129708   9.895   9.112   8.150
 9822WAT     H229709   9.933   9.113   8.309
 9823WAT      O29710   7.977   8.304   0.255
 9823WAT     H129711   7.893   8.256   0.226
 9823WAT     H229712   8.030   8.329   0.174
 9824WAT      O29713   2.919   4.667   6.062
 9824WAT     H129714   2.944   4.759   6.032
 9824WAT     H229715   2.947   4.601   5.993
 9825WAT      O29716   3.000   0.049   4.390
 9825WAT     H129717   2.934   0.034   4.316
 9825WAT     H229718   3.092   0.037   4.354
 9826WAT      O29719   5.561   6.392   0.888
 9826WAT     H129720   5.539   6.389   0.986
 9826WAT     H229721   5.586   6.486   0.863
 9827WAT      O29722   3.069   4.781   3.858
 9827WAT     H129723   3.163   4.805   3.885
 9827WAT     H229724   3.031   4.718   3.926
 9828WAT      O29725   1.161   6.482   7.539
 9828WAT     H129726   1.178   6.525   7.627
 9828WAT     H229727   1.240   6.496   7.479
 9829WAT      O29728   5.500   7.066   6.155
 9829WAT     H129729   5.433   7.119   6.206
 9829WAT     H229730   5.588   7.113   6.156
 9830WAT      O29731   1.623   9.568   2.329
 9830WAT     H129732   1.706   9.518   2.302
 9830WAT     H229733   1.569   9.589   2.248
 9831WAT      O29734   8.796   6.206   7.065
 9831WAT     H129735   8.755   6.139   7.004
 9831WAT     H229736   8.782   6.177   7.160
 9832WAT      O29737   9.431   2.577   8.001
 9832WAT     H129738   9.448   2.542   7.908
 9832WAT     H229739   9.342   2.624   8.003
 9833WAT      O29740   2.824   7.527   4.669
 9833WAT     H129741   2.909   7.580   4.668
 9833WAT     H229742   2.758   7.571   4.730
 9834WAT      O29743   4.394   6.468   4.699
 9834WAT     H129744   4.407   6.469   4.600
 9834WAT     H229745   4.298   6.488   4.720
 9835WAT      O29746   8.749   8.843   3.303
 9835WAT     H129747   8.704   8.896   3.375
 9835WAT     H229748   8.789   8.760   3.343
 9836WAT      O29749   0.739   1.672   2.630
 9836WAT     H129750   0.822   1.728   2.623
 9836WAT     H229751   0.659   1.732   2.629
 9837WAT      O29752   9.272   1.224   9.639
 9837WAT     H129753   9.202   1.252   9.573
 9837WAT     H229754   9.331   1.302   9.660
 9838WAT      O29755   7.754   5.709   2.740
 9838WAT     H129756   7.835   5.661   2.776
 9838WAT     H229757   7.679   5.644   2.730
 9839WAT      O29758   0.400   3.835   3.841
 9839WAT     H129759   0.415   3.753   3.895
 9839WAT     H229760   0.386   3.913   3.901
 9840WAT      O29761   8.603   0.714   8.705
 9840WAT     H129762   8.512   0.747   8.680
 9840WAT     H229763   8.654   0.692   8.622
 9841WAT      O29764   4.929   1.496   3.754
 9841WAT     H129765   4.977   1.474   3.669
 9841WAT     H229766   4.992   1.539   3.818
 9842WAT      O29767   0.509   0.542   4.476
 9842WAT     H129768   0.561   0.527   4.393
 9842WAT     H229769   0.513   0.461   4.534
 9843WAT      O29770   5.746   8.739   3.251
 9843WAT     H129771   5.741   8.639   3.254
 9843WAT     H229772   5.708   8.772   3.165
 9844WAT      O29773   5.699   5.686   5.051
 9844WAT     H129774   5.699   5.660   5.148
 9844WAT     H229775   5.606   5.682   5.015
 9845WAT      O29776   0.379   9.344   5.460
 9845WAT     H129777   0.285   9.359   5.429
 9845WAT     H229778   0.443   9.387   5.396
 9846WAT      O29779   5.180   0.903   9.548
 9846WAT     H129780   5.117   0.979   9.566
 9846WAT     H229781   5.231   0.882   9.631
 9847WAT      O29782   9.248   2.870   3.131
 9847WAT     H129783   9.153   2.899   3.144
 9847WAT     H229784   9.250   2.779   3.090
 9848WAT      O29785   1.937   2.804   9.580
 9848WAT     H129786   1.870   2.870   9.548
 9848WAT     H229787   2.025   2.821   9.535
 9849WAT      O29788   8.304   1.687   7.252
 9849WAT     H129789   8.401   1.714   7.255
 9849WAT     H229790   8.272   1.688   7.158
 9850WAT      O29791   7.127   4.214   5.689
 9850WAT     H129792   7.167   4.130   5.727
 9850WAT     H229793   7.056   4.247   5.751
 9851WAT      O29794   0.283   8.413   0.886
 9851WAT     H129795   0.332   8.329   0.862
 9851WAT     H229796   0.196   8.389   0.928
 9852WAT      O29797   7.019   0.604   8.298
 9852WAT     H129798   7.108   0.561   8.309
 9852WAT     H229799   6.968   0.600   8.384
 9853WAT      O29800   8.991   7.231   3.222
 9853WAT     H129801   9.025   7.196   3.134
 9853WAT     H229802   9.015   7.327   3.230
 9854WAT      O29803   7.336   5.248   0.745
 9854WAT     H129804   7.327   5.176   0.676
 9854WAT     H229805   7.368   5.332   0.700
 9855WAT      O29806   2.878   8.514   2.851
 9855WAT     H129807   2.899   8.498   2.755
 9855WAT     H229808   2.789   8.473   2.873
 9856WAT      O29809   2.225   3.252   0.353
 9856WAT     H129810   2.145   3.267   0.295
 9856WAT     H229811   2.206   3.177   0.417
 9857WAT      O29812   3.039   7.464   3.056
 9857WAT     H129813   3.117   7.407   3.029
 9857WAT     H229814   3.071   7.541   3.110
 9858WAT      O29815   8.014   2.963   6.901
 9858WAT     H129816   8.001   3.045   6.845
 9858WAT     H229817   8.104   2.923   6.881
 9859WAT      O29818   0.224   0.357   4.386
 9859WAT     H129819   0.234   0.386   4.481
 9859WAT     H229820   0.286   0.410   4.328
 9860WAT      O29821   9.591   6.000   4.030
 9860WAT     H129822   9.641   6.076   3.989
 9860WAT     H229823   9.529   5.961   3.962
 9861WAT      O29824   9.088   0.162   0.878
 9861WAT     H129825   9.093   0.261   0.893
 9861WAT     H229826   9.179   0.122   0.890
 9862WAT      O29827   2.249   8.459   2.386
 9862WAT     H129828   2.332   8.409   2.361
 9862WAT     H229829   2.275   8.549   2.421
 9863WAT      O29830   1.734   1.145   9.230
 9863WAT     H129831   1.635   1.151   9.222
 9863WAT     H229832   1.766   1.059   9.191
 9864WAT      O29833   4.213   9.217   5.958
 9864WAT     H129834   4.310   9.216   5.982
 9864WAT     H229835   4.162   9.159   6.022
 9865WAT      O29836   3.610   2.275   7.013
 9865WAT     H129837   3.664   2.263   6.931
 9865WAT     H229838   3.589   2.186   7.053
 9866WAT      O29839   5.603   3.169   3.486
 9866WAT     H129840   5.684   3.187   3.542
 9866WAT     H229841   5.524   3.155   3.546
 9867WAT      O29842   1.121   0.937   6.037
 9867WAT     H129843   1.209   0.984   6.033
 9867WAT     H229844   1.047   1.004   6.042
 9868WAT      O29845   0.870   2.781   9.346
 9868WAT     H129846   0.967   2.806   9.348
 9868WAT     H229847   0.819   2.837   9.410
 9869WAT      O29848   2.201   8.829   2.041
 9869WAT     H129849   2.106   8.820   2.012
 9869WAT     H229850   2.254   8.752   2.004
 9870WAT      O29851   0.868   1.289   3.952
 9870WAT     H129852   0.854   1.381   3.986
 9870WAT     H229853   0.830   1.223   4.018
 9871WAT      O29854   2.265   0.926   2.905
 9871WAT     H129855   2.309   0.982   2.834
 9871WAT     H229856   2.243   0.836   2.867
 9872WAT      O29857   8.576   7.225   3.805
 9872WAT     H129858   8.553   7.196   3.898
 9872WAT     H229859   8.647   7.165   3.768
 9873WAT      O29860   5.293   4.094   8.935
 9873WAT     H129861   5.382   4.116   8.976
 9873WAT     H229862   5.221   4.146   8.980
 9874WAT      O29863   7.124   9.710   6.697
 9874WAT     H129864   7.211   9.733   6.740
 9874WAT     H229865   7.090   9.623   6.733
 9875WAT      O29866   4.671   7.680   1.833
 9875WAT     H129867   4.694   7.594   1.789
 9875WAT     H229868   4.709   7.682   1.925
 9876WAT      O29869   8.864   1.870   3.117
 9876WAT     H129870   8.889   1.949   3.062
 9876WAT     H229871   8.944   1.837   3.167
 9877WAT      O29872   1.938   1.123   9.612
 9877WAT     H129873   1.956   1.171   9.527
 9877WAT     H229874   1.997   1.159   9.685
 9878WAT      O29875   1.095   1.941   2.105
 9878WAT     H129876   1.126   1.856   2.061
 9878WAT     H229877   1.017   1.921   2.165
 9879WAT      O29878   6.364   4.223   6.970
 9879WAT     H129879   6.280   4.180   6.936
 9879WAT     H229880   6.434   4.221   6.899
 9880WAT      O29881   2.687   7.701   8.310
 9880WAT     H129882   2.727   7.688   8.220
 9880WAT     H229883   2.675   7.612   8.354
 9881WAT      O29884   5.349   0.495   6.942
 9881WAT     H129885   5.277   0.480   6.874
 9881WAT     H229886   5.320   0.567   7.005
 9882WAT      O29887   5.568   2.956   7.037
 9882WAT     H129888   5.483   2.929   7.081
 9882WAT     H229889   5.606   2.878   6.987
 9883WAT      O29890   9.443   7.899   1.527
 9883WAT     H129891   9.355   7.931   1.492
 9883WAT     H229892   9.487   7.840   1.458
 9884WAT      O29893   1.475   1.738   6.959
 9884WAT     H129894   1.464   1.837   6.951
 9884WAT     H229895   1.397   1.701   7.010
 9885WAT      O29896   1.230   7.640   3.967
 9885WAT     H129897   1.278   7.564   4.011
 9885WAT     H229898   1.291   7.719   3.959
 9886WAT      O29899   1.080   1.664   8.519
 9886WAT     H129900   1.153   1.715   8.475
 9886WAT     H229901   0.996   1.672   8.465
 9887WAT      O29902   7.301   4.329   5.238
 9887WAT     H129903   7.247   4.264   5.292
 9887WAT     H229904   7.388   4.286   5.212
 9888WAT      O29905   6.473   6.442   9.264
 9888WAT     H129906   6.512   6.358   9.226
 9888WAT     H229907   6.543   6.513   9.265
 9889WAT      O29908   0.587   2.728   8.524
 9889WAT     H129909   0.568   2.765   8.433
 9889WAT     H229910   0.568   2.630   8.524
 9890WAT      O29911   6.522   5.028   7.205
 9890WAT     H129912   6.423   5.030   7.189
 9890WAT     H229913   6.547   4.941   7.245
 9891WAT      O29914   8.513   3.920   0.282
 9891WAT     H129915   8.568   3.957   0.207
 9891WAT     H229916   8.510   3.987   0.357
 9892WAT      O29917   9.185   9.364   0.620
 9892WAT     H129918   9.122   9.428   0.665
 9892WAT     H229919   9.241   9.319   0.689
 9893WAT      O29920   3.854   7.769   9.396
 9893WAT     H129921   3.754   7.760   9.390
 9893WAT     H229922   3.891   7.792   9.306
 9894WAT      O29923   0.983   7.825   4.389
 9894WAT     H129924   1.038   7.881   4.450
 9894WAT     H229925   1.041   7.752   4.350
 9895WAT      O29926   3.048   9.804   2.401
 9895WAT     H129927   3.029   9.867   2.475
 9895WAT     H229928   2.982   9.729   2.403
 9896WAT      O29929   6.786   7.647   7.725
 9896WAT     H129930   6.844   7.641   7.643
 9896WAT     H229931   6.755   7.555   7.750
 9897WAT      O29932   4.440   1.922   9.756
 9897WAT     H129933   4.434   1.823   9.740
 9897WAT     H229934   4.365   1.950   9.816
 9898WAT      O29935   2.160   2.801   2.035
 9898WAT     H129936   2.069   2.817   2.073
 9898WAT     H229937   2.156   2.806   1.935
 9899WAT      O29938   2.288   0.121   5.593
 9899WAT     H129939   2.199   0.123   5.547
 9899WAT     H229940   2.323   0.214   5.600
 9900WAT      O29941   9.281   6.499   0.903
 9900WAT     H129942   9.211   6.430   0.924
 9900WAT     H229943   9.284   6.566   0.977
 9901WAT      O29944   0.857   0.460   4.128
 9901WAT     H129945   0.924   0.394   4.096
 9901WAT     H229946   0.882   0.491   4.220
 9902WAT      O29947   4.040   8.250   4.691
 9902WAT     H129948   4.098   8.308   4.633
 9902WAT     H229949   3.945   8.279   4.682
 9903WAT      O29950   1.877   9.687   6.987
 9903WAT     H129951   1.898   9.651   6.896
 9903WAT     H229952   1.940   9.649   7.054
 9904WAT      O29953   3.477   8.134   2.611
 9904WAT     H129954   3.424   8.049   2.609
 9904WAT     H229955   3.487   8.165   2.705
 9905WAT      O29956   8.941   1.748   3.363
 9905WAT     H129957   8.945   1.652   3.392
 9905WAT     H229958   9.030   1.775   3.327
 9906WAT      O29959   0.729   1.781   1.666
 9906WAT     H129960   0.786   1.844   1.614
 9906WAT     H229961   0.633   1.797   1.645
 9907WAT      O29962   3.723   5.082   9.511
 9907WAT     H129963   3.809   5.131   9.524
 9907WAT     H229964   3.674   5.075   9.598
 9908WAT      O29965   3.103   6.929   4.298
 9908WAT     H129966   3.144   6.895   4.383
 9908WAT     H229967   3.004   6.937   4.309
 9909WAT      O29968   3.793   5.692   7.701
 9909WAT     H129969   3.786   5.685   7.602
 9909WAT     H229970   3.793   5.789   7.727
 9910WAT      O29971   9.884   1.822   9.565
 9910WAT     H129972   9.977   1.798   9.593
 9910WAT     H229973   9.839   1.742   9.525
 9911WAT      O29974   3.162   5.771   1.135
 9911WAT     H129975   3.199   5.753   1.044
 9911WAT     H229976   3.063   5.760   1.135
 9912WAT      O29977   8.939   0.039   8.085
 9912WAT     H129978   8.923   0.035   7.986
 9912WAT     H229979   8.933  -0.052   8.124
 9913WAT      O29980   6.345   0.371   5.335
 9913WAT     H129981   6.444   0.368   5.323
 9913WAT     H229982   6.302   0.413   5.255
 9914WAT      O29983   3.954   7.424   0.098
 9914WAT     H129984   4.025   7.494   0.096
 9914WAT     H229985   3.906   7.422   0.011
 9915WAT      O29986   5.869   0.024   4.979
 9915WAT     H129987   5.881  -0.065   5.023
 9915WAT     H229988   5.773   0.052   4.985
 9916WAT      O29989   3.506   3.380   3.199
 9916WAT     H129990   3.528   3.404   3.294
 9916WAT     H229991   3.589   3.352   3.152
 9917WAT      O29992   0.629   1.574   5.546
 9917WAT     H129993   0.703   1.608   5.488
 9917WAT     H229994   0.568   1.650   5.569
 9918WAT      O29995   0.963   9.569   6.800
 9918WAT     H129996   1.032   9.503   6.770
 9918WAT     H229997   0.972   9.585   6.898
 9919WAT      O29998   7.042   0.946   4.634
 9919WAT     H129999   7.094   1.031   4.635
 9919WAT     H230000   7.055   0.898   4.721
 9920WAT      O30001   4.773   0.720   1.735
 9920WAT     H130002   4.801   0.763   1.649
 9920WAT     H230003   4.847   0.661   1.769
 9921WAT      O30004   6.797   1.542   2.978
 9921WAT     H130005   6.875   1.519   3.036
 9921WAT     H230006   6.748   1.458   2.953
 9922WAT      O30007   9.237   9.122   1.395
 9922WAT     H130008   9.207   9.121   1.490
 9922WAT     H230009   9.333   9.153   1.391
 9923WAT      O30010   5.672   8.832   2.652
 9923WAT     H130011   5.616   8.801   2.576
 9923WAT     H230012   5.660   8.770   2.730
 9924WAT      O30013   5.042   2.565   2.219
 9924WAT     H130014   5.086   2.629   2.282
 9924WAT     H230015   5.105   2.490   2.197
 9925WAT      O30016   8.646   1.110   3.626
 9925WAT     H130017   8.565   1.103   3.568
 9925WAT     H230018   8.661   1.023   3.674
 9926WAT      O30019   5.939   9.244   6.300
 9926WAT     H130020   5.946   9.171   6.232
 9926WAT     H230021   5.887   9.211   6.379
 9927WAT      O30022   0.159   9.318   8.919
 9927WAT     H130023   0.126   9.282   9.006
 9927WAT     H230024   0.169   9.417   8.925
 9928WAT      O30025   6.660   3.199   6.088
 9928WAT     H130026   6.566   3.171   6.068
 9928WAT     H230027   6.723   3.127   6.057
 9929WAT      O30028   3.535   2.164   1.709
 9929WAT     H130029   3.451   2.170   1.656
 9929WAT     H230030   3.519   2.196   1.802
 9930WAT      O30031   9.461   0.310   7.647
 9930WAT     H130032   9.553   0.349   7.653
 9930WAT     H230033   9.409   0.359   7.578
 9931WAT      O30034   6.238   1.521   6.230
 9931WAT     H130035   6.165   1.459   6.201
 9931WAT     H230036   6.228   1.542   6.327
 9932WAT      O30037   6.443   8.750   7.350
 9932WAT     H130038   6.414   8.818   7.418
 9932WAT     H230039   6.379   8.751   7.273
 9933WAT      O30040   1.632   0.806   3.995
 9933WAT     H130041   1.588   0.748   3.926
 9933WAT     H230042   1.719   0.841   3.959
 9934WAT      O30043   7.814   0.784   4.391
 9934WAT     H130044   7.865   0.869   4.406
 9934WAT     H230045   7.849   0.739   4.308
 9935WAT      O30046   6.644   3.413   5.770
 9935WAT     H130047   6.550   3.444   5.786
 9935WAT     H230048   6.678   3.367   5.852
 9936WAT      O30049   2.262   5.548   8.537
 9936WAT     H130050   2.280   5.524   8.632
 9936WAT     H230051   2.251   5.647   8.529
 9937WAT      O30052   4.520   4.171   1.989
 9937WAT     H130053   4.449   4.120   2.038
 9937WAT     H230054   4.610   4.133   2.013
 9938WAT      O30055   6.336   1.149   0.852
 9938WAT     H130056   6.346   1.220   0.921
 9938WAT     H230057   6.310   1.063   0.896
 9939WAT      O30058   1.754   3.777   4.206
 9939WAT     H130059   1.665   3.822   4.197
 9939WAT     H230060   1.752   3.689   4.158
 9940WAT      O30061   3.618   7.522   5.935
 9940WAT     H130062   3.620   7.450   5.867
 9940WAT     H230063   3.680   7.596   5.907
 9941WAT      O30064   0.091   5.753   6.129
 9941WAT     H130065   0.088   5.700   6.214
 9941WAT     H230066   0.014   5.728   6.072
 9942WAT      O30067   7.498   6.658   0.214
 9942WAT     H130068   7.503   6.591   0.140
 9942WAT     H230069   7.521   6.748   0.179
 9943WAT      O30070   0.471   1.955   4.887
 9943WAT     H130071   0.474   2.052   4.863
 9943WAT     H230072   0.558   1.928   4.929
 9944WAT      O30073   6.377   7.409   0.738
 9944WAT     H130074   6.323   7.444   0.814
 9944WAT     H230075   6.333   7.327   0.701
 9945WAT      O30076   5.848   8.477   8.945
 9945WAT     H130077   5.798   8.556   8.912
 9945WAT     H230078   5.886   8.497   9.036
 9946WAT      O30079   9.135   1.199   7.684
 9946WAT     H130080   9.228   1.222   7.714
 9946WAT     H230081   9.074   1.197   7.763
 9947WAT      O30082   2.331   1.241   7.201
 9947WAT     H130083   2.349   1.195   7.114
 9947WAT     H230084   2.259   1.310   7.188
 9948WAT      O30085   7.067   8.828   2.159
 9948WAT     H130086   7.083   8.924   2.181
 9948WAT     H230087   6.979   8.818   2.112
 9949WAT      O30088   5.882   3.606   4.496
 9949WAT     H130089   5.949   3.623   4.424
 9949WAT     H230090   5.812   3.677   4.493
 9950WAT      O30091   5.967   0.303   9.435
 9950WAT     H130092   5.960   0.339   9.528
 9950WAT     H230093   5.922   0.366   9.371
 9951WAT      O30094   3.124   9.269   8.685
 9951WAT     H130095   3.223   9.285   8.686
 9951WAT     H230096   3.098   9.220   8.769
 9952WAT      O30097   3.349   9.613   4.974
 9952WAT     H130098   3.347   9.710   4.948
 9952WAT     H230099   3.386   9.604   5.066
 9953WAT      O30100   9.037   0.319   4.989
 9953WAT     H130101   8.982   0.392   4.949
 9953WAT     H230102   9.040   0.330   5.089
 9954WAT      O30103   8.952   5.618   1.009
 9954WAT     H130104   8.961   5.717   1.004
 9954WAT     H230105   9.031   5.575   0.964
 9955WAT      O30106   9.388   2.446   1.483
 9955WAT     H130107   9.333   2.414   1.560
 9955WAT     H230108   9.423   2.537   1.503
 9956WAT      O30109   4.638   4.114   2.364
 9956WAT     H130110   4.604   4.032   2.318
 9956WAT     H230111   4.737   4.112   2.368
 9957WAT      O30112   3.392   8.166   6.903
 9957WAT     H130113   3.352   8.251   6.870
 9957WAT     H230114   3.419   8.110   6.825
 9958WAT      O30115   4.904   9.137   1.014
 9958WAT     H130116   4.896   9.126   1.113
 9958WAT     H230117   4.967   9.212   0.994
 9959WAT      O30118   9.691   5.889   3.121
 9959WAT     H130119   9.775   5.940   3.102
 9959WAT     H230120   9.634   5.942   3.184
 9960WAT      O30121   7.382   9.716   1.481
 9960WAT     H130122   7.426   9.652   1.544
 9960WAT     H230123   7.307   9.763   1.527
 9961WAT      O30124   8.894   5.518   7.356
 9961WAT     H130125   8.844   5.435   7.379
 9961WAT     H230126   8.939   5.553   7.438
 9962WAT      O30127   5.473   5.409   8.002
 9962WAT     H130128   5.548   5.429   7.939
 9962WAT     H230129   5.399   5.475   7.987
 9963WAT      O30130   6.987   8.490   0.721
 9963WAT     H130131   6.930   8.451   0.793
 9963WAT     H230132   6.938   8.485   0.634
 9964WAT      O30133   9.780   6.860   4.555
 9964WAT     H130134   9.687   6.896   4.548
 9964WAT     H230135   9.825   6.899   4.636
 9965WAT      O30136   7.914   6.797   8.252
 9965WAT     H130137   8.001   6.823   8.295
 9965WAT     H230138   7.912   6.831   8.158
 9966WAT      O30139   3.302   2.532   9.049
 9966WAT     H130140   3.323   2.472   8.972
 9966WAT     H230141   3.210   2.569   9.038
 9967WAT      O30142   7.057   1.031   6.283
 9967WAT     H130143   7.015   0.949   6.322
 9967WAT     H230144   7.026   1.042   6.189
 9968WAT      O30145   8.783   3.015   7.683
 9968WAT     H130146   8.873   2.976   7.665
 9968WAT     H230147   8.721   2.993   7.608
 9969WAT      O30148   0.212   1.354   8.543
 9969WAT     H130149   0.202   1.254   8.539
 9969WAT     H230150   0.122   1.396   8.528
 9970WAT      O30151   7.470   1.160   7.891
 9970WAT     H130152   7.403   1.126   7.957
 9970WAT     H230153   7.525   1.231   7.933
 9971WAT      O30154   0.631   2.904   0.197
 9971WAT     H130155   0.636   2.938   0.290
 9971WAT     H230156   0.708   2.843   0.179
 9972WAT      O30157   7.923   0.425   3.582
 9972WAT     H130158   7.993   0.491   3.609
 9972WAT     H230159   7.874   0.393   3.663
 9973WAT      O30160   9.317   1.696   7.349
 9973WAT     H130161   9.244   1.672   7.285
 9973WAT     H230162   9.281   1.759   7.418
 9974WAT      O30163   2.278   1.015   9.442
 9974WAT     H130164   2.215   1.060   9.505
 9974WAT     H230165   2.253   0.919   9.432
 9975WAT      O30166   4.977   2.242   2.328
 9975WAT     H130167   5.034   2.180   2.381
 9975WAT     H230168   4.903   2.191   2.284
 9976WAT      O30169   9.534   4.346   5.540
 9976WAT     H130170   9.523   4.399   5.624
 9976WAT     H230171   9.507   4.251   5.556
 9977WAT      O30172   1.393   8.736   0.015
 9977WAT     H130173   1.466   8.673  -0.010
 9977WAT     H230174   1.401   8.819  -0.040
 9978WAT      O30175   6.201   4.720   0.520
 9978WAT     H130176   6.223   4.651   0.451
 9978WAT     H230177   6.102   4.732   0.525
 9979WAT      O30178   4.983   2.305   9.414
 9979WAT     H130179   4.980   2.402   9.441
 9979WAT     H230180   4.932   2.251   9.480
 9980WAT      O30181   3.575   3.114   3.413
 9980WAT     H130182   3.638   3.051   3.458
 9980WAT     H230183   3.525   3.065   3.341
 9981WAT      O30184   4.443   3.289   2.793
 9981WAT     H130185   4.541   3.306   2.780
 9981WAT     H230186   4.391   3.361   2.748
 9982WAT      O30187   4.270   0.710   1.622
 9982WAT     H130188   4.360   0.679   1.650
 9982WAT     H230189   4.276   0.754   1.532
 9983WAT      O30190   7.637   8.515   8.306
 9983WAT     H130191   7.642   8.492   8.403
 9983WAT     H230192   7.704   8.459   8.255
 9984WAT      O30193   5.911   5.572   8.686
 9984WAT     H130194   5.844   5.506   8.653
 9984WAT     H230195   5.981   5.587   8.616
 9985WAT      O30196   6.094   8.916   2.087
 9985WAT     H130197   6.138   8.901   1.999
 9985WAT     H230198   6.103   8.833   2.143
 9986WAT      O30199   3.576   9.457   0.475
 9986WAT     H130200   3.565   9.405   0.560
 9986WAT     H230201   3.665   9.436   0.434
 9987WAT      O30202   0.929   4.769   6.682
 9987WAT     H130203   0.935   4.731   6.590
 9987WAT     H230204   0.922   4.695   6.749
 9988WAT      O30205   7.903   5.342   8.263
 9988WAT     H130206   7.827   5.390   8.219
 9988WAT     H230207   7.987   5.356   8.211
 9989WAT      O30208   7.979   9.559   2.085
 9989WAT     H130209   8.024   9.541   2.173
 9989WAT     H230210   8.035   9.623   2.032
 9990WAT      O30211   3.648   7.861   5.200
 9990WAT     H130212   3.633   7.809   5.116
 9990WAT     H230213   3.625   7.957   5.185
 9991WAT      O30214   7.422   9.599   3.797
 9991WAT     H130215   7.324   9.580   3.808
 9991WAT     H230216   7.475   9.526   3.840
 9992WAT      O30217   2.468   4.624   6.683
 9992WAT     H130218   2.471   4.550   6.617
 9992WAT     H230219   2.552   4.625   6.737
 9993WAT      O30220   7.832   0.111   5.127
 9993WAT     H130221   7.887   0.067   5.056
 9993WAT     H230222   7.891   0.147   5.199
 9994WAT      O30223   0.372   2.093   9.248
 9994WAT     H130224   0.352   2.082   9.346
 9994WAT     H230225   0.464   2.060   9.230
 9995WAT      O30226   9.586   6.199   6.453
 9995WAT     H130227   9.655   6.263   6.418
 9995WAT     H230228   9.520   6.249   6.509
 9996WAT      O30229   6.195   8.747   2.964
 9996WAT     H130230   6.185   8.842   2.933
 9996WAT     H230231   6.143   8.734   3.048
 9997WAT      O30232   2.764   7.388   1.893
 9997WAT     H130233   2.783   7.378   1.990
 9997WAT     H230234   2.826   7.329   1.841
 9998WAT      O30235   3.653   0.952   2.298
 9998WAT     H130236   3.606   1.011   2.232
 9998WAT     H230237   3.613   0.966   2.389
 9999WAT      O30238   8.440   4.146   4.840
 9999WAT     H130239   8.482   4.207   4.907
 9999WAT     H230240   8.511   4.087   4.800
10000WAT      O30241   4.292   7.246   7.999
10000WAT     H130242   4.334   7.317   7.944
10000WAT     H230243   4.203   7.222   7.960
10001WAT      O30244   9.697   9.622   8.975
10001WAT     H130245   9.662   9.620   9.068
10001WAT     H230246   9.797   9.610   8.976
10002WAT      O30247   7.175   3.527   3.417
10002WAT     H130248   7.153   3.589   3.492
10002WAT     H230249   7.092   3.510   3.363
10003WAT      O30250   5.186   1.212   9.760
10003WAT     H130251   5.197   1.138   9.826
10003WAT     H230252   5.115   1.187   9.693
10004WAT      O30253   6.642   3.308   6.748
10004WAT     H130254   6.653   3.217   6.707
10004WAT     H230255   6.545   3.334   6.746
10005WAT      O30256   5.704   9.521   8.442
10005WAT     H130257   5.618   9.573   8.445
10005WAT     H230258   5.700   9.454   8.368
10006WAT      O30259   8.727   8.729   8.188
10006WAT     H130260   8.638   8.708   8.229
10006WAT     H230261   8.733   8.684   8.098
10007WAT      O30262   0.060   1.009   7.769
10007WAT     H130263   0.056   0.957   7.683
10007WAT     H230264   0.020   0.955   7.843
10008WAT      O30265   7.699   3.371   5.656
10008WAT     H130266   7.771   3.367   5.725
10008WAT     H230267   7.651   3.458   5.662
10009WAT      O30268   6.671   8.480   3.303
10009WAT     H130269   6.702   8.573   3.283
10009WAT     H230270   6.676   8.463   3.401
10010WAT      O30271   1.633   3.501   3.414
10010WAT     H130272   1.582   3.450   3.345
10010WAT     H230273   1.570   3.558   3.467
10011WAT      O30274   6.353   9.143   5.515
10011WAT     H130275   6.434   9.094   5.483
10011WAT     H230276   6.271   9.088   5.497
10012WAT      O30277   1.445   9.194   4.700
10012WAT     H130278   1.436   9.101   4.664
10012WAT     H230279   1.362   9.219   4.751
10013WAT      O30280   1.503   3.168   2.530
10013WAT     H130281   1.560   3.159   2.612
10013WAT     H230282   1.412   3.199   2.556
10014WAT      O30283   5.916   5.329   0.760
10014WAT     H130284   5.864   5.257   0.806
10014WAT     H230285   5.863   5.414   0.761
10015WAT      O30286   2.398   7.926   8.677
10015WAT     H130287   2.381   7.972   8.764
10015WAT     H230288   2.494   7.899   8.671
10016WAT      O30289   8.766   0.642   9.162
10016WAT     H130290   8.776   0.739   9.185
10016WAT     H230291   8.710   0.633   9.080
10017WAT      O30292   9.171   1.556   1.361
10017WAT     H130293   9.184   1.607   1.276
10017WAT     H230294   9.258   1.517   1.391
10018WAT      O30295   3.399   3.185   1.921
10018WAT     H130296   3.371   3.271   1.878
10018WAT     H230297   3.490   3.196   1.961
10019WAT      O30298   6.569   5.556   5.646
10019WAT     H130299   6.567   5.465   5.688
10019WAT     H230300   6.481   5.601   5.661
10020WAT      O30301   8.342   1.994   5.392
10020WAT     H130302   8.339   1.919   5.457
10020WAT     H230303   8.436   2.027   5.383
10021WAT      O30304   4.592   6.282   1.103
10021WAT     H130305   4.645   6.346   1.048
10021WAT     H230306   4.514   6.249   1.049
10022WAT      O30307   3.348   2.987   9.183
10022WAT     H130308   3.296   3.048   9.242
10022WAT     H230309   3.299   2.975   9.096
10023WAT      O30310   2.276   8.397   5.055
10023WAT     H130311   2.278   8.300   5.077
10023WAT     H230312   2.367   8.427   5.025
10024WAT      O30313   6.033   3.071   8.142
10024WAT     H130314   5.940   3.035   8.139
10024WAT     H230315   6.080   3.035   8.223
10025WAT      O30316   6.675   8.051   1.273
10025WAT     H130317   6.694   8.041   1.371
10025WAT     H230318   6.760   8.075   1.225
10026WAT      O30319   6.124   1.096   3.100
10026WAT     H130320   6.223   1.108   3.102
10026WAT     H230321   6.085   1.125   3.187
10027WAT      O30322   0.436   3.952   0.397
10027WAT     H130323   0.404   4.035   0.443
10027WAT     H230324   0.513   3.974   0.338
10028WAT      O30325   6.560   1.238   1.765
10028WAT     H130326   6.511   1.191   1.692
10028WAT     H230327   6.565   1.336   1.743
10029WAT      O30328   4.399   8.800   7.098
10029WAT     H130329   4.423   8.728   7.163
10029WAT     H230330   4.330   8.860   7.138
10030WAT      O30331   4.472   7.110   6.418
10030WAT     H130332   4.475   7.129   6.320
10030WAT     H230333   4.455   7.195   6.468
10031WAT      O30334   8.722   6.153   7.401
10031WAT     H130335   8.800   6.099   7.369
10031WAT     H230336   8.739   6.183   7.495
10032WAT      O30337   8.959   6.200   4.503
10032WAT     H130338   8.980   6.130   4.435
10032WAT     H230339   8.877   6.174   4.553
10033WAT      O30340   2.917   8.151   7.443
10033WAT     H130341   2.914   8.251   7.449
10033WAT     H230342   3.011   8.122   7.428
10034WAT      O30343   7.942   1.464   6.165
10034WAT     H130344   8.024   1.521   6.162
10034WAT     H230345   7.870   1.506   6.111
10035WAT      O30346   5.893   9.315   9.345
10035WAT     H130347   5.957   9.252   9.300
10035WAT     H230348   5.812   9.264   9.374
10036WAT      O30349   4.340   8.812   9.430
10036WAT     H130350   4.264   8.769   9.382
10036WAT     H230351   4.425   8.793   9.381
10037WAT      O30352   1.310   4.393   8.798
10037WAT     H130353   1.309   4.307   8.849
10037WAT     H230354   1.219   4.434   8.800
10038WAT      O30355   0.519   7.407   2.375
10038WAT     H130356   0.480   7.498   2.359
10038WAT     H230357   0.595   7.392   2.311
10039WAT      O30358   5.962   0.872   0.062
10039WAT     H130359   5.887   0.900   0.122
10039WAT     H230360   5.939   0.895  -0.032
10040WAT      O30361   5.102   5.073   9.592
10040WAT     H130362   5.153   5.132   9.655
10040WAT     H230363   5.005   5.076   9.614
10041WAT      O30364   7.843   5.837   9.708
10041WAT     H130365   7.750   5.803   9.697
10041WAT     H230366   7.848   5.893   9.790
10042WAT      O30367   0.030   2.896   9.666
10042WAT     H130368   0.085   2.823   9.626
10042WAT     H230369   0.052   2.982   9.621
10043WAT      O30370   4.439   3.427   5.675
10043WAT     H130371   4.385   3.493   5.728
10043WAT     H230372   4.379   3.382   5.608
10044WAT      O30373   7.715   0.468   2.226
10044WAT     H130374   7.739   0.371   2.218
10044WAT     H230375   7.616   0.477   2.233
10045WAT      O30376   6.504   6.653   6.352
10045WAT     H130377   6.449   6.570   6.363
10045WAT     H230378   6.504   6.681   6.257
10046WAT      O30379   0.586   2.823   7.644
10046WAT     H130380   0.584   2.779   7.734
10046WAT     H230381   0.535   2.909   7.648
10047WAT      O30382   7.513   4.206   4.822
10047WAT     H130383   7.492   4.136   4.890
10047WAT     H230384   7.452   4.195   4.743
10048WAT      O30385   7.547   1.668   5.301
10048WAT     H130386   7.518   1.608   5.226
10048WAT     H230387   7.470   1.684   5.362
10049WAT      O30388   4.066   7.208   9.763
10049WAT     H130389   3.982   7.220   9.711
10049WAT     H230390   4.131   7.279   9.739
10050WAT      O30391   1.590   6.467   6.774
10050WAT     H130392   1.668   6.502   6.826
10050WAT     H230393   1.553   6.386   6.819
10051WAT      O30394   3.766   7.983   4.935
10051WAT     H130395   3.787   7.892   4.899
10051WAT     H230396   3.676   8.012   4.901
10052WAT      O30397   7.786   6.764   6.135
10052WAT     H130398   7.808   6.697   6.206
10052WAT     H230399   7.695   6.745   6.098
10053WAT      O30400   0.915   3.783   0.825
10053WAT     H130401   0.934   3.794   0.727
10053WAT     H230402   0.914   3.872   0.870
10054WAT      O30403   3.207   8.679   7.971
10054WAT     H130404   3.226   8.666   7.873
10054WAT     H230405   3.270   8.746   8.008
10055WAT      O30406   3.639   1.401   3.097
10055WAT     H130407   3.666   1.484   3.146
10055WAT     H230408   3.704   1.328   3.117
10056WAT      O30409   2.431   2.851   4.640
10056WAT     H130410   2.397   2.910   4.566
10056WAT     H230411   2.371   2.771   4.648
10057WAT      O30412   5.485   3.930   2.561
10057WAT     H130413   5.453   3.962   2.650
10057WAT     H230414   5.535   3.844   2.572
10058WAT      O30415   3.544   0.149   2.689
10058WAT     H130416   3.596   0.068   2.663
10058WAT     H230417   3.522   0.144   2.787
10059WAT      O30418   8.793   2.768   6.974
10059WAT     H130419   8.693   2.767   6.981
10059WAT     H230420   8.825   2.677   6.946
10060WAT      O30421   1.484   7.957   0.242
10060WAT     H130422   1.407   7.981   0.183
10060WAT     H230423   1.528   8.040   0.275
10061WAT      O30424   5.645   6.728   2.461
10061WAT     H130425   5.615   6.691   2.549
10061WAT     H230426   5.596   6.683   2.387
10062WAT      O30427   4.637   1.292   4.509
10062WAT     H130428   4.564   1.326   4.567
10062WAT     H230429   4.610   1.206   4.467
10063WAT      O30430   5.874   7.910   5.824
10063WAT     H130431   5.856   7.812   5.818
10063WAT     H230432   5.946   7.927   5.891
10064WAT      O30433   4.094   7.193   2.448
10064WAT     H130434   4.094   7.160   2.542
10064WAT     H230435   4.165   7.145   2.396
10065WAT      O30436   1.856   8.144   1.079
10065WAT     H130437   1.857   8.065   1.141
10065WAT     H230438   1.785   8.131   1.010
10066WAT      O30439   9.038   8.853   6.757
10066WAT     H130440   8.994   8.933   6.797
10066WAT     H230441   9.026   8.774   6.818
10067WAT      O30442   4.880   1.977   3.652
10067WAT     H130443   4.928   2.010   3.733
10067WAT     H230444   4.891   1.878   3.645
10068WAT      O30445   8.596   3.806   2.979
10068WAT     H130446   8.525   3.739   3.001
10068WAT     H230447   8.657   3.818   3.058
10069WAT      O30448   0.135   0.655   3.135
10069WAT     H130449   0.142   0.598   3.052
10069WAT     H230450   0.170   0.746   3.115
10070WAT      O30451   6.688   6.710   7.474
10070WAT     H130452   6.678   6.790   7.413
10070WAT     H230453   6.773   6.663   7.452
10071WAT      O30454   3.561   7.814   1.785
10071WAT     H130455   3.464   7.823   1.762
10071WAT     H230456   3.570   7.784   1.881
10072WAT      O30457   2.704   6.085   3.760
10072WAT     H130458   2.731   6.142   3.682
10072WAT     H230459   2.605   6.078   3.763
10073WAT      O30460   2.009   7.437   0.517
10073WAT     H130461   2.103   7.446   0.549
10073WAT     H230462   1.979   7.524   0.476
10074WAT      O30463   7.804   5.693   5.740
10074WAT     H130464   7.819   5.782   5.696
10074WAT     H230465   7.753   5.705   5.824
10075WAT      O30466   2.592   1.929   4.226
10075WAT     H130467   2.514   1.976   4.185
10075WAT     H230468   2.670   1.932   4.163
10076WAT      O30469   5.727   4.716   1.260
10076WAT     H130470   5.642   4.709   1.207
10076WAT     H230471   5.771   4.626   1.264
10077WAT      O30472   7.413   5.747   8.106
10077WAT     H130473   7.404   5.769   8.204
10077WAT     H230474   7.362   5.663   8.086
10078WAT      O30475   9.484   5.973   2.632
10078WAT     H130476   9.395   5.929   2.641
10078WAT     H230477   9.494   6.043   2.703
10079WAT      O30478   1.623   3.304   3.894
10079WAT     H130479   1.535   3.322   3.849
10079WAT     H230480   1.659   3.216   3.863
10080WAT      O30481   9.662   1.755   7.809
10080WAT     H130482   9.686   1.816   7.734
10080WAT     H230483   9.562   1.753   7.820
10081WAT      O30484   4.885   5.661   9.142
10081WAT     H130485   4.842   5.719   9.073
10081WAT     H230486   4.980   5.643   9.116
10082WAT      O30487   7.085   1.223   6.457
10082WAT     H130488   7.064   1.145   6.398
10082WAT     H230489   7.163   1.202   6.514
10083WAT      O30490   5.981   6.195   3.585
10083WAT     H130491   5.903   6.135   3.568
10083WAT     H230492   6.058   6.166   3.528
10084WAT      O30493   5.657   5.978   1.000
10084WAT     H130494   5.747   5.983   0.956
10084WAT     H230495   5.625   5.883   0.999
10085WAT      O30496   6.963   6.491   7.739
10085WAT     H130497   6.996   6.547   7.815
10085WAT     H230498   7.021   6.411   7.729
10086WAT      O30499   6.160   6.751   2.095
10086WAT     H130500   6.163   6.850   2.089
10086WAT     H230501   6.148   6.723   2.190
10087WAT      O30502   2.797   1.760   1.506
10087WAT     H130503   2.845   1.831   1.557
10087WAT     H230504   2.747   1.802   1.430
10088WAT      O30505   8.690   9.456   1.576
10088WAT     H130506   8.730   9.374   1.535
10088WAT     H230507   8.736   9.477   1.662
10089WAT      O30508   6.755   6.997   4.993
10089WAT     H130509   6.816   7.015   5.070
10089WAT     H230510   6.808   6.971   4.913
10090WAT      O30511   7.057   5.870   5.035
10090WAT     H130512   7.149   5.890   5.004
10090WAT     H230513   7.014   5.953   5.071
10091WAT      O30514   0.230   4.667   1.741
10091WAT     H130515   0.317   4.619   1.747
10091WAT     H230516   0.188   4.651   1.652
10092WAT      O30517   5.404   1.581   6.762
10092WAT     H130518   5.348   1.537   6.693
10092WAT     H230519   5.353   1.655   6.806
10093WAT      O30520   6.133   5.755   9.637
10093WAT     H130521   6.176   5.761   9.727
10093WAT     H230522   6.038   5.785   9.643
10094WAT      O30523   0.838   0.147   1.306
10094WAT     H130524   0.770   0.087   1.263
10094WAT     H230525   0.885   0.097   1.379
10095WAT      O30526   6.949   1.391   0.909
10095WAT     H130527   6.876   1.455   0.934
10095WAT     H230528   6.913   1.298   0.909
10096WAT      O30529   0.010   4.066   5.177
10096WAT     H130530   0.079   4.090   5.109
10096WAT     H230531   0.026   4.118   5.261
10097WAT      O30532   2.021   2.132   4.639
10097WAT     H130533   2.016   2.033   4.651
10097WAT     H230534   2.110   2.156   4.600
10098WAT      O30535   3.061   4.230   9.681
10098WAT     H130536   3.022   4.284   9.606
10098WAT     H230537   3.107   4.290   9.746
10099WAT      O30538   9.312   0.394   9.667
10099WAT     H130539   9.294   0.479   9.715
10099WAT     H230540   9.244   0.381   9.594
10100WAT      O30541   9.066   0.187   3.209
10100WAT     H130542   8.994   0.177   3.278
10100WAT     H230543   9.155   0.174   3.252
10101WAT      O30544   2.008   6.308   5.226
10101WAT     H130545   1.999   6.407   5.211
10101WAT     H230546   1.918   6.267   5.229
10102WAT      O30547   0.632   8.243   8.855
10102WAT     H130548   0.731   8.245   8.848
10102WAT     H230549   0.591   8.249   8.764
10103WAT      O30550   6.999   7.329   2.604
10103WAT     H130551   6.979   7.277   2.521
10103WAT     H230552   7.061   7.405   2.583
10104WAT      O30553   4.639   4.830   1.487
10104WAT     H130554   4.640   4.769   1.566
10104WAT     H230555   4.720   4.813   1.431
10105WAT      O30556   6.376   8.385   0.533
10105WAT     H130557   6.471   8.381   0.500
10105WAT     H230558   6.318   8.423   0.461
10106WAT      O30559   7.474   1.439   6.785
10106WAT     H130560   7.482   1.503   6.709
10106WAT     H230561   7.490   1.346   6.753
10107WAT      O30562   7.368   6.929   0.919
10107WAT     H130563   7.296   6.888   0.862
10107WAT     H230564   7.371   6.881   1.007
10108WAT      O30565   5.241   9.466   1.558
10108WAT     H130566   5.155   9.431   1.594
10108WAT     H230567   5.243   9.456   1.459
10109WAT      O30568   3.745   6.150   6.678
10109WAT     H130569   3.727   6.187   6.769
10109WAT     H230570   3.706   6.211   6.609
10110WAT      O30571   0.906   2.499   4.102
10110WAT     H130572   0.843   2.559   4.151
10110WAT     H230573   0.856   2.422   4.064
10111WAT      O30574   3.771   1.634   0.855
10111WAT     H130575   3.815   1.603   0.771
10111WAT     H230576   3.692   1.691   0.832
10112WAT      O30577   9.727   9.521   3.377
10112WAT     H130578   9.799   9.574   3.332
10112WAT     H230579   9.755   9.500   3.471
10113WAT      O30580   2.881   0.133   4.783
10113WAT     H130581   2.845   0.086   4.703
10113WAT     H230582   2.932   0.068   4.840
10114WAT      O30583   8.741   8.803   6.309
10114WAT     H130584   8.837   8.790   6.285
10114WAT     H230585   8.734   8.846   6.399
10115WAT      O30586   6.527   8.485   8.707
10115WAT     H130587   6.473   8.541   8.771
10115WAT     H230588   6.504   8.389   8.720
10116WAT      O30589   7.011   4.442   6.530
10116WAT     H130590   7.028   4.417   6.435
10116WAT     H230591   7.096   4.471   6.573
10117WAT      O30592   5.275   5.986   7.708
10117WAT     H130593   5.268   5.944   7.799
10117WAT     H230594   5.190   5.969   7.658
10118WAT      O30595   4.724   5.760   0.439
10118WAT     H130596   4.695   5.833   0.501
10118WAT     H230597   4.671   5.764   0.355
10119WAT      O30598   3.093   3.140   6.304
10119WAT     H130599   3.081   3.225   6.253
10119WAT     H230600   3.080   3.157   6.402
10120WAT      O30601   8.134   0.030   1.235
10120WAT     H130602   8.209   0.075   1.284
10120WAT     H230603   8.047   0.072   1.261
10121WAT      O30604   1.695   2.166   7.254
10121WAT     H130605   1.615   2.128   7.299
10121WAT     H230606   1.777   2.145   7.307
10122WAT      O30607   8.668   0.535   9.647
10122WAT     H130608   8.601   0.465   9.622
10122WAT     H230609   8.627   0.625   9.639
10123WAT      O30610   4.234   2.318   6.308
10123WAT     H130611   4.186   2.385   6.251
10123WAT     H230612   4.311   2.280   6.256
10124WAT      O30613   5.263   0.285   5.677
10124WAT     H130614   5.326   0.322   5.745
10124WAT     H230615   5.278   0.330   5.589
10125WAT      O30616   6.622   3.900   3.372
10125WAT     H130617   6.663   3.949   3.449
10125WAT     H230618   6.524   3.919   3.370
10126WAT      O30619   1.468   1.765   1.390
10126WAT     H130620   1.422   1.837   1.442
10126WAT     H230621   1.558   1.797   1.362
10127WAT      O30622   2.337   0.494   3.935
10127WAT     H130623   2.428   0.469   3.904
10127WAT     H230624   2.313   0.439   4.015
10128WAT      O30625   3.327   6.310   4.395
10128WAT     H130626   3.234   6.300   4.430
10128WAT     H230627   3.339   6.250   4.316
10129WAT      O30628   3.727   7.921   1.599
10129WAT     H130629   3.768   8.002   1.641
10129WAT     H230630   3.667   7.877   1.666
10130WAT      O30631   8.928   5.158   1.676
10130WAT     H130632   8.964   5.088   1.737
10130WAT     H230633   8.926   5.246   1.725
10131WAT      O30634   8.427   6.294   4.558
10131WAT     H130635   8.359   6.323   4.625
10131WAT     H230636   8.507   6.353   4.564
10132WAT      O30637   3.849   9.505   4.007
10132WAT     H130638   3.789   9.559   3.948
10132WAT     H230639   3.806   9.494   4.097
10133WAT      O30640   2.169   7.317   1.740
10133WAT     H130641   2.188   7.413   1.719
10133WAT     H230642   2.177   7.301   1.838
10134WAT      O30643   3.606   8.070   1.362
10134WAT     H130644   3.625   7.988   1.415
10134WAT     H230645   3.598   8.046   1.265
10135WAT      O30646   5.587   1.346   8.372
10135WAT     H130647   5.644   1.283   8.319
10135WAT     H230648   5.577   1.432   8.322
10136WAT      O30649   5.460   5.373   5.897
10136WAT     H130650   5.470   5.455   5.841
10136WAT     H230651   5.363   5.355   5.912
10137WAT      O30652   4.581   7.629   0.859
10137WAT     H130653   4.659   7.677   0.899
10137WAT     H230654   4.499   7.647   0.913
10138WAT      O30655   7.361   5.324   4.572
10138WAT     H130656   7.367   5.370   4.661
10138WAT     H230657   7.267   5.290   4.559
10139WAT      O30658   1.044   7.150   1.382
10139WAT     H130659   0.965   7.154   1.444
10139WAT     H230660   1.118   7.100   1.426
10140WAT      O30661   6.873   1.862   9.494
10140WAT     H130662   6.806   1.915   9.442
10140WAT     H230663   6.838   1.769   9.510
10141WAT      O30664   2.504   4.596   3.605
10141WAT     H130665   2.560   4.536   3.548
10141WAT     H230666   2.410   4.598   3.570
10142WAT      O30667   8.851   7.460   0.953
10142WAT     H130668   8.926   7.524   0.960
10142WAT     H230669   8.837   7.414   1.041
10143WAT      O30670   8.167   7.798   7.540
10143WAT     H130671   8.094   7.747   7.494
10143WAT     H230672   8.127   7.855   7.612
10144WAT      O30673   5.936   0.652   8.047
10144WAT     H130674   5.862   0.604   8.000
10144WAT     H230675   5.906   0.678   8.138
10145WAT      O30676   5.251   5.481   3.981
10145WAT     H130677   5.190   5.403   3.993
10145WAT     H230678   5.314   5.487   4.058
10146WAT      O30679   3.011   3.054   7.600
10146WAT     H130680   2.997   2.982   7.531
10146WAT     H230681   2.944   3.043   7.673
10147WAT      O30682   5.697   8.299   5.632
10147WAT     H130683   5.693   8.200   5.647
10147WAT     H230684   5.606   8.332   5.608
10148WAT      O30685   9.652   1.636   8.539
10148WAT     H130686   9.570   1.671   8.585
10148WAT     H230687   9.722   1.706   8.537
10149WAT      O30688   6.366   4.278   8.633
10149WAT     H130689   6.406   4.204   8.687
10149WAT     H230690   6.270   4.291   8.660
10150WAT      O30691   2.685   1.837   9.127
10150WAT     H130692   2.616   1.906   9.106
10150WAT     H230693   2.749   1.874   9.195
10151WAT      O30694   0.675   6.044   7.728
10151WAT     H130695   0.676   5.994   7.815
10151WAT     H230696   0.769   6.062   7.700
10152WAT      O30697   3.194   8.591   3.525
10152WAT     H130698   3.245   8.570   3.442
10152WAT     H230699   3.149   8.508   3.559
10153WAT      O30700   0.612   1.872   8.971
10153WAT     H130701   0.549   1.927   8.918
10153WAT     H230702   0.672   1.821   8.910
10154WAT      O30703   0.290   9.100   0.323
10154WAT     H130704   0.269   9.003   0.334
10154WAT     H230705   0.273   9.148   0.410
10155WAT      O30706   4.232   3.650   1.565
10155WAT     H130707   4.139   3.680   1.584
10155WAT     H230708   4.231   3.575   1.499
10156WAT      O30709   7.891   6.217   4.784
10156WAT     H130710   7.867   6.269   4.701
10156WAT     H230711   7.982   6.177   4.773
10157WAT      O30712   8.084   6.450   2.556
10157WAT     H130713   8.016   6.493   2.616
10157WAT     H230714   8.054   6.358   2.532
10158WAT      O30715   3.987   8.335   3.023
10158WAT     H130716   3.905   8.363   2.973
10158WAT     H230717   3.964   8.323   3.119
10159WAT      O30718   5.986   0.754   6.796
10159WAT     H130719   6.073   0.704   6.792
10159WAT     H230720   5.945   0.742   6.887
10160WAT      O30721   2.052   9.330   6.898
10160WAT     H130722   2.080   9.250   6.844
10160WAT     H230723   2.003   9.299   6.980
10161WAT      O30724   6.603   3.895   9.043
10161WAT     H130725   6.578   3.801   9.022
10161WAT     H230726   6.696   3.913   9.011
10162WAT      O30727   3.202   0.458   8.777
10162WAT     H130728   3.113   0.497   8.802
10162WAT     H230729   3.198   0.427   8.682
10163WAT      O30730   3.207   8.459   8.136
10163WAT     H130731   3.132   8.450   8.202
10163WAT     H230732   3.200   8.548   8.091
10164WAT      O30733   1.159   0.641   2.101
10164WAT     H130734   1.255   0.647   2.075
10164WAT     H230735   1.103   0.676   2.026
10165WAT      O30736   3.602   4.546   1.138
10165WAT     H130737   3.570   4.475   1.200
10165WAT     H230738   3.667   4.507   1.073
10166WAT      O30739   4.383   0.157   1.238
10166WAT     H130740   4.339   0.083   1.290
10166WAT     H230741   4.339   0.244   1.260
10167WAT      O30742   1.803   5.296   2.241
10167WAT     H130743   1.752   5.230   2.296
10167WAT     H230744   1.740   5.342   2.178
10168WAT      O30745   6.931   6.061   8.669
10168WAT     H130746   6.941   6.138   8.605
10168WAT     H230747   6.835   6.050   8.693
10169WAT      O30748   7.310   9.482   1.227
10169WAT     H130749   7.406   9.505   1.242
10169WAT     H230750   7.291   9.393   1.270
10170WAT      O30751   5.116   2.889   8.981
10170WAT     H130752   5.205   2.843   8.982
10170WAT     H230753   5.105   2.939   8.894
10171WAT      O30754   1.937   7.348   6.419
10171WAT     H130755   1.853   7.319   6.466
10171WAT     H230756   1.944   7.447   6.422
10172WAT      O30757   5.414   8.418   1.732
10172WAT     H130758   5.331   8.369   1.703
10172WAT     H230759   5.395   8.469   1.816
10173WAT      O30760   8.731   1.175   8.695
10173WAT     H130761   8.636   1.204   8.681
10173WAT     H230762   8.734   1.078   8.715
10174WAT      O30763   1.775   2.341   0.811
10174WAT     H130764   1.861   2.372   0.771
10174WAT     H230765   1.700   2.397   0.775
10175WAT      O30766   1.085   3.746   0.487
10175WAT     H130767   1.095   3.690   0.570
10175WAT     H230768   1.089   3.687   0.406
10176WAT      O30769   2.001   3.966   6.475
10176WAT     H130770   1.954   4.041   6.521
10176WAT     H230771   1.949   3.881   6.488
10177WAT      O30772   4.741   9.366   5.061
10177WAT     H130773   4.684   9.366   5.143
10177WAT     H230774   4.813   9.435   5.072
10178WAT      O30775   3.514   9.275   9.098
10178WAT     H130776   3.592   9.241   9.045
10178WAT     H230777   3.498   9.371   9.076
10179WAT      O30778   5.296   6.389   2.440
10179WAT     H130779   5.376   6.408   2.383
10179WAT     H230780   5.215   6.380   2.383
10180WAT      O30781   8.292   9.232   2.934
10180WAT     H130782   8.296   9.200   2.840
10180WAT     H230783   8.197   9.226   2.967
10181WAT      O30784   4.859   8.007   3.580
10181WAT     H130785   4.897   8.099   3.580
10181WAT     H230786   4.768   8.008   3.621
10182WAT      O30787   1.622   1.390   8.440
10182WAT     H130788   1.679   1.310   8.424
10182WAT     H230789   1.672   1.456   8.496
10183WAT      O30790   4.626   3.045   1.631
10183WAT     H130791   4.626   2.989   1.548
10183WAT     H230792   4.712   3.032   1.680
10184WAT      O30793   9.444   5.331   2.696
10184WAT     H130794   9.472   5.376   2.610
10184WAT     H230795   9.462   5.233   2.690
10185WAT      O30796   2.603   3.275   5.588
10185WAT     H130797   2.567   3.188   5.555
10185WAT     H230798   2.680   3.258   5.649
10186WAT      O30799   1.301   0.270   2.628
10186WAT     H130800   1.330   0.227   2.543
10186WAT     H230801   1.246   0.206   2.681
10187WAT      O30802   4.117   3.376   3.149
10187WAT     H130803   4.117   3.354   3.247
10187WAT     H230804   4.186   3.320   3.103
10188WAT      O30805   4.018   0.158   3.255
10188WAT     H130806   4.022   0.258   3.250
10188WAT     H230807   4.109   0.121   3.238
10189WAT      O30808   9.164   3.063   0.381
10189WAT     H130809   9.158   3.153   0.338
10189WAT     H230810   9.240   3.012   0.342
10190WAT      O30811   1.240   3.474   6.824
10190WAT     H130812   1.236   3.510   6.730
10190WAT     H230813   1.191   3.387   6.829
10191WAT      O30814   6.223   7.034   1.200
10191WAT     H130815   6.184   7.076   1.282
10191WAT     H230816   6.283   7.099   1.154
10192WAT      O30817   6.980   6.065   5.512
10192WAT     H130818   6.891   6.027   5.538
10192WAT     H230819   7.035   5.994   5.469
10193WAT      O30820   3.694   0.406   8.452
10193WAT     H130821   3.671   0.502   8.442
10193WAT     H230822   3.794   0.396   8.459
10194WAT      O30823   8.490   7.744   5.043
10194WAT     H130824   8.501   7.830   4.992
10194WAT     H230825   8.565   7.682   5.019
10195WAT      O30826   5.524   2.313   8.386
10195WAT     H130827   5.561   2.405   8.376
10195WAT     H230828   5.437   2.306   8.336
10196WAT      O30829   8.598   9.346   8.184
10196WAT     H130830   8.503   9.314   8.175
10196WAT     H230831   8.626   9.391   8.100
10197WAT      O30832   4.022   3.811   7.506
10197WAT     H130833   3.996   3.821   7.602
10197WAT     H230834   3.940   3.811   7.449
10198WAT      O30835   1.623   4.281   9.616
10198WAT     H130836   1.573   4.332   9.547
10198WAT     H230837   1.690   4.221   9.572
10199WAT      O30838   2.498   2.914   7.684
10199WAT     H130839   2.581   2.952   7.644
10199WAT     H230840   2.498   2.930   7.783
10200WAT      O30841   3.255   5.447   9.456
10200WAT     H130842   3.322   5.496   9.399
10200WAT     H230843   3.182   5.510   9.482
10201WAT      O30844   8.652   0.854   6.236
10201WAT     H130845   8.731   0.797   6.260
10201WAT     H230846   8.575   0.795   6.211
10202WAT      O30847   0.266   3.442   0.459
10202WAT     H130848   0.263   3.370   0.527
10202WAT     H230849   0.331   3.417   0.386
10203WAT      O30850   2.152   8.004   1.902
10203WAT     H130851   2.185   8.042   1.816
10203WAT     H230852   2.053   7.989   1.896
10204WAT      O30853   3.473   3.556   5.115
10204WAT     H130854   3.382   3.568   5.153
10204WAT     H230855   3.488   3.460   5.091
10205WAT      O30856   1.097   8.603   1.114
10205WAT     H130857   1.169   8.642   1.171
10205WAT     H230858   1.063   8.519   1.156
10206WAT      O30859   0.503   5.656   6.600
10206WAT     H130860   0.591   5.703   6.586
10206WAT     H230861   0.447   5.666   6.518
10207WAT      O30862   3.012   9.062   1.132
10207WAT     H130863   3.050   9.081   1.042
10207WAT     H230864   3.085   9.062   1.200
10208WAT      O30865   9.182   5.190   2.483
10208WAT     H130866   9.255   5.156   2.424
10208WAT     H230867   9.163   5.286   2.461
10209WAT      O30868   2.667   8.015   5.754
10209WAT     H130869   2.693   8.079   5.826
10209WAT     H230870   2.602   7.948   5.791
10210WAT      O30871   8.494   6.366   3.532
10210WAT     H130872   8.451   6.377   3.443
10210WAT     H230873   8.581   6.319   3.522
10211WAT      O30874   2.482   9.838   8.167
10211WAT     H130875   2.464   9.887   8.082
10211WAT     H230876   2.518   9.747   8.146
10212WAT      O30877   9.457   1.339   5.772
10212WAT     H130878   9.477   1.260   5.713
10212WAT     H230879   9.403   1.308   5.851
10213WAT      O30880   3.987   3.191   1.179
10213WAT     H130881   4.010   3.209   1.274
10213WAT     H230882   3.949   3.099   1.170
10214WAT      O30883   4.706   7.314   4.622
10214WAT     H130884   4.711   7.407   4.587
10214WAT     H230885   4.653   7.257   4.559
10215WAT      O30886   2.516   1.667   0.529
10215WAT     H130887   2.461   1.751   0.526
10215WAT     H230888   2.593   1.675   0.465
10216WAT      O30889   5.738   5.832   2.477
10216WAT     H130890   5.835   5.810   2.490
10216WAT     H230891   5.688   5.750   2.449
10217WAT      O30892   9.475   4.018   3.375
10217WAT     H130893   9.568   3.983   3.383
10217WAT     H230894   9.452   4.071   3.457
10218WAT      O30895   6.534   6.496   5.300
10218WAT     H130896   6.542   6.565   5.228
10218WAT     H230897   6.451   6.511   5.353
10219WAT      O30898   0.611   8.009   8.480
10219WAT     H130899   0.631   7.920   8.439
10219WAT     H230900   0.533   8.050   8.433
10220WAT      O30901   0.016   8.635   6.559
10220WAT     H130902   0.105   8.679   6.551
10220WAT     H230903  -0.044   8.665   6.485
10221WAT      O30904   4.194   0.215   1.446
10221WAT     H130905   4.144   0.133   1.472
10221WAT     H230906   4.160   0.248   1.358
10222WAT      O30907   3.833   2.998   8.463
10222WAT     H130908   3.773   3.051   8.523
10222WAT     H230909   3.785   2.974   8.379
10223WAT      O30910   3.914   2.705   0.854
10223WAT     H130911   3.926   2.796   0.815
10223WAT     H230912   3.818   2.679   0.850
10224WAT      O30913   9.405   4.884   1.321
10224WAT     H130914   9.369   4.927   1.404
10224WAT     H230915   9.384   4.786   1.323
10225WAT      O30916   0.285   2.913   2.386
10225WAT     H130917   0.350   2.845   2.351
10225WAT     H230918   0.226   2.870   2.454
10226WAT      O30919   0.169   8.229   0.275
10226WAT     H130920   0.243   8.294   0.256
10226WAT     H230921   0.146   8.231   0.372
10227WAT      O30922   5.985   7.702   4.270
10227WAT     H130923   5.923   7.720   4.346
10227WAT     H230924   5.945   7.633   4.210
10228WAT      O30925   7.902   6.339   1.150
10228WAT     H130926   7.836   6.413   1.163
10228WAT     H230927   7.952   6.353   1.064
10229WAT      O30928   6.314   5.802   9.863
10229WAT     H130929   6.345   5.797   9.957
10229WAT     H230930   6.337   5.892   9.825
10230WAT      O30931   8.769   4.640   5.906
10230WAT     H130932   8.712   4.562   5.881
10230WAT     H230933   8.715   4.706   5.958
10231WAT      O30934   3.805   9.468   1.345
10231WAT     H130935   3.765   9.378   1.327
10231WAT     H230936   3.733   9.530   1.375
10232WAT      O30937   0.668   3.651   0.899
10232WAT     H130938   0.756   3.697   0.888
10232WAT     H230939   0.648   3.598   0.817
10233WAT      O30940   9.603   6.565   0.335
10233WAT     H130941   9.591   6.524   0.425
10233WAT     H230942   9.685   6.623   0.335
10234WAT      O30943   2.732   7.037   9.207
10234WAT     H130944   2.805   7.003   9.148
10234WAT     H230945   2.760   7.125   9.246
10235WAT      O30946   7.482   9.404   6.336
10235WAT     H130947   7.530   9.492   6.338
10235WAT     H230948   7.403   9.408   6.398
10236WAT      O30949   6.392   3.018   2.079
10236WAT     H130950   6.404   2.990   2.174
10236WAT     H230951   6.336   3.101   2.075
10237WAT      O30952   3.495   9.552   3.887
10237WAT     H130953   3.539   9.621   3.945
10237WAT     H230954   3.499   9.463   3.932
10238WAT      O30955   6.587   4.068   8.362
10238WAT     H130956   6.570   4.041   8.457
10238WAT     H230957   6.572   3.990   8.302
10239WAT      O30958   3.229   6.336   2.199
10239WAT     H130959   3.252   6.405   2.268
10239WAT     H230960   3.185   6.380   2.121
10240WAT      O30961   6.861   7.592   6.715
10240WAT     H130962   6.941   7.536   6.690
10240WAT     H230963   6.796   7.594   6.639
10241WAT      O30964   1.068   4.761   1.793
10241WAT     H130965   1.054   4.836   1.858
10241WAT     H230966   1.095   4.679   1.843
10242WAT      O30967   4.116   0.740   2.403
10242WAT     H130968   4.165   0.716   2.486
10242WAT     H230969   4.023   0.704   2.407
10243WAT      O30970   5.319   5.690   7.653
10243WAT     H130971   5.319   5.751   7.574
10243WAT     H230972   5.293   5.598   7.624
10244WAT      O30973   3.287   6.608   0.375
10244WAT     H130974   3.372   6.600   0.427
10244WAT     H230975   3.268   6.522   0.327
10245WAT      O30976   7.281   1.578   3.293
10245WAT     H130977   7.184   1.556   3.304
10245WAT     H230978   7.321   1.518   3.224
10246WAT      O30979   1.040   1.617   0.340
10246WAT     H130980   0.959   1.582   0.387
10246WAT     H230981   1.102   1.659   0.407
10247WAT      O30982   6.459   1.583   7.106
10247WAT     H130983   6.536   1.645   7.123
10247WAT     H230984   6.435   1.536   7.191
10248WAT      O30985   6.764   7.099   6.085
10248WAT     H130986   6.733   7.193   6.068
10248WAT     H230987   6.697   7.052   6.143
10249WAT      O30988   8.692   2.888   7.456
10249WAT     H130989   8.613   2.840   7.418
10249WAT     H230990   8.773   2.830   7.448
10250WAT      O30991   4.757   8.818   6.146
10250WAT     H130992   4.759   8.864   6.057
10250WAT     H230993   4.680   8.754   6.149
10251WAT      O30994   0.208   8.631   9.655
10251WAT     H130995   0.109   8.619   9.647
10251WAT     H230996   0.254   8.561   9.601
10252WAT      O30997   2.992   2.980   5.252
10252WAT     H130998   3.015   2.955   5.346
10252WAT     H230999   3.023   2.909   5.189
10253WAT      O31000   5.801   6.168   0.573
10253WAT     H131001   5.737   6.154   0.649
10253WAT     H231002   5.773   6.111   0.495
10254WAT      O31003   3.218   3.729   7.722
10254WAT     H131004   3.177   3.638   7.719
10254WAT     H231005   3.257   3.751   7.633
10255WAT      O31006   1.000   1.101   5.215
10255WAT     H131007   1.043   1.187   5.241
10255WAT     H231008   0.999   1.093   5.115
10256WAT      O31009   2.781   4.835   9.245
10256WAT     H131010   2.688   4.853   9.213
10256WAT     H231011   2.805   4.740   9.225
10257WAT      O31012   7.595   9.467   7.570
10257WAT     H131013   7.560   9.561   7.573
10257WAT     H231014   7.523   9.405   7.540
10258WAT      O31015   7.662   6.883   6.843
10258WAT     H131016   7.565   6.864   6.828
10258WAT     H231017   7.674   6.926   6.932
10259WAT      O31018   9.427   8.874   3.466
10259WAT     H131019   9.331   8.855   3.490
10259WAT     H231020   9.482   8.793   3.486
10260WAT      O31021   8.788   1.621   0.110
10260WAT     H131022   8.749   1.656   0.196
10260WAT     H231023   8.845   1.692   0.069
10261WAT      O31024   1.305   3.538   0.985
10261WAT     H131025   1.405   3.539   0.979
10261WAT     H231026   1.278   3.551   1.081
10262WAT      O31027   0.884   4.255   1.198
10262WAT     H131028   0.929   4.166   1.199
10262WAT     H231029   0.814   4.257   1.125
10263WAT      O31030   3.047   1.881   9.082
10263WAT     H131031   2.997   1.967   9.083
10263WAT     H231032   3.047   1.843   8.990
10264WAT      O31033   1.667   5.543   3.689
10264WAT     H131034   1.723   5.625   3.680
10264WAT     H231035   1.658   5.519   3.785
10265WAT      O31036   3.701   4.583   8.016
10265WAT     H131037   3.682   4.486   7.999
10265WAT     H231038   3.623   4.638   7.987
10266WAT      O31039   2.816   0.827   2.436
10266WAT     H131040   2.837   0.753   2.371
10266WAT     H231041   2.791   0.909   2.386
10267WAT      O31042   6.039   3.959   7.819
10267WAT     H131043   6.126   3.997   7.849
10267WAT     H231044   5.994   3.914   7.896
10268WAT      O31045   4.086   2.124   3.647
10268WAT     H131046   3.998   2.080   3.630
10268WAT     H231047   4.072   2.204   3.705
10269WAT      O31048   1.151   6.608   9.308
10269WAT     H131049   1.129   6.637   9.401
10269WAT     H231050   1.066   6.594   9.256
10270WAT      O31051   2.536   7.816   0.001
10270WAT     H131052   2.496   7.857  -0.081
10270WAT     H231053   2.471   7.824   0.077
10271WAT      O31054   5.930   1.518   4.934
10271WAT     H131055   5.890   1.477   4.852
10271WAT     H231056   6.013   1.468   4.959
10272WAT      O31057   4.771   5.781   7.547
10272WAT     H131058   4.747   5.811   7.639
10272WAT     H231059   4.808   5.689   7.550
10273WAT      O31060   4.725   2.980   6.534
10273WAT     H131061   4.665   2.920   6.586
10273WAT     H231062   4.806   2.930   6.504
10274WAT      O31063   5.253   4.075   8.343
10274WAT     H131064   5.345   4.110   8.323
10274WAT     H231065   5.230   4.096   8.438
10275WAT      O31066   7.951   6.140   4.047
10275WAT     H131067   8.034   6.194   4.032
10275WAT     H231068   7.937   6.078   3.970
10276WAT      O31069   4.451   0.370   2.858
10276WAT     H131070   4.406   0.320   2.785
10276WAT     H231071   4.382   0.419   2.911
10277WAT      O31072   4.532   1.326   3.109
10277WAT     H131073   4.443   1.330   3.065
10277WAT     H231074   4.524   1.357   3.204
10278WAT      O31075   7.702   4.879   7.601
10278WAT     H131076   7.624   4.849   7.656
10278WAT     H231077   7.754   4.799   7.570
10279WAT      O31078   1.673   0.938   8.324
10279WAT     H131079   1.752   0.877   8.322
10279WAT     H231080   1.589   0.884   8.331
10280WAT      O31081   6.889   0.554   2.256
10280WAT     H131082   6.873   0.457   2.274
10280WAT     H231083   6.963   0.564   2.190
10281WAT      O31084   1.012   3.561   1.016
10281WAT     H131085   0.976   3.612   0.938
10281WAT     H231086   1.111   3.549   1.005
10282WAT      O31087   8.180   3.713   6.167
10282WAT     H131088   8.093   3.745   6.203
10282WAT     H231089   8.243   3.695   6.243
10283WAT      O31090   0.165   9.411   6.110
10283WAT     H131091   0.207   9.363   6.187
10283WAT     H231092   0.184   9.509   6.118
10284WAT      O31093   4.021   6.767   2.991
10284WAT     H131094   3.978   6.730   3.074
10284WAT     H231095   4.067   6.853   3.013
10285WAT      O31096   4.020   3.469   7.506
10285WAT     H131097   4.026   3.526   7.588
10285WAT     H231098   4.112   3.454   7.470
10286WAT      O31099   8.989   7.924   3.702
10286WAT     H131100   9.088   7.907   3.701
10286WAT     H231101   8.973   8.022   3.691
10287WAT      O31102   6.633   1.346   1.182
10287WAT     H131103   6.642   1.400   1.265
10287WAT     H231104   6.657   1.251   1.201
10288WAT      O31105   6.326   3.262   8.233
10288WAT     H131106   6.258   3.292   8.300
10288WAT     H231107   6.279   3.219   8.156
10289WAT      O31108   6.912   2.599   2.593
10289WAT     H131109   6.956   2.690   2.596
10289WAT     H231110   6.816   2.610   2.569
10290WAT      O31111   5.190   9.628   6.367
10290WAT     H131112   5.150   9.618   6.458
10290WAT     H231113   5.214   9.538   6.330
10291WAT      O31114   1.994   7.266   5.664
10291WAT     H131115   1.973   7.231   5.755
10291WAT     H231116   2.080   7.317   5.666
10292WAT      O31117   5.923   9.023   1.699
10292WAT     H131118   5.938   8.926   1.681
10292WAT     H231119   5.937   9.076   1.615
10293WAT      O31120   2.156   0.190   3.692
10293WAT     H131121   2.164   0.289   3.698
10293WAT     H231122   2.098   0.157   3.767
10294WAT      O31123   4.795   3.636   1.768
10294WAT     H131124   4.838   3.708   1.714
10294WAT     H231125   4.779   3.556   1.710
10295WAT      O31126   3.003   6.706   2.182
10295WAT     H131127   2.919   6.752   2.152
10295WAT     H231128   3.010   6.617   2.137
10296WAT      O31129   1.058   4.674   4.673
10296WAT     H131130   1.054   4.643   4.578
10296WAT     H231131   0.979   4.732   4.692
10297WAT      O31132   5.093   4.443   3.552
10297WAT     H131133   5.150   4.500   3.611
10297WAT     H231134   5.105   4.347   3.578
10298WAT      O31135   2.050   9.595   4.184
10298WAT     H131136   2.036   9.619   4.280
10298WAT     H231137   1.979   9.530   4.156
10299WAT      O31138   1.144   2.171   5.292
10299WAT     H131139   1.156   2.264   5.257
10299WAT     H231140   1.052   2.161   5.329
10300WAT      O31141   2.319   4.013   5.904
10300WAT     H131142   2.340   3.971   5.993
10300WAT     H231143   2.239   3.969   5.865
10301WAT      O31144   8.130   0.565   5.205
10301WAT     H131145   8.222   0.581   5.167
10301WAT     H231146   8.082   0.497   5.150
10302WAT      O31147   0.005   5.465   5.904
10302WAT     H131148   0.000   5.391   5.837
10302WAT     H231149  -0.077   5.465   5.960
10303WAT      O31150   3.251   9.102   0.084
10303WAT     H131151   3.217   9.111   0.178
10303WAT     H231152   3.216   9.018   0.043
10304WAT      O31153   0.737   8.340   0.086
10304WAT     H131154   0.672   8.299   0.150
10304WAT     H231155   0.729   8.440   0.090
10305WAT      O31156   7.863   5.683   6.949
10305WAT     H131157   7.893   5.588   6.949
10305WAT     H231158   7.782   5.693   6.891
10306WAT      O31159   6.485   7.055   4.553
10306WAT     H131160   6.385   7.051   4.555
10306WAT     H231161   6.522   6.965   4.533
10307WAT      O31162   8.371   2.042   6.355
10307WAT     H131163   8.355   2.001   6.265
10307WAT     H231164   8.283   2.061   6.399
10308WAT      O31165   7.418   8.186   0.239
10308WAT     H131166   7.515   8.206   0.249
10308WAT     H231167   7.364   8.265   0.270
10309WAT      O31168   7.061   0.533   3.419
10309WAT     H131169   6.972   0.543   3.464
10309WAT     H231170   7.078   0.614   3.362
10310WAT      O31171   1.671   0.805   1.748
10310WAT     H131172   1.613   0.751   1.688
10310WAT     H231173   1.649   0.902   1.738
10311WAT      O31174   3.198   8.674   0.947
10311WAT     H131175   3.206   8.608   1.022
10311WAT     H231176   3.119   8.650   0.890
10312WAT      O31177   9.736   8.526   2.577
10312WAT     H131178   9.680   8.501   2.656
10312WAT     H231179   9.687   8.503   2.493
10313WAT      O31180   3.589   7.738   6.883
10313WAT     H131181   3.662   7.764   6.820
10313WAT     H231182   3.551   7.650   6.856
10314WAT      O31183   9.865   5.977   6.663
10314WAT     H131184   9.791   5.949   6.602
10314WAT     H231185   9.836   5.969   6.758
10315WAT      O31186   1.503   6.791   9.470
10315WAT     H131187   1.497   6.701   9.426
10315WAT     H231188   1.577   6.790   9.537
10316WAT      O31189   6.903   1.825   5.460
10316WAT     H131190   6.828   1.888   5.440
10316WAT     H231191   6.987   1.859   5.417
10317WAT      O31192   5.124   9.016   5.755
10317WAT     H131193   5.217   9.053   5.750
10317WAT     H231194   5.129   8.917   5.769
10318WAT      O31195   6.743   1.589   5.253
10318WAT     H131196   6.679   1.549   5.318
10318WAT     H231197   6.807   1.519   5.221
10319WAT      O31198   9.709   2.255   0.656
10319WAT     H131199   9.709   2.281   0.753
10319WAT     H231200   9.779   2.307   0.608
10320WAT      O31201   3.072   1.891   6.683
10320WAT     H131202   3.025   1.923   6.765
10320WAT     H231203   3.073   1.964   6.615
10321WAT      O31204   4.003   7.935   3.909
10321WAT     H131205   3.946   7.853   3.900
10321WAT     H231206   3.986   7.978   3.997
10322WAT      O31207   1.108   0.674   5.603
10322WAT     H131208   1.068   0.751   5.553
10322WAT     H231209   1.102   0.690   5.701
10323WAT      O31210   9.471   5.823   2.972
10323WAT     H131211   9.471   5.729   2.939
10323WAT     H231212   9.552   5.837   3.030
10324WAT      O31213   9.339   6.792   4.137
10324WAT     H131214   9.266   6.856   4.160
10324WAT     H231215   9.427   6.838   4.143
10325WAT      O31216   4.447   5.531   6.328
10325WAT     H131217   4.513   5.600   6.298
10325WAT     H231218   4.495   5.451   6.362
10326WAT      O31219   1.821   7.731   7.205
10326WAT     H131220   1.780   7.666   7.269
10326WAT     H231221   1.898   7.777   7.250
10327WAT      O31222   2.652   9.300   7.732
10327WAT     H131223   2.704   9.381   7.760
10327WAT     H231224   2.671   9.225   7.796
10328WAT      O31225   8.162   2.206   2.656
10328WAT     H131226   8.167   2.305   2.638
10328WAT     H231227   8.250   2.163   2.634
10329WAT      O31228   1.464   5.882   4.682
10329WAT     H131229   1.558   5.847   4.687
10329WAT     H231230   1.433   5.881   4.587
10330WAT      O31231   8.956   0.615   2.390
10330WAT     H131232   8.986   0.673   2.466
10330WAT     H231233   8.903   0.538   2.426
10331WAT      O31234   0.583   1.069   9.515
10331WAT     H131235   0.535   1.077   9.603
10331WAT     H231236   0.672   1.027   9.530
10332WAT      O31237   3.766   7.835   7.325
10332WAT     H131238   3.736   7.813   7.418
10332WAT     H231239   3.688   7.826   7.262
10333WAT      O31240   5.851   7.485   1.585
10333WAT     H131241   5.844   7.463   1.488
10333WAT     H231242   5.919   7.557   1.599
10334WAT      O31243   7.014   3.201   7.667
10334WAT     H131244   7.057   3.231   7.753
10334WAT     H231245   7.000   3.102   7.670
10335WAT      O31246   8.132   6.688   3.557
10335WAT     H131247   8.107   6.595   3.527
10335WAT     H231248   8.221   6.712   3.519
10336WAT      O31249   4.215   4.518   4.752
10336WAT     H131250   4.255   4.429   4.773
10336WAT     H231251   4.141   4.506   4.685
10337WAT      O31252   2.590   3.048   5.983
10337WAT     H131253   2.587   2.975   5.915
10337WAT     H231254   2.630   3.130   5.943
10338WAT      O31255   1.751   8.892   5.703
10338WAT     H131256   1.782   8.895   5.608
10338WAT     H231257   1.738   8.797   5.731
10339WAT      O31258   0.465   5.929   3.405
10339WAT     H131259   0.561   5.923   3.435
10339WAT     H231260   0.420   5.841   3.420
10340WAT      O31261   3.137   0.331   1.685
10340WAT     H131262   3.200   0.402   1.654
10340WAT     H231263   3.092   0.290   1.606
10341WAT      O31264   6.390   6.018   6.058
10341WAT     H131265   6.299   5.996   6.022
10341WAT     H231266   6.449   6.049   5.984
10342WAT      O31267   1.600   7.604   4.415
10342WAT     H131268   1.572   7.543   4.489
10342WAT     H231269   1.682   7.566   4.371
10343WAT      O31270   0.462   4.267   3.768
10343WAT     H131271   0.435   4.362   3.754
10343WAT     H231272   0.408   4.227   3.841
10344WAT      O31273   0.294   2.164   9.545
10344WAT     H131274   0.325   2.099   9.614
10344WAT     H231275   0.353   2.245   9.547
10345WAT      O31276   8.082   0.283   4.503
10345WAT     H131277   8.029   0.354   4.456
10345WAT     H231278   8.062   0.285   4.600
10346WAT      O31279   5.898   1.209   3.834
10346WAT     H131280   5.864   1.292   3.878
10346WAT     H231281   5.993   1.193   3.862
10347WAT      O31282   0.504   2.313   8.139
10347WAT     H131283   0.413   2.351   8.125
10347WAT     H231284   0.562   2.335   8.061
10348WAT      O31285   1.399   7.076   7.665
10348WAT     H131286   1.493   7.075   7.700
10348WAT     H231287   1.338   7.031   7.730
10349WAT      O31288   8.935   1.684   5.442
10349WAT     H131289   8.848   1.685   5.393
10349WAT     H231290   8.983   1.770   5.425
10350WAT      O31291   4.404   7.763   8.232
10350WAT     H131292   4.359   7.747   8.320
10350WAT     H231293   4.335   7.763   8.159
10351WAT      O31294   6.881   6.785   8.044
10351WAT     H131295   6.961   6.740   8.005
10351WAT     H231296   6.854   6.739   8.128
10352WAT      O31297   0.583   8.983   7.157
10352WAT     H131298   0.602   9.062   7.216
10352WAT     H231299   0.664   8.925   7.151
10353WAT      O31300   4.730   0.340   6.922
10353WAT     H131301   4.715   0.249   6.960
10353WAT     H231302   4.822   0.345   6.883
10354WAT      O31303   4.302   8.611   6.603
10354WAT     H131304   4.349   8.673   6.541
10354WAT     H231305   4.345   8.521   6.600
10355WAT      O31306   8.808   6.532   9.663
10355WAT     H131307   8.887   6.553   9.605
10355WAT     H231308   8.830   6.455   9.722
10356WAT      O31309   5.896   0.773   7.055
10356WAT     H131310   5.960   0.850   7.060
10356WAT     H231311   5.910   0.712   7.133
10357WAT      O31312   4.956   8.408   3.927
10357WAT     H131313   5.020   8.471   3.882
10357WAT     H231314   4.951   8.429   4.024
10358WAT      O31315   5.368   6.545   4.997
10358WAT     H131316   5.324   6.464   4.958
10358WAT     H231317   5.458   6.557   4.956
10359WAT      O31318   0.325   6.131   6.760
10359WAT     H131319   0.416   6.168   6.738
10359WAT     H231320   0.263   6.150   6.684
10360WAT      O31321   5.380   9.846   2.982
10360WAT     H131322   5.308   9.798   2.932
10360WAT     H231323   5.462   9.789   2.988
10361WAT      O31324   0.345   5.045   8.110
10361WAT     H131325   0.359   5.038   8.011
10361WAT     H231326   0.375   4.960   8.154
10362WAT      O31327   9.322   9.832   2.675
10362WAT     H131328   9.332   9.924   2.713
10362WAT     H231329   9.330   9.765   2.748
10363WAT      O31330   7.119   4.967   3.182
10363WAT     H131331   7.135   4.908   3.103
10363WAT     H231332   7.146   4.918   3.265
10364WAT      O31333   3.454   3.104   6.869
10364WAT     H131334   3.469   3.187   6.815
10364WAT     H231335   3.376   3.054   6.831
10365WAT      O31336   4.838   5.944   8.742
10365WAT     H131337   4.868   6.036   8.768
10365WAT     H231338   4.808   5.894   8.823
10366WAT      O31339   8.841   7.255   3.947
10366WAT     H131340   8.816   7.320   4.019
10366WAT     H231341   8.835   7.300   3.858
10367WAT      O31342   0.260   7.941   9.136
10367WAT     H131343   0.178   7.912   9.085
10367WAT     H231344   0.318   7.862   9.153
10368WAT      O31345   9.180   2.641   0.362
10368WAT     H131346   9.143   2.667   0.452
10368WAT     H231347   9.113   2.662   0.291
10369WAT      O31348   3.624   4.716   8.597
10369WAT     H131349   3.690   4.691   8.527
10369WAT     H231350   3.641   4.663   8.680
10370WAT      O31351   4.620   9.060   5.446
10370WAT     H131352   4.601   9.080   5.350
10370WAT     H231353   4.560   8.986   5.477
10371WAT      O31354   4.442   4.428   9.613
10371WAT     H131355   4.359   4.376   9.633
10371WAT     H231356   4.447   4.446   9.515
10372WAT      O31357   2.952   7.625   8.516
10372WAT     H131358   2.980   7.621   8.420
10372WAT     H231359   2.855   7.648   8.521
10373WAT      O31360   9.444   4.723   2.616
10373WAT     H131361   9.374   4.785   2.579
10373WAT     H231362   9.435   4.633   2.575
10374WAT      O31363   5.184   0.595   3.936
10374WAT     H131364   5.176   0.666   3.866
10374WAT     H231365   5.129   0.620   4.016
10375WAT      O31366   9.335   2.950   3.978
10375WAT     H131367   9.247   2.939   4.024
10375WAT     H231368   9.354   2.869   3.922
10376WAT      O31369   0.192   5.744   7.774
10376WAT     H131370   0.287   5.758   7.749
10376WAT     H231371   0.177   5.775   7.868
10377WAT      O31372   6.888   8.880   8.659
10377WAT     H131373   6.845   8.903   8.572
10377WAT     H231374   6.963   8.816   8.644
10378WAT      O31375   0.777   0.800   7.097
10378WAT     H131376   0.786   0.702   7.080
10378WAT     H231377   0.747   0.815   7.191
10379WAT      O31378   0.626   4.983   2.921
10379WAT     H131379   0.669   5.070   2.946
10379WAT     H231380   0.576   4.995   2.835
10380WAT      O31381   8.590   9.473   5.666
10380WAT     H131382   8.522   9.435   5.729
10380WAT     H231383   8.681   9.440   5.691
10381WAT      O31384   6.375   1.333   8.078
10381WAT     H131385   6.291   1.306   8.031
10381WAT     H231386   6.444   1.358   8.011
10382WAT      O31387   5.610   2.287   2.123
10382WAT     H131388   5.659   2.306   2.208
10382WAT     H231389   5.676   2.256   2.053
10383WAT      O31390   7.028   8.073   6.957
10383WAT     H131391   6.975   7.993   6.932
10383WAT     H231392   7.110   8.044   7.008
10384WAT      O31393   0.109   2.029   7.294
10384WAT     H131394   0.177   1.959   7.317
10384WAT     H231395   0.017   1.995   7.317
10385WAT      O31396   7.722   7.794   5.963
10385WAT     H131397   7.750   7.716   6.020
10385WAT     H231398   7.737   7.772   5.867
10386WAT      O31399   6.637   0.319   0.460
10386WAT     H131400   6.566   0.249   0.463
10386WAT     H231401   6.601   0.405   0.496
10387WAT      O31402   8.575   4.041   7.378
10387WAT     H131403   8.535   4.109   7.439
10387WAT     H231404   8.502   3.999   7.323
10388WAT      O31405   5.508   1.007   1.621
10388WAT     H131406   5.563   1.059   1.555
10388WAT     H231407   5.413   1.035   1.615
10389WAT      O31408   6.169   6.883   2.848
10389WAT     H131409   6.080   6.839   2.839
10389WAT     H231410   6.210   6.894   2.758
10390WAT      O31411   5.646   8.774   1.901
10390WAT     H131412   5.745   8.782   1.896
10390WAT     H231413   5.621   8.677   1.904
10391WAT      O31414   6.218   3.586   3.985
10391WAT     H131415   6.264   3.648   4.049
10391WAT     H231416   6.197   3.635   3.901
10392WAT      O31417   4.961   3.870   6.435
10392WAT     H131418   4.864   3.854   6.450
10392WAT     H231419   4.981   3.868   6.337
10393WAT      O31420   6.833   7.589   4.015
10393WAT     H131421   6.917   7.580   4.068
10393WAT     H231422   6.761   7.629   4.073
10394WAT      O31423   9.448   1.760   7.020
10394WAT     H131424   9.536   1.753   6.974
10394WAT     H231425   9.455   1.724   7.113
10395WAT      O31426   0.014   3.587   5.012
10395WAT     H131427   0.088   3.582   5.078
10395WAT     H231428  -0.040   3.670   5.028
10396WAT      O31429   5.443   3.595   0.509
10396WAT     H131430   5.471   3.662   0.578
10396WAT     H231431   5.414   3.643   0.427
10397WAT      O31432   6.082   5.558   5.786
10397WAT     H131433   6.038   5.490   5.844
10397WAT     H231434   6.017   5.590   5.717
10398WAT      O31435   0.124   2.460   7.961
10398WAT     H131436   0.092   2.365   7.958
10398WAT     H231437   0.197   2.472   7.894
10399WAT      O31438   7.424   3.017   7.783
10399WAT     H131439   7.419   3.058   7.692
10399WAT     H231440   7.486   3.071   7.840
10400WAT      O31441   2.048   8.871   3.631
10400WAT     H131442   2.071   8.919   3.716
10400WAT     H231443   2.124   8.813   3.604
10401WAT      O31444   7.643   4.118   6.318
10401WAT     H131445   7.589   4.173   6.255
10401WAT     H231446   7.623   4.145   6.412
10402WAT      O31447   6.754   7.836   6.361
10402WAT     H131448   6.705   7.916   6.396
10402WAT     H231449   6.757   7.766   6.432
10403WAT      O31450   3.229   3.575   3.021
10403WAT     H131451   3.153   3.549   3.080
10403WAT     H231452   3.295   3.500   3.016
10404WAT      O31453   6.412   8.790   0.067
10404WAT     H131454   6.445   8.739   0.146
10404WAT     H231455   6.326   8.749   0.034
10405WAT      O31456   0.780   1.791   8.785
10405WAT     H131457   0.752   1.829   8.697
10405WAT     H231458   0.872   1.822   8.808
10406WAT      O31459   8.049   0.167   6.274
10406WAT     H131460   8.080   0.074   6.255
10406WAT     H231461   8.119   0.215   6.327
10407WAT      O31462   2.996   5.501   5.945
10407WAT     H131463   3.002   5.565   5.868
10407WAT     H231464   3.006   5.551   6.030
10408WAT      O31465   2.517   1.446   8.056
10408WAT     H131466   2.528   1.490   7.967
10408WAT     H231467   2.452   1.370   8.048
10409WAT      O31468   8.896   4.401   5.924
10409WAT     H131469   8.948   4.391   6.009
10409WAT     H231470   8.872   4.497   5.911
10410WAT      O31471   2.103   8.330   6.424
10410WAT     H131472   2.054   8.332   6.511
10410WAT     H231473   2.096   8.419   6.380
10411WAT      O31474   9.324   9.313   8.733
10411WAT     H131475   9.419   9.310   8.763
10411WAT     H231476   9.293   9.221   8.709
10412WAT      O31477   3.142   3.904   2.109
10412WAT     H131478   3.081   3.906   2.030
10412WAT     H231479   3.226   3.954   2.087
10413WAT      O31480   8.624   0.989   5.966
10413WAT     H131481   8.572   1.074   5.959
10413WAT     H231482   8.703   1.003   6.026
10414WAT      O31483   0.089   9.820   9.369
10414WAT     H131484   0.023   9.836   9.443
10414WAT     H231485   0.117   9.724   9.369
10415WAT      O31486   2.600   0.157   3.094
10415WAT     H131487   2.673   0.224   3.093
10415WAT     H231488   2.631   0.072   3.051
10416WAT      O31489   3.861   0.710   6.144
10416WAT     H131490   3.771   0.694   6.184
10416WAT     H231491   3.919   0.629   6.161
10417WAT      O31492   0.390   6.316   4.691
10417WAT     H131493   0.300   6.271   4.692
10417WAT     H231494   0.447   6.274   4.621
10418WAT      O31495   4.023   3.805   9.308
10418WAT     H131496   3.925   3.799   9.328
10418WAT     H231497   4.075   3.765   9.384
10419WAT      O31498   5.039   2.008   0.529
10419WAT     H131499   5.064   1.985   0.435
10419WAT     H231500   4.970   1.944   0.562
10420WAT      O31501   4.222   5.146   9.324
10420WAT     H131502   4.195   5.233   9.284
10420WAT     H231503   4.148   5.110   9.381
10421WAT      O31504   8.028   4.180   9.447
10421WAT     H131505   8.005   4.175   9.544
10421WAT     H231506   8.001   4.095   9.402
10422WAT      O31507   3.372   6.341   2.597
10422WAT     H131508   3.284   6.316   2.637
10422WAT     H231509   3.402   6.269   2.534
10423WAT      O31510   9.434   1.816   6.032
10423WAT     H131511   9.377   1.867   5.967
10423WAT     H231512   9.524   1.859   6.038
10424WAT      O31513   8.537   1.842   5.846
10424WAT     H131514   8.518   1.753   5.887
10424WAT     H231515   8.600   1.830   5.769
10425WAT      O31516   1.300   1.881   5.866
10425WAT     H131517   1.291   1.925   5.956
10425WAT     H231518   1.393   1.847   5.855
10426WAT      O31519   4.526   5.759   1.440
10426WAT     H131520   4.553   5.823   1.512
10426WAT     H231521   4.547   5.798   1.351
10427WAT      O31522   9.674   2.778   9.647
10427WAT     H131523   9.741   2.852   9.654
10427WAT     H231524   9.587   2.809   9.685
10428WAT      O31525   3.702   8.358   0.688
10428WAT     H131526   3.638   8.373   0.764
10428WAT     H231527   3.654   8.314   0.612
10429WAT      O31528   4.115   4.459   6.055
10429WAT     H131529   4.201   4.508   6.041
10429WAT     H231530   4.049   4.519   6.100
10430WAT      O31531   8.424   2.884   9.250
10430WAT     H131532   8.350   2.948   9.230
10430WAT     H231533   8.505   2.935   9.282
10431WAT      O31534   4.306   3.344   4.241
10431WAT     H131535   4.378   3.355   4.172
10431WAT     H231536   4.306   3.422   4.303
10432WAT      O31537   9.096   8.599   4.348
10432WAT     H131538   9.063   8.692   4.363
10432WAT     H231539   9.019   8.539   4.327
10433WAT      O31540   5.445   2.993   9.381
10433WAT     H131541   5.482   2.927   9.446
10433WAT     H231542   5.350   3.015   9.406
10434WAT      O31543   9.012   3.334   3.803
10434WAT     H131544   8.966   3.247   3.786
10434WAT     H231545   8.977   3.403   3.739
10435WAT      O31546   1.983   2.471   8.306
10435WAT     H131547   1.893   2.429   8.300
10435WAT     H231548   1.980   2.549   8.369
10436WAT      O31549   6.748   5.952   5.524
10436WAT     H131550   6.651   5.975   5.529
10436WAT     H231551   6.776   5.945   5.428
10437WAT      O31552   4.236   9.369   6.295
10437WAT     H131553   4.170   9.389   6.223
10437WAT     H231554   4.247   9.270   6.304
10438WAT      O31555   0.150   3.992   3.730
10438WAT     H131556   0.070   3.971   3.787
10438WAT     H231557   0.222   3.925   3.747
10439WAT      O31558   8.949   1.983   0.656
10439WAT     H131559   9.013   2.050   0.693
10439WAT     H231560   8.858   2.000   0.692
10440WAT      O31561   8.714   0.281   9.779
10440WAT     H131562   8.727   0.352   9.709
10440WAT     H231563   8.699   0.324   9.868
10441WAT      O31564   4.245   7.857   3.853
10441WAT     H131565   4.154   7.891   3.875
10441WAT     H231566   4.275   7.896   3.766
10442WAT      O31567   0.708   8.473   8.379
10442WAT     H131568   0.741   8.406   8.446
10442WAT     H231569   0.685   8.425   8.294
10443WAT      O31570   8.495   8.480   5.051
10443WAT     H131571   8.592   8.491   5.073
10443WAT     H231572   8.452   8.570   5.041
10444WAT      O31573   9.861   7.247   2.363
10444WAT     H131574   9.794   7.304   2.315
10444WAT     H231575   9.818   7.203   2.442
10445WAT      O31576   4.533   7.039   3.770
10445WAT     H131577   4.460   7.053   3.837
10445WAT     H231578   4.547   6.941   3.756
10446WAT      O31579   1.474   1.499   6.348
10446WAT     H131580   1.423   1.426   6.394
10446WAT     H231581   1.503   1.466   6.258
10447WAT      O31582   6.230   5.750   4.738
10447WAT     H131583   6.296   5.821   4.715
10447WAT     H231584   6.193   5.711   4.653
10448WAT      O31585   7.630   6.467   4.965
10448WAT     H131586   7.725   6.439   4.979
10448WAT     H231587   7.587   6.407   4.897
10449WAT      O31588   9.484   1.453   9.678
10449WAT     H131589   9.500   1.395   9.598
10449WAT     H231590   9.572   1.475   9.721
10450WAT      O31591   6.466   8.822   8.170
10450WAT     H131592   6.500   8.728   8.178
10450WAT     H231593   6.523   8.884   8.224
10451WAT      O31594   0.619   7.822   1.340
10451WAT     H131595   0.543   7.880   1.370
10451WAT     H231596   0.633   7.747   1.405
10452WAT      O31597   0.080   3.255   4.782
10452WAT     H131598   0.028   3.309   4.849
10452WAT     H231599   0.080   3.159   4.809
10453WAT      O31600   7.915   5.392   4.703
10453WAT     H131601   8.010   5.413   4.727
10453WAT     H231602   7.876   5.468   4.651
10454WAT      O31603   3.261   5.955   2.116
10454WAT     H131604   3.212   5.999   2.040
10454WAT     H231605   3.214   5.975   2.202
10455WAT      O31606   8.967   9.685   1.705
10455WAT     H131607   9.065   9.667   1.699
10455WAT     H231608   8.923   9.612   1.758
10456WAT      O31609   4.569   7.740   7.516
10456WAT     H131610   4.627   7.810   7.557
10456WAT     H231611   4.474   7.771   7.515
10457WAT      O31612   0.808   0.898   9.537
10457WAT     H131613   0.851   0.936   9.455
10457WAT     H231614   0.754   0.818   9.513
10458WAT      O31615   8.753   1.547   8.961
10458WAT     H131616   8.768   1.530   9.058
10458WAT     H231617   8.835   1.587   8.921
10459WAT      O31618   0.312   9.742   6.780
10459WAT     H131619   0.379   9.733   6.854
10459WAT     H231620   0.358   9.768   6.696
10460WAT      O31621   8.002   0.003   6.552
10460WAT     H131622   8.006   0.099   6.578
10460WAT     H231623   7.911  -0.034   6.571
10461WAT      O31624   1.146   4.158   9.095
10461WAT     H131625   1.116   4.234   9.153
10461WAT     H231626   1.139   4.072   9.146
10462WAT      O31627   9.108   6.876   4.854
10462WAT     H131628   9.196   6.829   4.852
10462WAT     H231629   9.035   6.809   4.840
10463WAT      O31630   0.662   1.919   1.940
10463WAT     H131631   0.706   1.878   1.860
10463WAT     H231632   0.661   2.018   1.931
10464WAT      O31633   3.608   1.744   9.622
10464WAT     H131634   3.651   1.697   9.544
10464WAT     H231635   3.548   1.681   9.670
10465WAT      O31636   5.668   2.290   3.877
10465WAT     H131637   5.760   2.272   3.842
10465WAT     H231638   5.662   2.260   3.972
10466WAT      O31639   2.468   1.527   7.515
10466WAT     H131640   2.376   1.488   7.517
10466WAT     H231641   2.507   1.517   7.424
10467WAT      O31642   6.610   2.375   1.931
10467WAT     H131643   6.635   2.410   1.841
10467WAT     H231644   6.521   2.329   1.925
10468WAT      O31645   9.350   6.434   5.763
10468WAT     H131646   9.322   6.412   5.856
10468WAT     H231647   9.440   6.396   5.744
10469WAT      O31648   6.057   4.066   2.255
10469WAT     H131649   5.976   4.068   2.196
10469WAT     H231650   6.028   4.065   2.351
10470WAT      O31651   8.622   5.518   6.049
10470WAT     H131652   8.631   5.439   5.989
10470WAT     H231653   8.530   5.519   6.089
10471WAT      O31654   1.272   0.455   5.095
10471WAT     H131655   1.250   0.420   5.186
10471WAT     H231656   1.366   0.428   5.071
10472WAT      O31657   5.217   1.226   6.425
10472WAT     H131658   5.230   1.131   6.396
10472WAT     H231659   5.212   1.285   6.344
10473WAT      O31660   7.945   1.374   5.179
10473WAT     H131661   7.955   1.280   5.148
10473WAT     H231662   7.899   1.375   5.268
10474WAT      O31663   6.750   4.445   3.736
10474WAT     H131664   6.713   4.479   3.823
10474WAT     H231665   6.675   4.425   3.674
10475WAT      O31666   5.664   0.433   2.120
10475WAT     H131667   5.732   0.458   2.051
10475WAT     H231668   5.668   0.335   2.137
10476WAT      O31669   4.370   6.611   6.058
10476WAT     H131670   4.435   6.542   6.027
10476WAT     H231671   4.372   6.689   5.995
10477WAT      O31672   4.182   6.735   0.142
10477WAT     H131673   4.273   6.695   0.158
10477WAT     H231674   4.115   6.688   0.199
10478WAT      O31675   5.246   1.168   1.948
10478WAT     H131676   5.175   1.098   1.946
10478WAT     H231677   5.336   1.124   1.937
10479WAT      O31678   7.289   5.799   7.240
10479WAT     H131679   7.361   5.734   7.216
10479WAT     H231680   7.200   5.761   7.212
10480WAT      O31681   7.605   8.809   2.641
10480WAT     H131682   7.544   8.767   2.574
10480WAT     H231683   7.616   8.747   2.719
10481WAT      O31684   8.374   1.427   0.265
10481WAT     H131685   8.466   1.388   0.261
10481WAT     H231686   8.329   1.417   0.176
10482WAT      O31687   5.442   3.429   0.899
10482WAT     H131688   5.363   3.379   0.863
10482WAT     H231689   5.526   3.386   0.868
10483WAT      O31690   7.529   4.299   7.547
10483WAT     H131691   7.507   4.236   7.473
10483WAT     H231692   7.516   4.393   7.515
10484WAT      O31693   8.901   8.090   9.676
10484WAT     H131694   8.868   8.113   9.767
10484WAT     H231695   8.921   7.992   9.671
10485WAT      O31696   3.711   3.190   6.656
10485WAT     H131697   3.622   3.228   6.629
10485WAT     H231698   3.746   3.242   6.734
10486WAT      O31699   4.523   4.292   4.591
10486WAT     H131700   4.606   4.265   4.542
10486WAT     H231701   4.471   4.357   4.536
10487WAT      O31702   0.050   8.313   2.182
10487WAT     H131703   0.011   8.286   2.270
10487WAT     H231704  -0.024   8.340   2.120
10488WAT      O31705   9.573   2.472   5.156
10488WAT     H131706   9.638   2.454   5.081
10488WAT     H231707   9.606   2.428   5.239
10489WAT      O31708   3.229   9.464   6.270
10489WAT     H131709   3.196   9.556   6.250
10489WAT     H231710   3.158   9.413   6.317
10490WAT      O31711   2.806   4.993   6.786
10490WAT     H131712   2.809   4.939   6.702
10490WAT     H231713   2.821   5.089   6.764
10491WAT      O31714   2.881   5.767   7.719
10491WAT     H131715   2.919   5.852   7.755
10491WAT     H231716   2.832   5.786   7.634
10492WAT      O31717   8.743   0.633   5.966
10492WAT     H131718   8.652   0.664   5.935
10492WAT     H231719   8.732   0.562   6.035
10493WAT      O31720   2.367   9.132   2.454
10493WAT     H131721   2.325   9.222   2.467
10493WAT     H231722   2.322   9.065   2.512
10494WAT      O31723   5.030   0.017   1.078
10494WAT     H131724   4.935   0.047   1.067
10494WAT     H231725   5.047  -0.060   1.017
10495WAT      O31726   1.773   9.471   8.390
10495WAT     H131727   1.686   9.435   8.355
10495WAT     H231728   1.758   9.562   8.428
10496WAT      O31729   3.948   8.098   1.049
10496WAT     H131730   3.874   8.164   1.054
10496WAT     H231731   3.920   8.013   1.095
10497WAT      O31732   0.740   0.826   5.778
10497WAT     H131733   0.801   0.905   5.782
10497WAT     H231734   0.741   0.779   5.867
10498WAT      O31735   4.880   7.602   1.309
10498WAT     H131736   4.967   7.645   1.286
10498WAT     H231737   4.861   7.614   1.406
10499WAT      O31738   1.459   6.635   8.041
10499WAT     H131739   1.518   6.566   8.083
10499WAT     H231740   1.363   6.616   8.064
10500WAT      O31741   1.867   9.549   6.152
10500WAT     H131742   1.919   9.613   6.208
10500WAT     H231743   1.774   9.541   6.188
10501WAT      O31744   9.726   3.191   0.067
10501WAT     H131745   9.669   3.111   0.086
10501WAT     H231746   9.704   3.264   0.131
10502WAT      O31747   1.237   9.808   1.140
10502WAT     H131748   1.158   9.768   1.093
10502WAT     H231749   1.282   9.738   1.196
10503WAT      O31750   0.022   9.825   2.503
10503WAT     H131751  -0.040   9.756   2.464
10503WAT     H231752   0.109   9.821   2.454
10504WAT      O31753   0.328   6.464   6.527
10504WAT     H131754   0.299   6.421   6.441
10504WAT     H231755   0.404   6.411   6.566
10505WAT      O31756   8.333   0.653   4.629
10505WAT     H131757   8.300   0.747   4.619
10505WAT     H231758   8.270   0.602   4.688
10506WAT      O31759   4.811   6.563   4.141
10506WAT     H131760   4.796   6.602   4.050
10506WAT     H231761   4.828   6.465   4.132
10507WAT      O31762   5.897   7.811   1.245
10507WAT     H131763   5.926   7.834   1.152
10507WAT     H231764   5.798   7.796   1.246
10508WAT      O31765   7.270   6.319   9.148
10508WAT     H131766   7.271   6.384   9.072
10508WAT     H231767   7.211   6.354   9.221
10509WAT      O31768   6.411   7.229   9.573
10509WAT     H131769   6.508   7.250   9.558
10509WAT     H231770   6.396   7.132   9.556
10510WAT      O31771   1.433   1.924   3.027
10510WAT     H131772   1.385   1.998   2.980
10510WAT     H231773   1.530   1.926   3.002
10511WAT      O31774   0.535   3.189   7.372
10511WAT     H131775   0.507   3.110   7.317
10511WAT     H231776   0.463   3.259   7.367
10512WAT      O31777   2.463   2.996   3.251
10512WAT     H131778   2.468   2.906   3.293
10512WAT     H231779   2.555   3.030   3.232
10513WAT      O31780   8.091   8.653   6.082
10513WAT     H131781   8.014   8.592   6.100
10513WAT     H231782   8.100   8.719   6.156
10514WAT      O31783   7.144   4.511   9.499
10514WAT     H131784   7.165   4.506   9.402
10514WAT     H231785   7.228   4.532   9.550
10515WAT      O31786   8.691   1.438   5.418
10515WAT     H131787   8.711   1.352   5.371
10515WAT     H231788   8.765   1.503   5.401
10516WAT      O31789   9.854   1.758   5.183
10516WAT     H131790   9.953   1.767   5.187
10516WAT     H231791   9.828   1.707   5.102
10517WAT      O31792   3.178   1.191   0.760
10517WAT     H131793   3.184   1.246   0.676
10517WAT     H231794   3.227   1.237   0.833
10518WAT      O31795   2.509   2.079   7.260
10518WAT     H131796   2.483   2.107   7.353
10518WAT     H231797   2.581   2.140   7.226
10519WAT      O31798   4.695   2.382   2.256
10519WAT     H131799   4.766   2.321   2.222
10519WAT     H231800   4.610   2.365   2.206
10520WAT      O31801   0.616   8.797   3.887
10520WAT     H131802   0.669   8.880   3.906
10520WAT     H231803   0.594   8.751   3.973
10521WAT      O31804   9.255   4.531   7.558
10521WAT     H131805   9.179   4.546   7.494
10521WAT     H231806   9.331   4.592   7.534
10522WAT      O31807   8.187   0.547   1.938
10522WAT     H131808   8.135   0.574   2.019
10522WAT     H231809   8.207   0.449   1.942
10523WAT      O31810   2.668   2.322   7.024
10523WAT     H131811   2.676   2.422   7.032
10523WAT     H231812   2.649   2.297   6.929
10524WAT      O31813   2.654   5.584   3.438
10524WAT     H131814   2.661   5.549   3.531
10524WAT     H231815   2.605   5.672   3.439
10525WAT      O31816   5.642   2.797   9.875
10525WAT     H131817   5.714   2.742   9.916
10525WAT     H231818   5.553   2.760   9.902
10526WAT      O31819   2.101   4.426   1.380
10526WAT     H131820   2.126   4.468   1.467
10526WAT     H231821   2.009   4.388   1.386
10527WAT      O31822   4.701   1.914   1.837
10527WAT     H131823   4.747   2.003   1.844
10527WAT     H231824   4.602   1.926   1.843
10528WAT      O31825   6.572   4.690   1.087
10528WAT     H131826   6.569   4.721   0.992
10528WAT     H231827   6.481   4.660   1.115
10529WAT      O31828   6.450   6.528   3.777
10529WAT     H131829   6.546   6.535   3.804
10529WAT     H231830   6.412   6.442   3.812
10530WAT      O31831   9.470   0.269   5.787
10530WAT     H131832   9.502   0.323   5.709
10530WAT     H231833   9.545   0.257   5.852
10531WAT      O31834   0.585   7.834   7.040
10531WAT     H131835   0.649   7.801   7.109
10531WAT     H231836   0.512   7.886   7.085
10532WAT      O31837   4.630   1.749   2.286
10532WAT     H131838   4.603   1.721   2.193
10532WAT     H231839   4.631   1.849   2.291
10533WAT      O31840   0.449   4.099   1.817
10533WAT     H131841   0.500   4.046   1.885
10533WAT     H231842   0.402   4.037   1.754
10534WAT      O31843   0.844   4.538   4.056
10534WAT     H131844   0.831   4.458   4.116
10534WAT     H231845   0.918   4.520   3.992
10535WAT      O31846   6.392   0.039   6.055
10535WAT     H131847   6.390  -0.055   6.023
10535WAT     H231848   6.482   0.079   6.037
10536WAT      O31849   0.171   2.864   5.528
10536WAT     H131850   0.195   2.958   5.504
10536WAT     H231851   0.138   2.816   5.447
10537WAT      O31852   9.635   9.254   4.446
10537WAT     H131853   9.592   9.164   4.448
10537WAT     H231854   9.571   9.322   4.482
10538WAT      O31855   8.933   4.123   0.066
10538WAT     H131856   9.008   4.090   0.009
10538WAT     H231857   8.971   4.178   0.141
10539WAT      O31858   4.889   8.148   4.751
10539WAT     H131859   4.944   8.066   4.764
10539WAT     H231860   4.917   8.193   4.666
10540WAT      O31861   2.672   3.162   0.151
10540WAT     H131862   2.609   3.193   0.222
10540WAT     H231863   2.669   3.225   0.074
10541WAT      O31864   7.845   9.832   4.001
10541WAT     H131865   7.798   9.797   4.082
10541WAT     H231866   7.810   9.923   3.979
10542WAT      O31867   8.180   8.399   4.837
10542WAT     H131868   8.163   8.302   4.823
10542WAT     H231869   8.132   8.430   4.919
10543WAT      O31870   9.367   0.944   6.691
10543WAT     H131871   9.363   0.844   6.693
10543WAT     H231872   9.460   0.973   6.669
10544WAT      O31873   6.814   1.563   8.350
10544WAT     H131874   6.730   1.600   8.311
10544WAT     H231875   6.880   1.545   8.277
10545WAT      O31876   5.886   0.971   9.698
10545WAT     H131877   5.793   0.956   9.664
10545WAT     H231878   5.952   0.936   9.631
10546WAT      O31879   8.980   8.895   9.874
10546WAT     H131880   9.001   8.982   9.917
10546WAT     H231881   8.882   8.877   9.881
10547WAT      O31882   7.974   2.099   8.711
10547WAT     H131883   8.071   2.104   8.688
10547WAT     H231884   7.923   2.062   8.633
10548WAT      O31885   6.950   7.232   4.979
10548WAT     H131886   6.905   7.322   4.982
10548WAT     H231887   6.905   7.175   4.911
10549WAT      O31888   7.185   4.813   8.797
10549WAT     H131889   7.128   4.818   8.878
10549WAT     H231890   7.266   4.757   8.816
10550WAT      O31891   6.678   9.120   2.253
10550WAT     H131892   6.766   9.099   2.295
10550WAT     H231893   6.685   9.110   2.154
10551WAT      O31894   2.935   7.583   0.696
10551WAT     H131895   2.894   7.532   0.771
10551WAT     H231896   2.971   7.520   0.628
10552WAT      O31897   8.432   0.698   6.275
10552WAT     H131898   8.424   0.599   6.264
10552WAT     H231899   8.341   0.737   6.286
10553WAT      O31900   8.685   3.906   2.754
10553WAT     H131901   8.621   3.980   2.732
10553WAT     H231902   8.654   3.858   2.837
10554WAT      O31903   8.603   5.155   9.243
10554WAT     H131904   8.669   5.176   9.315
10554WAT     H231905   8.563   5.065   9.260
10555WAT      O31906   0.251   4.158   7.089
10555WAT     H131907   0.255   4.215   7.007
10555WAT     H231908   0.338   4.109   7.099
10556WAT      O31909   5.968   2.111   2.961
10556WAT     H131910   5.982   2.026   3.012
10556WAT     H231911   6.057   2.150   2.937
10557WAT      O31912   8.983   7.738   5.012
10557WAT     H131913   9.039   7.658   4.993
10557WAT     H231914   8.889   7.710   5.033
10558WAT      O31915   8.150   1.580   5.741
10558WAT     H131916   8.089   1.585   5.662
10558WAT     H231917   8.140   1.663   5.796
10559WAT      O31918   5.064   6.819   9.101
10559WAT     H131919   5.121   6.832   9.021
10559WAT     H231920   5.085   6.890   9.169
10560WAT      O31921   9.730   1.723   1.578
10560WAT     H131922   9.783   1.649   1.620
10560WAT     H231923   9.782   1.808   1.583
10561WAT      O31924   0.943   4.235   2.830
10561WAT     H131925   0.945   4.330   2.800
10561WAT     H231926   0.977   4.230   2.924
10562WAT      O31927   6.328   4.130   9.595
10562WAT     H131928   6.381   4.174   9.667
10562WAT     H231929   6.352   4.033   9.590
10563WAT      O31930   2.692   2.076   5.038
10563WAT     H131931   2.742   2.117   4.962
10563WAT     H231932   2.594   2.082   5.019
10564WAT      O31933   0.386   2.979   0.113
10564WAT     H131934   0.465   2.924   0.139
10564WAT     H231935   0.310   2.919   0.087
10565WAT      O31936   8.540   3.208   7.018
10565WAT     H131937   8.614   3.144   6.998
10565WAT     H231938   8.466   3.196   6.952
10566WAT      O31939   2.822   7.389   6.067
10566WAT     H131940   2.821   7.289   6.066
10566WAT     H231941   2.837   7.423   5.974
10567WAT      O31942   9.358   5.127   4.883
10567WAT     H131943   9.381   5.036   4.919
10567WAT     H231944   9.385   5.132   4.787
10568WAT      O31945   4.742   3.746   8.137
10568WAT     H131946   4.744   3.651   8.168
10568WAT     H231947   4.796   3.803   8.200
10569WAT      O31948   7.628   4.266   2.333
10569WAT     H131949   7.602   4.345   2.389
10569WAT     H231950   7.699   4.293   2.269
10570WAT      O31951   6.852   7.195   1.174
10570WAT     H131952   6.874   7.119   1.235
10570WAT     H231953   6.791   7.259   1.221
10571WAT      O31954   2.589   0.608   9.723
10571WAT     H131955   2.659   0.540   9.744
10571WAT     H231956   2.559   0.652   9.807
10572WAT      O31957   3.727   1.300   1.168
10572WAT     H131958   3.705   1.338   1.257
10572WAT     H231959   3.826   1.290   1.159
10573WAT      O31960   4.443   7.454   1.454
10573WAT     H131961   4.415   7.457   1.550
10573WAT     H231962   4.507   7.528   1.436
10574WAT      O31963   4.106   3.622   8.803
10574WAT     H131964   4.184   3.561   8.823
10574WAT     H231965   4.077   3.668   8.886
10575WAT      O31966   2.808   9.636   5.284
10575WAT     H131967   2.856   9.590   5.209
10575WAT     H231968   2.737   9.696   5.247
10576WAT      O31969   9.371   2.718   6.376
10576WAT     H131970   9.361   2.720   6.476
10576WAT     H231971   9.373   2.624   6.345
10577WAT      O31972   2.980   6.283   6.275
10577WAT     H131973   2.960   6.283   6.177
10577WAT     H231974   3.043   6.209   6.296
10578WAT      O31975   3.967   8.324   1.642
10578WAT     H131976   4.002   8.415   1.620
10578WAT     H231977   3.969   8.268   1.560
10579WAT      O31978   6.769   1.604   9.472
10579WAT     H131979   6.675   1.632   9.452
10579WAT     H231980   6.783   1.509   9.442
10580WAT      O31981   2.797   7.270   4.752
10580WAT     H131982   2.846   7.248   4.837
10580WAT     H231983   2.824   7.361   4.721
10581WAT      O31984   8.739   9.196   0.650
10581WAT     H131985   8.780   9.281   0.616
10581WAT     H231986   8.741   9.195   0.750
10582WAT      O31987   8.956   7.055   1.518
10582WAT     H131988   8.984   6.999   1.596
10582WAT     H231989   8.989   7.014   1.434
10583WAT      O31990   5.358   5.648   8.476
10583WAT     H131991   5.425   5.605   8.415
10583WAT     H231992   5.285   5.584   8.496
10584WAT      O31993   6.473   5.627   4.281
10584WAT     H131994   6.525   5.705   4.245
10584WAT     H231995   6.383   5.658   4.310
10585WAT      O31996   1.452   1.112   6.981
10585WAT     H131997   1.440   1.053   7.060
10585WAT     H231998   1.543   1.154   6.984
10586WAT      O31999   5.986   7.494   5.677
10586WAT     H132000   6.080   7.467   5.700
10586WAT     H232001   5.932   7.413   5.658
10587WAT      O32002   1.214   8.900   1.446
10587WAT     H132003   1.117   8.904   1.420
10587WAT     H232004   1.221   8.880   1.543
10588WAT      O32005   0.998   7.079   5.594
10588WAT     H132006   1.005   7.062   5.692
10588WAT     H232007   1.085   7.117   5.561
10589WAT      O32008   4.616   5.440   0.903
10589WAT     H132009   4.651   5.355   0.864
10589WAT     H232010   4.519   5.429   0.926
10590WAT      O32011   9.821   0.028   3.081
10590WAT     H132012   9.778   0.093   3.019
10590WAT     H232013   9.904   0.069   3.119
10591WAT      O32014   9.244   1.867   4.735
10591WAT     H132015   9.211   1.825   4.650
10591WAT     H232016   9.283   1.957   4.715
10592WAT      O32017   3.422   4.132   8.376
10592WAT     H132018   3.481   4.059   8.342
10592WAT     H232019   3.458   4.220   8.345
10593WAT      O32020   1.012   9.161   7.680
10593WAT     H132021   1.021   9.253   7.719
10593WAT     H232022   0.951   9.106   7.736
10594WAT      O32023   1.224   8.763   1.693
10594WAT     H132024   1.203   8.765   1.791
10594WAT     H232025   1.290   8.690   1.674
10595WAT      O32026   6.996   8.360   7.473
10595WAT     H132027   6.975   8.455   7.452
10595WAT     H232028   6.967   8.338   7.566
10596WAT      O32029   2.084   8.229   8.185
10596WAT     H132030   2.125   8.148   8.144
10596WAT     H232031   2.102   8.309   8.128
10597WAT      O32032   3.539   0.907   4.266
10597WAT     H132033   3.498   0.936   4.352
10597WAT     H232034   3.566   0.811   4.272
10598WAT      O32035   3.764   2.165   7.895
10598WAT     H132036   3.722   2.249   7.931
10598WAT     H232037   3.693   2.105   7.860
10599WAT      O32038   7.222   0.219   0.823
10599WAT     H132039   7.246   0.316   0.833
10599WAT     H232040   7.231   0.192   0.727
10600WAT      O32041   0.263   6.672   2.104
10600WAT     H132042   0.338   6.619   2.065
10600WAT     H232043   0.176   6.637   2.069
10601WAT      O32044   3.384   0.733   6.969
10601WAT     H132045   3.459   0.799   6.964
10601WAT     H232046   3.344   0.720   6.879
10602WAT      O32047   6.573   1.769   7.379
10602WAT     H132048   6.603   1.681   7.413
10602WAT     H232049   6.649   1.834   7.380
10603WAT      O32050   8.777   8.326   2.534
10603WAT     H132051   8.838   8.254   2.567
10603WAT     H232052   8.683   8.303   2.557
10604WAT      O32053   3.968   9.623   1.171
10604WAT     H132054   3.926   9.544   1.215
10604WAT     H232055   3.960   9.614   1.071
10605WAT      O32056   5.320   6.271   8.876
10605WAT     H132057   5.293   6.183   8.915
10605WAT     H232058   5.350   6.332   8.949
10606WAT      O32059   7.923   3.942   7.741
10606WAT     H132060   7.896   3.934   7.837
10606WAT     H232061   7.847   3.915   7.682
10607WAT      O32062   4.540   7.140   4.442
10607WAT     H132063   4.454   7.088   4.446
10607WAT     H232064   4.617   7.081   4.465
10608WAT      O32065   7.384   3.543   3.748
10608WAT     H132066   7.298   3.491   3.740
10608WAT     H232067   7.367   3.639   3.729
10609WAT      O32068   8.588   0.287   5.107
10609WAT     H132069   8.551   0.232   5.181
10609WAT     H232070   8.655   0.233   5.055
10610WAT      O32071   3.905   5.909   8.549
10610WAT     H132072   3.814   5.895   8.586
10610WAT     H232073   3.946   5.991   8.590
10611WAT      O32074   7.746   1.509   9.435
10611WAT     H132075   7.718   1.591   9.386
10611WAT     H232076   7.832   1.475   9.397
10612WAT      O32077   0.770   4.171   2.419
10612WAT     H132078   0.862   4.134   2.429
10612WAT     H232079   0.770   4.241   2.348
10613WAT      O32080   8.061   0.571   8.404
10613WAT     H132081   8.043   0.549   8.500
10613WAT     H232082   8.071   0.670   8.394
10614WAT      O32083   9.537   3.920   8.542
10614WAT     H132084   9.505   3.881   8.455
10614WAT     H232085   9.565   4.015   8.528
10615WAT      O32086   2.257   6.334   0.665
10615WAT     H132087   2.351   6.362   0.678
10615WAT     H232088   2.234   6.339   0.567
10616WAT      O32089   9.349   2.577   7.004
10616WAT     H132090   9.402   2.540   6.928
10616WAT     H232091   9.323   2.503   7.066
10617WAT      O32092   6.587   5.493   4.087
10617WAT     H132093   6.557   5.529   3.999
10617WAT     H232094   6.546   5.546   4.161
10618WAT      O32095   0.135   7.462   7.542
10618WAT     H132096   0.174   7.547   7.577
10618WAT     H232097   0.147   7.390   7.609
10619WAT      O32098   2.397   1.748   6.360
10619WAT     H132099   2.342   1.697   6.294
10619WAT     H232100   2.466   1.802   6.312
10620WAT      O32101   7.392   6.321   0.669
10620WAT     H132102   7.374   6.407   0.717
10620WAT     H232103   7.391   6.337   0.571
10621WAT      O32104   7.771   7.881   3.380
10621WAT     H132105   7.852   7.842   3.335
10621WAT     H232106   7.741   7.819   3.453
10622WAT      O32107   4.511   7.183   3.106
10622WAT     H132108   4.600   7.226   3.093
10622WAT     H232109   4.482   7.139   3.020
10623WAT      O32110   3.582   0.498   3.110
10623WAT     H132111   3.513   0.558   3.071
10623WAT     H232112   3.538   0.427   3.164
10624WAT      O32113   6.080   4.351   9.144
10624WAT     H132114   6.083   4.438   9.194
10624WAT     H232115   6.044   4.367   9.052
10625WAT      O32116   0.323   9.273   6.318
10625WAT     H132117   0.266   9.209   6.370
10625WAT     H232118   0.417   9.241   6.318
10626WAT      O32119   6.482   2.732   0.949
10626WAT     H132120   6.490   2.641   0.909
10626WAT     H232121   6.559   2.748   1.010
10627WAT      O32122   9.528   0.919   5.278
10627WAT     H132123   9.552   0.947   5.371
10627WAT     H232124   9.551   0.823   5.265
10628WAT      O32125   9.542   8.221   1.527
10628WAT     H132126   9.539   8.232   1.626
10628WAT     H232127   9.593   8.137   1.505
10629WAT      O32128   3.126   5.205   0.404
10629WAT     H132129   3.109   5.273   0.475
10629WAT     H232130   3.087   5.236   0.318
10630WAT      O32131   2.902   5.171   8.600
10630WAT     H132132   2.988   5.199   8.555
10630WAT     H232133   2.896   5.215   8.690
10631WAT      O32134   8.169   0.997   5.976
10631WAT     H132135   8.130   1.089   5.979
10631WAT     H232136   8.209   0.981   5.886
10632WAT      O32137   4.400   0.238   0.975
10632WAT     H132138   4.374   0.166   0.911
10632WAT     H232139   4.418   0.198   1.064
10633WAT      O32140   8.500   1.827   2.473
10633WAT     H132141   8.580   1.881   2.447
10633WAT     H232142   8.512   1.733   2.443
10634WAT      O32143   4.758   2.566   1.844
10634WAT     H132144   4.779   2.569   1.746
10634WAT     H232145   4.700   2.486   1.863
10635WAT      O32146   3.976   0.508   0.896
10635WAT     H132147   4.005   0.520   0.801
10635WAT     H232148   3.906   0.436   0.900
10636WAT      O32149   7.913   3.654   2.824
10636WAT     H132150   7.850   3.620   2.893
10636WAT     H232151   7.863   3.677   2.740
10637WAT      O32152   8.215   6.576   0.801
10637WAT     H132153   8.236   6.600   0.706
10637WAT     H232154   8.116   6.581   0.815
10638WAT      O32155   6.031   0.367   3.573
10638WAT     H132156   6.120   0.330   3.546
10638WAT     H232157   6.044   0.443   3.637
10639WAT      O32158   7.992   4.144   4.349
10639WAT     H132159   8.053   4.077   4.394
10639WAT     H232160   7.964   4.213   4.415
10640WAT      O32161   5.093   0.382   4.528
10640WAT     H132162   5.153   0.348   4.600
10640WAT     H232163   5.136   0.461   4.483
10641WAT      O32164   2.905   3.492   0.341
10641WAT     H132165   2.856   3.575   0.369
10641WAT     H232166   2.865   3.457   0.257
10642WAT      O32167   1.631   3.285   1.958
10642WAT     H132168   1.617   3.202   1.904
10642WAT     H232169   1.559   3.351   1.935
10643WAT      O32170   2.044   7.872   3.926
10643WAT     H132171   2.088   7.948   3.878
10643WAT     H232172   2.078   7.868   4.020
10644WAT      O32173   8.407   0.749   0.487
10644WAT     H132174   8.384   0.752   0.584
10644WAT     H232175   8.435   0.840   0.456
10645WAT      O32176   0.672   1.370   8.685
10645WAT     H132177   0.590   1.316   8.665
10645WAT     H232178   0.648   1.441   8.751
10646WAT      O32179   0.346   6.739   6.255
10646WAT     H132180   0.280   6.672   6.289
10646WAT     H232181   0.412   6.693   6.196
10647WAT      O32182   2.396   7.774   3.151
10647WAT     H132183   2.298   7.786   3.133
10647WAT     H232184   2.407   7.716   3.232
10648WAT      O32185   6.186   7.891   3.196
10648WAT     H132186   6.150   7.886   3.289
10648WAT     H232187   6.262   7.827   3.185
10649WAT      O32188   2.466   5.164   9.123
10649WAT     H132189   2.560   5.187   9.148
10649WAT     H232190   2.403   5.232   9.161
10650WAT      O32191   9.150   0.907   9.093
10650WAT     H132192   9.087   0.983   9.109
10650WAT     H232193   9.109   0.844   9.027
10651WAT      O32194   4.521   4.068   8.976
10651WAT     H132195   4.470   4.120   8.907
10651WAT     H232196   4.585   4.006   8.931
10652WAT      O32197   2.997   7.317   3.324
10652WAT     H132198   3.037   7.322   3.232
10652WAT     H232199   2.938   7.395   3.339
10653WAT      O32200   4.343   5.819   4.148
10653WAT     H132201   4.390   5.819   4.236
10653WAT     H232202   4.336   5.913   4.114
10654WAT      O32203   4.235   9.021   0.209
10654WAT     H132204   4.303   9.051   0.143
10654WAT     H232205   4.175   9.097   0.232
10655WAT      O32206   3.004   2.658   4.276
10655WAT     H132207   2.919   2.616   4.309
10655WAT     H232208   2.982   2.724   4.204
10656WAT      O32209   4.192   8.638   2.237
10656WAT     H132210   4.238   8.580   2.304
10656WAT     H232211   4.106   8.594   2.209
10657WAT      O32212   5.933   3.550   1.760
10657WAT     H132213   5.926   3.580   1.856
10657WAT     H232214   5.898   3.456   1.753
10658WAT      O32215   2.719   9.561   1.970
10658WAT     H132216   2.644   9.520   1.918
10658WAT     H232217   2.752   9.496   2.038
10659WAT      O32218   6.898   9.656   4.144
10659WAT     H132219   6.871   9.662   4.240
10659WAT     H232220   6.989   9.697   4.132
10660WAT      O32221   7.271   6.759   2.195
10660WAT     H132222   7.275   6.842   2.140
10660WAT     H232223   7.181   6.750   2.238
10661WAT      O32224   3.774   5.548   2.065
10661WAT     H132225   3.854   5.591   2.024
10661WAT     H232226   3.763   5.455   2.029
10662WAT      O32227   3.279   1.185   9.000
10662WAT     H132228   3.372   1.157   9.025
10662WAT     H232229   3.228   1.104   8.970
10663WAT      O32230   1.901   9.347   6.496
10663WAT     H132231   1.972   9.397   6.446
10663WAT     H232232   1.851   9.289   6.433
10664WAT      O32233   0.813   5.009   8.627
10664WAT     H132234   0.868   5.029   8.546
10664WAT     H232235   0.736   5.073   8.632
10665WAT      O32236   2.799   7.480   0.142
10665WAT     H132237   2.892   7.461   0.175
10665WAT     H232238   2.774   7.574   0.164
10666WAT      O32239   2.574   2.266   0.094
10666WAT     H132240   2.575   2.291   0.190
10666WAT     H232241   2.489   2.299   0.052
10667WAT      O32242   0.805   3.212   9.381
10667WAT     H132243   0.721   3.200   9.433
10667WAT     H232244   0.884   3.203   9.442
10668WAT      O32245   7.440   7.888   5.901
10668WAT     H132246   7.409   7.810   5.956
10668WAT     H232247   7.527   7.866   5.859
10669WAT      O32248   4.041   6.471   0.069
10669WAT     H132249   4.036   6.454   0.167
10669WAT     H232250   4.137   6.471   0.040
10670WAT      O32251   8.734   3.668   8.312
10670WAT     H132252   8.809   3.609   8.341
10670WAT     H232253   8.707   3.644   8.219
10671WAT      O32254   2.104   1.673   1.235
10671WAT     H132255   2.184   1.731   1.226
10671WAT     H232256   2.041   1.691   1.159
10672WAT      O32257   9.156   9.603   7.792
10672WAT     H132258   9.073   9.638   7.750
10672WAT     H232259   9.135   9.520   7.844
10673WAT      O32260   5.665   3.443   9.858
10673WAT     H132261   5.732   3.510   9.890
10673WAT     H232262   5.596   3.428   9.929
10674WAT      O32263   8.143   6.481   5.959
10674WAT     H132264   8.085   6.409   5.921
10674WAT     H232265   8.187   6.449   6.043
10675WAT      O32266   1.397   7.097   9.257
10675WAT     H132267   1.448   7.114   9.172
10675WAT     H232268   1.323   7.032   9.238
10676WAT      O32269   4.968   1.093   9.644
10676WAT     H132270   4.908   1.158   9.596
10676WAT     H232271   4.912   1.030   9.697
10677WAT      O32272   0.034   3.481   2.119
10677WAT     H132273   0.053   3.453   2.025
10677WAT     H232274  -0.009   3.571   2.119
10678WAT      O32275   3.684   5.419   3.992
10678WAT     H132276   3.757   5.375   3.939
10678WAT     H232277   3.658   5.505   3.947
10679WAT      O32278   9.435   6.917   5.192
10679WAT     H132279   9.437   6.833   5.137
10679WAT     H232280   9.434   6.893   5.289
10680WAT      O32281   0.121   7.805   1.159
10680WAT     H132282   0.044   7.768   1.108
10680WAT     H232283   0.204   7.754   1.137
10681WAT      O32284   4.387   6.169   0.885
10681WAT     H132285   4.340   6.083   0.902
10681WAT     H232286   4.351   6.210   0.801
10682WAT      O32287   7.083   2.725   0.404
10682WAT     H132288   7.098   2.628   0.425
10682WAT     H232289   7.171   2.770   0.391
10683WAT      O32290   4.451   7.039   9.419
10683WAT     H132291   4.398   7.124   9.415
10683WAT     H232292   4.543   7.055   9.384
10684WAT      O32293   7.374   5.180   1.984
10684WAT     H132294   7.458   5.126   1.987
10684WAT     H232295   7.391   5.267   1.938
10685WAT      O32296   2.013   2.695   5.752
10685WAT     H132297   1.979   2.715   5.660
10685WAT     H232298   2.063   2.609   5.752
10686WAT      O32299   4.517   0.660   9.514
10686WAT     H132300   4.505   0.648   9.416
10686WAT     H232301   4.558   0.749   9.533
10687WAT      O32302   3.228   6.134   5.804
10687WAT     H132303   3.277   6.175   5.881
10687WAT     H232304   3.173   6.203   5.759
10688WAT      O32305   3.706   7.327   6.333
10688WAT     H132306   3.666   7.415   6.358
10688WAT     H232307   3.652   7.285   6.260
10689WAT      O32308   3.488   2.900   6.453
10689WAT     H132309   3.539   2.855   6.380
10689WAT     H232310   3.437   2.977   6.415
10690WAT      O32311   1.126   3.480   9.624
10690WAT     H132312   1.109   3.459   9.721
10690WAT     H232313   1.067   3.555   9.595
10691WAT      O32314   2.172   4.539   1.598
10691WAT     H132315   2.183   4.495   1.686
10691WAT     H232316   2.259   4.579   1.569
10692WAT      O32317   2.378   2.424   6.799
10692WAT     H132318   2.440   2.345   6.793
10692WAT     H232319   2.431   2.508   6.798
10693WAT      O32320   9.823   8.231   5.519
10693WAT     H132321   9.760   8.165   5.560
10693WAT     H232322   9.781   8.322   5.522
10694WAT      O32323   2.955   7.025   9.056
10694WAT     H132324   3.001   7.114   9.065
10694WAT     H232325   3.013   6.963   9.003
10695WAT      O32326   2.216   4.258   7.413
10695WAT     H132327   2.228   4.342   7.466
10695WAT     H232328   2.271   4.185   7.453
10696WAT      O32329   2.587   6.360   7.494
10696WAT     H132330   2.566   6.454   7.519
10696WAT     H232331   2.536   6.297   7.553
10697WAT      O32332   4.363   8.333   0.507
10697WAT     H132333   4.298   8.405   0.529
10697WAT     H232334   4.386   8.283   0.590
10698WAT      O32335   5.543   8.478   2.462
10698WAT     H132336   5.575   8.393   2.419
10698WAT     H232337   5.570   8.479   2.558
10699WAT      O32338   0.363   7.975   0.467
10699WAT     H132339   0.326   8.068   0.466
10699WAT     H232340   0.307   7.917   0.526
10700WAT      O32341   6.691   9.306   2.845
10700WAT     H132342   6.701   9.314   2.944
10700WAT     H232343   6.753   9.369   2.800
10701WAT      O32344   0.932   0.043   2.087
10701WAT     H132345   0.909   0.132   2.127
10701WAT     H232346   1.002  -0.001   2.143
10702WAT      O32347   3.438   8.332   5.660
10702WAT     H132348   3.495   8.252   5.642
10702WAT     H232349   3.381   8.316   5.741
10703WAT      O32350   3.952   2.265   0.393
10703WAT     H132351   3.955   2.336   0.323
10703WAT     H232352   3.861   2.262   0.434
10704WAT      O32353   7.164   7.404   1.918
10704WAT     H132354   7.149   7.314   1.876
10704WAT     H232355   7.197   7.468   1.849
10705WAT      O32356   0.672   7.711   9.174
10705WAT     H132357   0.683   7.685   9.270
10705WAT     H232358   0.710   7.640   9.116
10706WAT      O32359   5.034   8.198   9.499
10706WAT     H132360   5.013   8.120   9.440
10706WAT     H232361   5.013   8.283   9.449
10707WAT      O32362   5.833   2.530   4.614
10707WAT     H132363   5.790   2.548   4.702
10707WAT     H232364   5.832   2.432   4.595
10708WAT      O32365   2.359   4.669   4.108
10708WAT     H132366   2.428   4.712   4.166
10708WAT     H232367   2.399   4.591   4.060
10709WAT      O32368   0.759   5.490   9.677
10709WAT     H132369   0.806   5.451   9.756
10709WAT     H232370   0.676   5.438   9.658
10710WAT      O32371   4.452   3.548   0.495
10710WAT     H132372   4.451   3.557   0.595
10710WAT     H232373   4.384   3.480   0.467
10711WAT      O32374   8.605   1.633   4.110
10711WAT     H132375   8.589   1.693   4.032
10711WAT     H232376   8.542   1.555   4.106
10712WAT      O32377   6.757   1.267   9.878
10712WAT     H132378   6.837   1.218   9.843
10712WAT     H232379   6.788   1.346   9.932
10713WAT      O32380   4.095   6.349   0.372
10713WAT     H132381   4.041   6.276   0.412
10713WAT     H232382   4.184   6.313   0.342
10714WAT      O32383   7.225   2.204   6.179
10714WAT     H132384   7.150   2.260   6.145
10714WAT     H232385   7.300   2.206   6.113
10715WAT      O32386   5.636   0.478   0.863
10715WAT     H132387   5.702   0.479   0.938
10715WAT     H232388   5.684   0.490   0.776
10716WAT      O32389   9.359   2.133   7.275
10716WAT     H132390   9.277   2.090   7.312
10716WAT     H232391   9.383   2.090   7.188
10717WAT      O32392   9.799   1.150   8.178
10717WAT     H132393   9.755   1.157   8.267
10717WAT     H232394   9.786   1.235   8.127
10718WAT      O32395   1.887   7.685   4.846
10718WAT     H132396   1.964   7.621   4.848
10718WAT     H232397   1.860   7.701   4.751
10719WAT      O32398   4.561   9.763   1.072
10719WAT     H132399   4.607   9.771   1.160
10719WAT     H232400   4.465   9.792   1.081
10720WAT      O32401   7.618   0.587   7.325
10720WAT     H132402   7.615   0.495   7.286
10720WAT     H232403   7.676   0.645   7.268
10721WAT      O32404   3.946   3.290   6.832
10721WAT     H132405   4.004   3.337   6.898
10721WAT     H232406   3.946   3.192   6.851
10722WAT      O32407   8.300   4.356   4.267
10722WAT     H132408   8.276   4.343   4.364
10722WAT     H232409   8.282   4.451   4.241
10723WAT      O32410   4.853   3.948   6.882
10723WAT     H132411   4.814   3.966   6.792
10723WAT     H232412   4.820   3.860   6.916
10724WAT      O32413   7.178   3.364   3.721
10724WAT     H132414   7.170   3.292   3.790
10724WAT     H232415   7.200   3.324   3.632
10725WAT      O32416   8.037   7.130   5.158
10725WAT     H132417   8.036   7.031   5.172
10725WAT     H232418   7.945   7.167   5.174
10726WAT      O32419   9.641   7.560   8.784
10726WAT     H132420   9.666   7.488   8.848
10726WAT     H232421   9.567   7.528   8.725
10727WAT      O32422   8.719   3.102   9.633
10727WAT     H132423   8.670   3.046   9.567
10727WAT     H232424   8.811   3.123   9.599
10728WAT      O32425   9.651   0.586   2.960
10728WAT     H132426   9.675   0.671   3.007
10728WAT     H232427   9.733   0.544   2.923
10729WAT      O32428   6.135   0.384   4.627
10729WAT     H132429   6.054   0.393   4.686
10729WAT     H232430   6.111   0.330   4.546
10730WAT      O32431   9.730   6.674   7.061
10730WAT     H132432   9.720   6.587   7.012
10730WAT     H232433   9.771   6.742   6.999
10731WAT      O32434   7.439   4.198   1.201
10731WAT     H132435   7.416   4.213   1.105
10731WAT     H232436   7.365   4.235   1.258
10732WAT      O32437   7.932   5.008   9.026
10732WAT     H132438   7.856   5.073   9.023
10732WAT     H232439   7.956   4.980   8.934
10733WAT      O32440   2.585   2.731   6.433
10733WAT     H132441   2.553   2.640   6.459
10733WAT     H232442   2.507   2.790   6.413
10734WAT      O32443   0.835   5.563   5.732
10734WAT     H132444   0.885   5.606   5.658
10734WAT     H232445   0.883   5.480   5.761
10735WAT      O32446   8.297   3.658   4.787
10735WAT     H132447   8.233   3.605   4.730
10735WAT     H232448   8.253   3.743   4.816
10736WAT      O32449   9.764   7.978   8.122
10736WAT     H132450   9.821   7.934   8.191
10736WAT     H232451   9.742   8.071   8.152
10737WAT      O32452   3.441   9.328   4.061
10737WAT     H132453   3.352   9.350   4.100
10737WAT     H232454   3.489   9.263   4.120
10738WAT      O32455   9.614   6.897   6.293
10738WAT     H132456   9.547   6.866   6.361
10738WAT     H232457   9.600   6.848   6.207
10739WAT      O32458   0.621   1.204   3.594
10739WAT     H132459   0.607   1.240   3.502
10739WAT     H232460   0.689   1.259   3.642
10740WAT      O32461   3.204   5.147   5.601
10740WAT     H132462   3.279   5.206   5.629
10740WAT     H232463   3.221   5.113   5.509
10741WAT      O32464   3.795   8.191   9.069
10741WAT     H132465   3.883   8.167   9.109
10741WAT     H232466   3.800   8.183   8.970
10742WAT      O32467   3.085   6.865   1.901
10742WAT     H132468   3.125   6.943   1.853
10742WAT     H232469   3.153   6.792   1.908
10743WAT      O32470   8.635   9.589   6.126
10743WAT     H132471   8.566   9.611   6.057
10743WAT     H232472   8.660   9.493   6.118
10744WAT      O32473   0.441   2.161   0.411
10744WAT     H132474   0.475   2.237   0.356
10744WAT     H232475   0.464   2.074   0.368
10745WAT      O32476   2.570   7.806   3.491
10745WAT     H132477   2.538   7.870   3.422
10745WAT     H232478   2.598   7.721   3.447
10746WAT      O32479   8.751   7.460   4.107
10746WAT     H132480   8.817   7.490   4.176
10746WAT     H232481   8.686   7.396   4.148
10747WAT      O32482   2.597   4.214   7.409
10747WAT     H132483   2.534   4.166   7.349
10747WAT     H232484   2.689   4.212   7.368
10748WAT      O32485   5.397   3.757   9.566
10748WAT     H132486   5.429   3.671   9.526
10748WAT     H232487   5.303   3.774   9.537
10749WAT      O32488   4.870   5.357   2.828
10749WAT     H132489   4.845   5.331   2.921
10749WAT     H232490   4.954   5.410   2.829
10750WAT      O32491   6.880   4.571   0.763
10750WAT     H132492   6.936   4.518   0.700
10750WAT     H232493   6.922   4.661   0.777
10751WAT      O32494   2.564   9.821   6.380
10751WAT     H132495   2.507   9.774   6.313
10751WAT     H232496   2.550   9.780   6.471
10752WAT      O32497   3.269   4.148   7.692
10752WAT     H132498   3.187   4.093   7.675
10752WAT     H232499   3.347   4.106   7.644
10753WAT      O32500   5.495   0.171   2.598
10753WAT     H132501   5.461   0.086   2.640
10753WAT     H232502   5.454   0.182   2.508
10754WAT      O32503   1.387   9.249   5.734
10754WAT     H132504   1.425   9.339   5.713
10754WAT     H232505   1.410   9.225   5.829
10755WAT      O32506   2.270   4.005   0.871
10755WAT     H132507   2.348   3.947   0.894
10755WAT     H232508   2.221   3.966   0.794
10756WAT      O32509   7.141   5.784   7.957
10756WAT     H132510   7.182   5.701   7.993
10756WAT     H232511   7.111   5.842   8.033
10757WAT      O32512   0.028   8.447   1.006
10757WAT     H132513  -0.068   8.436   1.033
10757WAT     H232514   0.033   8.511   0.929
10758WAT      O32515   7.512   5.655   6.495
10758WAT     H132516   7.540   5.602   6.415
10758WAT     H232517   7.559   5.622   6.576
10759WAT      O32518   1.332   0.659   4.890
10759WAT     H132519   1.401   0.627   4.825
10759WAT     H232520   1.316   0.589   4.960
10760WAT      O32521   6.979   7.445   0.822
10760WAT     H132522   7.021   7.386   0.891
10760WAT     H232523   6.960   7.392   0.740
10761WAT      O32524   7.795   0.030   6.346
10761WAT     H132525   7.745   0.107   6.306
10761WAT     H232526   7.893   0.048   6.337
10762WAT      O32527   3.539   1.505   3.850
10762WAT     H132528   3.481   1.518   3.930
10762WAT     H232529   3.541   1.409   3.824
10763WAT      O32530   8.955   9.779   2.381
10763WAT     H132531   8.893   9.852   2.412
10763WAT     H232532   9.028   9.819   2.325
10764WAT      O32533   8.223   8.274   3.523
10764WAT     H132534   8.170   8.280   3.439
10764WAT     H232535   8.173   8.318   3.598
10765WAT      O32536   1.045   3.495   1.492
10765WAT     H132537   1.052   3.492   1.591
10765WAT     H232538   1.012   3.586   1.464
10766WAT      O32539   5.385   6.032   5.728
10766WAT     H132540   5.385   6.057   5.631
10766WAT     H232541   5.459   6.081   5.775
10767WAT      O32542   4.439   3.236   7.047
10767WAT     H132543   4.351   3.194   7.029
10767WAT     H232544   4.428   3.335   7.055
10768WAT      O32545   2.103   7.917   0.158
10768WAT     H132546   2.031   7.951   0.219
10768WAT     H232547   2.085   7.949   0.065
10769WAT      O32548   7.929   2.571   0.611
10769WAT     H132549   7.872   2.633   0.664
10769WAT     H232550   8.021   2.610   0.602
10770WAT      O32551   4.420   3.151   6.704
10770WAT     H132552   4.431   3.113   6.612
10770WAT     H232553   4.510   3.174   6.741
10771WAT      O32554   1.619   8.482   8.478
10771WAT     H132555   1.675   8.500   8.558
10771WAT     H232556   1.660   8.408   8.424
10772WAT      O32557   1.399   6.082   0.178
10772WAT     H132558   1.342   6.101   0.098
10772WAT     H232559   1.492   6.065   0.148
10773WAT      O32560   9.502   8.502   9.714
10773WAT     H132561   9.523   8.497   9.812
10773WAT     H232562   9.523   8.594   9.681
10774WAT      O32563   1.992   9.715   0.764
10774WAT     H132564   1.898   9.740   0.784
10774WAT     H232565   1.999   9.688   0.667
10775WAT      O32566   6.179   7.481   7.622
10775WAT     H132567   6.085   7.491   7.656
10775WAT     H232568   6.179   7.417   7.544
10776WAT      O32569   5.572   6.873   4.129
10776WAT     H132570   5.610   6.896   4.040
10776WAT     H232571   5.618   6.926   4.200
10777WAT      O32572   4.362   5.704   6.032
10777WAT     H132573   4.332   5.678   5.941
10777WAT     H232574   4.378   5.622   6.087
10778WAT      O32575   2.755   9.556   3.468
10778WAT     H132576   2.718   9.564   3.375
10778WAT     H232577   2.833   9.494   3.467
10779WAT      O32578   9.738   2.428   7.719
10779WAT     H132579   9.666   2.431   7.650
10779WAT     H232580   9.788   2.515   7.720
10780WAT      O32581   6.795   1.426   7.677
10780WAT     H132582   6.820   1.333   7.652
10780WAT     H232583   6.877   1.483   7.680
10781WAT      O32584   5.858   1.650   7.271
10781WAT     H132585   5.794   1.647   7.347
10781WAT     H232586   5.868   1.745   7.239
10782WAT      O32587   3.071   1.689   4.497
10782WAT     H132588   3.056   1.703   4.399
10782WAT     H232589   3.015   1.755   4.549
10783WAT      O32590   7.378   6.378   8.216
10783WAT     H132591   7.395   6.418   8.126
10783WAT     H232592   7.425   6.290   8.223
10784WAT      O32593   7.100   9.593   1.420
10784WAT     H132594   7.190   9.551   1.404
10784WAT     H232595   7.081   9.659   1.347
10785WAT      O32596   6.416   0.005   4.345
10785WAT     H132597   6.453  -0.075   4.298
10785WAT     H232598   6.491   0.067   4.370
10786WAT      O32599   9.153   6.600   1.496
10786WAT     H132600   9.155   6.528   1.426
10786WAT     H232601   9.236   6.593   1.552
10787WAT      O32602   7.605   6.949   2.365
10787WAT     H132603   7.601   6.877   2.435
10787WAT     H232604   7.658   6.916   2.287
10788WAT      O32605   0.571   2.154   1.903
10788WAT     H132606   0.541   2.189   1.814
10788WAT     H232607   0.575   2.230   1.968
10789WAT      O32608   5.851   7.288   4.776
10789WAT     H132609   5.841   7.215   4.708
10789WAT     H232610   5.789   7.363   4.755
10790WAT      O32611   8.907   7.404   5.752
10790WAT     H132612   8.925   7.484   5.694
10790WAT     H232613   8.819   7.364   5.727
10791WAT      O32614   9.531   3.206   8.391
10791WAT     H132615   9.512   3.203   8.293
10791WAT     H232616   9.577   3.121   8.419
10792WAT      O32617   5.617   5.741   4.552
10792WAT     H132618   5.676   5.743   4.633
10792WAT     H232619   5.586   5.833   4.531
10793WAT      O32620   4.012   3.487   8.140
10793WAT     H132621   4.086   3.549   8.165
10793WAT     H232622   4.040   3.431   8.062
10794WAT      O32623   9.437   4.239   2.112
10794WAT     H132624   9.342   4.244   2.145
10794WAT     H232625   9.463   4.144   2.098
10795WAT      O32626   2.419   6.496   7.816
10795WAT     H132627   2.461   6.529   7.731
10795WAT     H232628   2.437   6.398   7.826
10796WAT      O32629   2.285   5.184   6.373
10796WAT     H132630   2.312   5.208   6.280
10796WAT     H232631   2.220   5.253   6.408
10797WAT      O32632   4.267   1.071   3.814
10797WAT     H132633   4.364   1.076   3.837
10797WAT     H232634   4.255   1.093   3.717
10798WAT      O32635   0.244   2.775   0.452
10798WAT     H132636   0.312   2.716   0.496
10798WAT     H232637   0.194   2.722   0.383
10799WAT      O32638   9.804   1.831   7.226
10799WAT     H132639   9.708   1.815   7.248
10799WAT     H232640   9.860   1.807   7.305
10800WAT      O32641   6.863   3.154   4.765
10800WAT     H132642   6.859   3.246   4.802
10800WAT     H232643   6.866   3.158   4.665
10801WAT      O32644   1.933   4.793   1.915
10801WAT     H132645   1.947   4.694   1.909
10801WAT     H232646   1.880   4.814   1.997
10802WAT      O32647   9.041   3.457   7.999
10802WAT     H132648   9.033   3.370   7.950
10802WAT     H232649   8.962   3.514   7.979
10803WAT      O32650   1.041   1.859   8.796
10803WAT     H132651   1.039   1.766   8.761
10803WAT     H232652   1.135   1.894   8.794
10804WAT      O32653   8.259   1.148   0.543
10804WAT     H132654   8.198   1.070   0.525
10804WAT     H232655   8.210   1.233   0.524
10805WAT      O32656   4.919   0.309   3.995
10805WAT     H132657   4.906   0.407   4.008
10805WAT     H232658   4.950   0.267   4.081
10806WAT      O32659   1.517   7.236   8.031
10806WAT     H132660   1.537   7.295   7.952
10806WAT     H232661   1.419   7.235   8.048
10807WAT      O32662   8.554   3.674   9.403
10807WAT     H132663   8.570   3.742   9.475
10807WAT     H232664   8.509   3.594   9.443
10808WAT      O32665   4.993   6.163   1.858
10808WAT     H132666   4.955   6.178   1.766
10808WAT     H232667   5.021   6.250   1.897
10809WAT      O32668   5.190   5.096   8.401
10809WAT     H132669   5.126   5.131   8.470
10809WAT     H232670   5.244   5.021   8.440
10810WAT      O32671   6.809   5.825   0.123
10810WAT     H132672   6.802   5.860   0.216
10810WAT     H232673   6.902   5.839   0.089
10811WAT      O32674   8.857   4.988   9.180
10811WAT     H132675   8.950   4.969   9.148
10811WAT     H232676   8.850   5.085   9.205
10812WAT      O32677   4.069   4.161   6.979
10812WAT     H132678   4.003   4.235   6.968
10812WAT     H232679   4.071   4.132   7.075
10813WAT      O32680   4.896   9.209   6.768
10813WAT     H132681   4.916   9.121   6.811
10813WAT     H232682   4.923   9.283   6.829
10814WAT      O32683   3.136   3.030   2.213
10814WAT     H132684   3.103   3.115   2.173
10814WAT     H232685   3.232   3.016   2.187
10815WAT      O32686   0.213   7.255   0.924
10815WAT     H132687   0.191   7.230   0.830
10815WAT     H232688   0.135   7.302   0.965
10816WAT      O32689   9.698   6.455   6.866
10816WAT     H132690   9.646   6.476   6.782
10816WAT     H232691   9.775   6.397   6.843
10817WAT      O32692   4.552   8.127   2.186
10817WAT     H132693   4.612   8.192   2.233
10817WAT     H232694   4.478   8.099   2.248
10818WAT      O32695   1.696   4.741   9.374
10818WAT     H132696   1.676   4.737   9.472
10818WAT     H232697   1.786   4.783   9.360
10819WAT      O32698   7.051   2.420   4.823
10819WAT     H132699   7.088   2.330   4.841
10819WAT     H232700   7.034   2.468   4.910
10820WAT      O32701   2.371   8.257   5.801
10820WAT     H132702   2.304   8.330   5.787
10820WAT     H232703   2.461   8.298   5.815
10821WAT      O32704   6.129   1.192   3.362
10821WAT     H132705   6.067   1.201   3.441
10821WAT     H232706   6.182   1.276   3.352
10822WAT      O32707   9.398   5.616   3.328
10822WAT     H132708   9.356   5.553   3.393
10822WAT     H232709   9.478   5.658   3.369
10823WAT      O32710   5.596   5.703   0.986
10823WAT     H132711   5.547   5.675   0.904
10823WAT     H232712   5.662   5.632   1.011
10824WAT      O32713   1.876   3.486   3.732
10824WAT     H132714   1.935   3.484   3.814
10824WAT     H232715   1.868   3.393   3.695
10825WAT      O32716   6.668   8.670   8.548
10825WAT     H132717   6.641   8.765   8.565
10825WAT     H232718   6.612   8.609   8.604
10826WAT      O32719   5.453   6.783   7.311
10826WAT     H132720   5.449   6.853   7.382
10826WAT     H232721   5.404   6.814   7.230
10827WAT      O32722   0.243   6.619   2.826
10827WAT     H132723   0.178   6.559   2.779
10827WAT     H232724   0.331   6.618   2.778
10828WAT      O32725   4.624   4.642   7.388
10828WAT     H132726   4.608   4.544   7.371
10828WAT     H232727   4.708   4.670   7.342
10829WAT      O32728   4.351   3.140   9.117
10829WAT     H132729   4.285   3.116   9.046
10829WAT     H232730   4.320   3.103   9.205
10830WAT      O32731   3.427   3.031   8.262
10830WAT     H132732   3.368   3.106   8.291
10830WAT     H232733   3.506   3.068   8.212
10831WAT      O32734   6.636   7.460   7.463
10831WAT     H132735   6.729   7.494   7.450
10831WAT     H232736   6.639   7.361   7.480
10832WAT      O32737   7.954   0.941   8.153
10832WAT     H132738   7.914   1.026   8.119
10832WAT     H232739   8.007   0.960   8.236
10833WAT      O32740   8.804   7.587   2.095
10833WAT     H132741   8.814   7.660   2.028
10833WAT     H232742   8.889   7.536   2.103
10834WAT      O32743   2.693   7.442   6.613
10834WAT     H132744   2.694   7.451   6.514
10834WAT     H232745   2.599   7.441   6.646
10835WAT      O32746   7.364   2.502   1.347
10835WAT     H132747   7.270   2.487   1.378
10835WAT     H232748   7.382   2.444   1.267
10836WAT      O32749   3.152   3.938   3.654
10836WAT     H132750   3.149   3.984   3.565
10836WAT     H232751   3.133   4.004   3.726
10837WAT      O32752   0.006   1.407   5.585
10837WAT     H132753  -0.028   1.328   5.534
10837WAT     H232754   0.074   1.376   5.652
10838WAT      O32755   3.352   2.721   4.108
10838WAT     H132756   3.275   2.681   4.058
10838WAT     H232757   3.435   2.710   4.054
10839WAT      O32758   7.176   3.040   0.599
10839WAT     H132759   7.131   3.065   0.513
10839WAT     H232760   7.136   3.094   0.674
10840WAT      O32761   1.690   1.455   3.839
10840WAT     H132762   1.654   1.395   3.910
10840WAT     H232763   1.658   1.548   3.854
10841WAT      O32764   4.657   0.155   6.375
10841WAT     H132765   4.687   0.218   6.303
10841WAT     H232766   4.641   0.064   6.336
10842WAT      O32767   4.123   8.175   1.808
10842WAT     H132768   4.086   8.100   1.863
10842WAT     H232769   4.047   8.224   1.764
10843WAT      O32770   4.974   6.595   2.593
10843WAT     H132771   4.947   6.549   2.678
10843WAT     H232772   5.062   6.640   2.605
10844WAT      O32773   7.294   8.782   2.454
10844WAT     H132774   7.351   8.824   2.382
10844WAT     H232775   7.223   8.726   2.412
10845WAT      O32776   8.033   1.597   9.606
10845WAT     H132777   7.935   1.585   9.592
10845WAT     H232778   8.082   1.523   9.560
10846WAT      O32779   9.751   3.203   6.991
10846WAT     H132780   9.684   3.178   6.921
10846WAT     H232781   9.708   3.196   7.081
10847WAT      O32782   5.730   1.052   8.896
10847WAT     H132783   5.646   1.090   8.858
10847WAT     H232784   5.710   0.967   8.944
10848WAT      O32785   1.107   6.778   4.601
10848WAT     H132786   1.194   6.731   4.608
10848WAT     H232787   1.043   6.741   4.669
10849WAT      O32788   2.684   1.529   2.298
10849WAT     H132789   2.585   1.524   2.291
10849WAT     H232790   2.716   1.618   2.263
10850WAT      O32791   7.523   6.600   8.649
10850WAT     H132792   7.428   6.571   8.647
10850WAT     H232793   7.582   6.522   8.626
10851WAT      O32794   7.925   6.362   2.257
10851WAT     H132795   7.918   6.286   2.322
10851WAT     H232796   7.858   6.432   2.280
10852WAT      O32797   6.755   8.537   8.025
10852WAT     H132798   6.789   8.493   8.108
10852WAT     H232799   6.657   8.557   8.035
10853WAT      O32800   6.525   3.644   8.944
10853WAT     H132801   6.440   3.606   8.980
10853WAT     H232802   6.590   3.569   8.929
10854WAT      O32803   0.816   3.021   8.394
10854WAT     H132804   0.745   3.087   8.419
10854WAT     H232805   0.806   2.996   8.298
10855WAT      O32806   4.195   1.675   0.658
10855WAT     H132807   4.204   1.771   0.683
10855WAT     H232808   4.099   1.652   0.643
10856WAT      O32809   6.280   1.299   6.686
10856WAT     H132810   6.278   1.226   6.617
10856WAT     H232811   6.193   1.299   6.737
10857WAT      O32812   2.531   6.472   7.227
10857WAT     H132813   2.611   6.531   7.236
10857WAT     H232814   2.503   6.441   7.318
10858WAT      O32815   8.662   7.429   8.842
10858WAT     H132816   8.753   7.467   8.830
10858WAT     H232817   8.598   7.475   8.780
10859WAT      O32818   1.987   4.126   7.101
10859WAT     H132819   1.977   4.095   7.196
10859WAT     H232820   2.058   4.073   7.056
10860WAT      O32821   4.761   4.236   5.919
10860WAT     H132822   4.716   4.179   5.851
10860WAT     H232823   4.693   4.293   5.965
10861WAT      O32824   8.848   9.427   4.287
10861WAT     H132825   8.913   9.449   4.360
10861WAT     H232826   8.806   9.338   4.306
10862WAT      O32827   4.918   4.750   4.514
10862WAT     H132828   4.916   4.819   4.441
10862WAT     H232829   4.971   4.785   4.591
10863WAT      O32830   5.831   2.119   8.810
10863WAT     H132831   5.835   2.114   8.910
10863WAT     H232832   5.911   2.074   8.771
10864WAT      O32833   3.386   9.039   8.405
10864WAT     H132834   3.360   8.964   8.465
10864WAT     H232835   3.361   9.126   8.447
10865WAT      O32836   3.625   5.676   0.866
10865WAT     H132837   3.681   5.712   0.940
10865WAT     H232838   3.672   5.691   0.779
10866WAT      O32839   5.828   5.523   7.972
10866WAT     H132840   5.906   5.462   7.959
10866WAT     H232841   5.760   5.506   7.900
10867WAT      O32842   7.351   2.788   0.371
10867WAT     H132843   7.350   2.870   0.313
10867WAT     H232844   7.355   2.707   0.314
10868WAT      O32845   8.234   6.306   2.943
10868WAT     H132846   8.230   6.235   2.872
10868WAT     H232847   8.289   6.383   2.910
10869WAT      O32848   8.373   7.700   3.088
10869WAT     H132849   8.429   7.777   3.059
10869WAT     H232850   8.276   7.724   3.080
10870WAT      O32851   2.999   0.668   5.253
10870WAT     H132852   2.917   0.721   5.231
10870WAT     H232853   2.973   0.582   5.297
10871WAT      O32854   9.212   7.952   7.968
10871WAT     H132855   9.305   7.964   7.933
10871WAT     H232856   9.149   7.936   7.892
10872WAT      O32857   3.411   4.721   2.067
10872WAT     H132858   3.484   4.759   2.009
10872WAT     H232859   3.344   4.674   2.010
10873WAT      O32860   4.728   1.960   7.532
10873WAT     H132861   4.652   1.912   7.575
10873WAT     H232862   4.774   1.899   7.468
10874WAT      O32863   5.307   1.969   5.731
10874WAT     H132864   5.369   1.969   5.653
10874WAT     H232865   5.357   1.997   5.813
10875WAT      O32866   7.846   6.511   6.269
10875WAT     H132867   7.809   6.434   6.321
10875WAT     H232868   7.929   6.545   6.313
10876WAT      O32869   7.202   2.076   5.877
10876WAT     H132870   7.108   2.044   5.869
10876WAT     H232871   7.203   2.175   5.889
10877WAT      O32872   0.318   8.204   7.001
10877WAT     H132873   0.259   8.129   7.030
10877WAT     H232874   0.387   8.222   7.071
10878WAT      O32875   3.858   9.614   0.196
10878WAT     H132876   3.954   9.594   0.175
10878WAT     H232877   3.820   9.538   0.248
10879WAT      O32878   0.700   3.636   7.588
10879WAT     H132879   0.679   3.625   7.491
10879WAT     H232880   0.799   3.640   7.600
10880WAT      O32881   0.156   6.630   3.672
10880WAT     H132882   0.210   6.660   3.594
10880WAT     H232883   0.129   6.709   3.727
10881WAT      O32884   5.079   3.505   6.465
10881WAT     H132885   5.031   3.423   6.433
10881WAT     H232886   5.035   3.539   6.548
10882WAT      O32887   3.445   0.725   2.627
10882WAT     H132888   3.387   0.757   2.702
10882WAT     H232889   3.541   0.734   2.653
10883WAT      O32890   8.856   2.188   9.564
10883WAT     H132891   8.811   2.205   9.476
10883WAT     H232892   8.872   2.090   9.575
10884WAT      O32893   3.697   0.697   6.532
10884WAT     H132894   3.724   0.774   6.591
10884WAT     H232895   3.652   0.627   6.588
10885WAT      O32896   5.877   2.149   0.276
10885WAT     H132897   5.929   2.064   0.284
10885WAT     H232898   5.787   2.129   0.236
10886WAT      O32899   9.720   0.340   5.914
10886WAT     H132900   9.795   0.339   5.980
10886WAT     H232901   9.648   0.401   5.947
10887WAT      O32902   6.751   7.420   6.319
10887WAT     H132903   6.842   7.439   6.281
10887WAT     H232904   6.697   7.371   6.250
10888WAT      O32905   7.116   1.201   4.680
10888WAT     H132906   7.207   1.221   4.716
10888WAT     H232907   7.082   1.281   4.629
10889WAT      O32908   4.091   8.620   9.610
10889WAT     H132909   4.057   8.628   9.516
10889WAT     H232910   4.015   8.598   9.671
10890WAT      O32911   0.903   0.047   0.725
10890WAT     H132912   0.968   0.112   0.766
10890WAT     H232913   0.947  -0.001   0.650
10891WAT      O32914   4.365   8.902   0.878
10891WAT     H132915   4.292   8.849   0.834
10891WAT     H232916   4.438   8.841   0.908
10892WAT      O32917   7.787   4.132   1.189
10892WAT     H132918   7.729   4.105   1.267
10892WAT     H232919   7.882   4.112   1.210
10893WAT      O32920   3.899   7.345   7.804
10893WAT     H132921   3.800   7.340   7.797
10893WAT     H232922   3.937   7.393   7.725
10894WAT      O32923   5.630   4.958   3.224
10894WAT     H132924   5.603   4.863   3.213
10894WAT     H232925   5.673   4.971   3.314
10895WAT      O32926   8.403   6.078   1.216
10895WAT     H132927   8.447   5.996   1.178
10895WAT     H232928   8.474   6.139   1.253
10896WAT      O32929   5.081   3.116   5.997
10896WAT     H132930   5.093   3.018   6.015
10896WAT     H232931   4.987   3.143   6.020
10897WAT      O32932   2.310   3.590   0.913
10897WAT     H132933   2.253   3.672   0.919
10897WAT     H232934   2.328   3.569   0.817
10898WAT      O32935   6.142   1.163   4.137
10898WAT     H132936   6.066   1.201   4.189
10898WAT     H232937   6.160   1.069   4.167
10899WAT      O32938   7.189   4.087   4.873
10899WAT     H132939   7.114   4.154   4.871
10899WAT     H232940   7.240   4.091   4.788
10900WAT      O32941   3.879   0.256   7.494
10900WAT     H132942   3.818   0.335   7.479
10900WAT     H232943   3.860   0.187   7.424
10901WAT      O32944   1.377   2.878   8.280
10901WAT     H132945   1.334   2.788   8.281
10901WAT     H232946   1.472   2.869   8.250
10902WAT      O32947   3.010   6.883   7.580
10902WAT     H132948   3.098   6.925   7.557
10902WAT     H232949   3.009   6.789   7.547
10903WAT      O32950   1.802   6.373   8.650
10903WAT     H132951   1.847   6.304   8.594
10903WAT     H232952   1.862   6.397   8.727
10904WAT      O32953   5.422   7.911   1.608
10904WAT     H132954   5.519   7.914   1.634
10904WAT     H232955   5.388   7.818   1.615
10905WAT      O32956   9.768   6.637   7.892
10905WAT     H132957   9.697   6.599   7.951
10905WAT     H232958   9.823   6.702   7.944
10906WAT      O32959   1.042   2.079   6.539
10906WAT     H132960   1.010   2.107   6.448
10906WAT     H232961   0.984   2.005   6.573
10907WAT      O32962   7.522   1.876   8.855
10907WAT     H132963   7.519   1.975   8.870
10907WAT     H232964   7.572   1.857   8.771
10908WAT      O32965   0.650   0.866   5.321
10908WAT     H132966   0.628   0.960   5.345
10908WAT     H232967   0.680   0.862   5.225
10909WAT      O32968   7.689   8.443   2.339
10909WAT     H132969   7.728   8.459   2.430
10909WAT     H232970   7.601   8.490   2.332
10910WAT      O32971   5.407   2.313   1.311
10910WAT     H132972   5.355   2.391   1.347
10910WAT     H232973   5.372   2.229   1.351
10911WAT      O32974   0.063   3.587   4.323
10911WAT     H132975   0.051   3.522   4.399
10911WAT     H232976  -0.005   3.569   4.253
10912WAT      O32977   2.928   1.185   8.934
10912WAT     H132978   2.935   1.183   9.033
10912WAT     H232979   2.944   1.278   8.901
10913WAT      O32980   6.661   3.072   5.375
10913WAT     H132981   6.619   3.150   5.420
10913WAT     H232982   6.719   3.105   5.300
10914WAT      O32983   5.011   1.872   9.444
10914WAT     H132984   5.044   1.783   9.475
10914WAT     H232985   5.029   1.881   9.346
10915WAT      O32986   1.087   6.696   5.682
10915WAT     H132987   1.173   6.700   5.732
10915WAT     H232988   1.012   6.685   5.747
10916WAT      O32989   3.974   2.296   0.838
10916WAT     H132990   3.995   2.259   0.928
10916WAT     H232991   3.889   2.255   0.804
10917WAT      O32992   3.163   9.076   0.344
10917WAT     H132993   3.118   9.108   0.427
10917WAT     H232994   3.168   8.976   0.344
10918WAT      O32995   5.883   6.072   4.684
10918WAT     H132996   5.794   6.110   4.659
10918WAT     H232997   5.873   6.015   4.765
10919WAT      O32998   1.557   3.670   1.312
10919WAT     H132999   1.497   3.617   1.373
10919WAT     H233000   1.503   3.741   1.266
10920WAT      O33001   9.829   8.967   2.414
10920WAT     H133002   9.742   8.940   2.455
10920WAT     H233003   9.866   8.891   2.361
10921WAT      O33004   0.683   7.074   3.533
10921WAT     H133005   0.624   6.994   3.536
10921WAT     H233006   0.774   7.048   3.501
10922WAT      O33007   4.541   7.462   4.912
10922WAT     H133008   4.611   7.531   4.928
10922WAT     H233009   4.470   7.500   4.853
10923WAT      O33010   4.303   5.184   3.592
10923WAT     H133011   4.290   5.117   3.665
10923WAT     H233012   4.314   5.135   3.505
10924WAT      O33013   9.820   5.757   4.740
10924WAT     H133014   9.762   5.825   4.696
10924WAT     H233015   9.844   5.686   4.674
10925WAT      O33016   3.724   0.641   5.126
10925WAT     H133017   3.796   0.676   5.066
10925WAT     H233018   3.639   0.630   5.074
10926WAT      O33019   1.995   5.734   2.926
10926WAT     H133020   1.987   5.738   2.826
10926WAT     H233021   2.012   5.639   2.954
10927WAT      O33022   3.085   5.411   1.024
10927WAT     H133023   3.037   5.405   1.112
10927WAT     H233024   3.058   5.334   0.967
10928WAT      O33025   7.955   5.572   2.864
10928WAT     H133026   7.902   5.571   2.949
10928WAT     H233027   7.979   5.478   2.838
10929WAT      O33028   5.962   8.216   6.771
10929WAT     H133029   5.913   8.273   6.705
10929WAT     H233030   5.922   8.226   6.861
10930WAT      O33031   5.837   9.425   5.449
10930WAT     H133032   5.904   9.485   5.492
10930WAT     H233033   5.751   9.474   5.435
10931WAT      O33034   3.720   1.120   6.757
10931WAT     H133035   3.660   1.184   6.709
10931WAT     H233036   3.749   1.160   6.844
10932WAT      O33037   1.164   0.406   9.583
10932WAT     H133038   1.255   0.385   9.548
10932WAT     H233039   1.100   0.336   9.552
10933WAT      O33040   3.350   8.835   2.728
10933WAT     H133041   3.297   8.787   2.798
10933WAT     H233042   3.345   8.934   2.745
10934WAT      O33043   6.886   9.375   2.290
10934WAT     H133044   6.865   9.333   2.202
10934WAT     H233045   6.986   9.381   2.301
10935WAT      O33046   1.683   9.459   9.223
10935WAT     H133047   1.685   9.448   9.124
10935WAT     H233048   1.777   9.454   9.259
10936WAT      O33049   2.777   2.651   1.055
10936WAT     H133050   2.738   2.636   0.964
10936WAT     H233051   2.877   2.651   1.049
10937WAT      O33052   3.104   5.785   1.915
10937WAT     H133053   3.082   5.811   2.009
10937WAT     H233054   3.031   5.727   1.879
10938WAT      O33055   8.866   0.380   7.470
10938WAT     H133056   8.828   0.411   7.382
10938WAT     H233057   8.904   0.288   7.460
10939WAT      O33058   5.196   2.089   8.637
10939WAT     H133059   5.165   2.018   8.574
10939WAT     H233060   5.157   2.073   8.728
10940WAT      O33061   7.165   9.265   7.986
10940WAT     H133062   7.220   9.249   7.904
10940WAT     H233063   7.211   9.224   8.065
10941WAT      O33064   0.731   5.495   8.258
10941WAT     H133065   0.812   5.537   8.217
10941WAT     H233066   0.692   5.557   8.326
10942WAT      O33067   1.390   8.863   9.048
10942WAT     H133068   1.412   8.944   8.992
10942WAT     H233069   1.455   8.791   9.029
10943WAT      O33070   5.969   5.620   6.636
10943WAT     H133071   5.883   5.576   6.659
10943WAT     H233072   6.039   5.594   6.702
10944WAT      O33073   1.111   0.489   8.175
10944WAT     H133074   1.155   0.468   8.088
10944WAT     H233075   1.143   0.578   8.208
10945WAT      O33076   2.742   8.929   7.146
10945WAT     H133077   2.722   8.938   7.048
10945WAT     H233078   2.833   8.891   7.158
10946WAT      O33079   9.609   8.169   7.978
10946WAT     H133080   9.579   8.211   8.063
10946WAT     H233081   9.603   8.069   7.987
10947WAT      O33082   8.585   4.341   9.482
10947WAT     H133083   8.569   4.395   9.565
10947WAT     H233084   8.675   4.365   9.444
10948WAT      O33085   5.083   8.610   8.931
10948WAT     H133086   5.081   8.590   8.833
10948WAT     H233087   4.989   8.611   8.966
10949WAT      O33088   1.950   7.705   2.978
10949WAT     H133089   1.976   7.634   2.913
10949WAT     H233090   1.863   7.745   2.951
10950WAT      O33091   6.236   0.295   9.286
10950WAT     H133092   6.145   0.275   9.323
10950WAT     H233093   6.303   0.232   9.325
10951WAT      O33094   9.416   5.259   0.072
10951WAT     H133095   9.381   5.256  -0.022
10951WAT     H233096   9.479   5.182   0.086
10952WAT      O33097   4.502   2.157   7.213
10952WAT     H133098   4.510   2.100   7.131
10952WAT     H233099   4.588   2.153   7.264
10953WAT      O33100   3.964   3.813   7.772
10953WAT     H133101   3.886   3.751   7.778
10953WAT     H233102   3.996   3.836   7.864
10954WAT      O33103   7.049   3.632   1.769
10954WAT     H133104   7.025   3.590   1.682
10954WAT     H233105   7.004   3.583   1.844
10955WAT      O33106   0.084   9.468   6.924
10955WAT     H133107   0.043   9.394   6.870
10955WAT     H233108   0.118   9.432   7.011
10956WAT      O33109   3.037   7.963   2.160
10956WAT     H133110   3.053   7.865   2.164
10956WAT     H233111   3.099   8.004   2.093
10957WAT      O33112   8.742   0.814   9.827
10957WAT     H133113   8.697   0.796   9.739
10957WAT     H233114   8.823   0.756   9.834
10958WAT      O33115   3.579   4.334   0.532
10958WAT     H133116   3.624   4.374   0.452
10958WAT     H233117   3.549   4.407   0.593
10959WAT      O33118   0.157   8.740   1.087
10959WAT     H133119   0.220   8.666   1.112
10959WAT     H233120   0.205   8.827   1.088
10960WAT      O33121   8.199   9.578   0.669
10960WAT     H133122   8.150   9.561   0.584
10960WAT     H233123   8.203   9.677   0.686
10961WAT      O33124   6.006   4.778   7.686
10961WAT     H133125   6.072   4.809   7.755
10961WAT     H233126   5.973   4.687   7.711
10962WAT      O33127   9.724   6.363   9.569
10962WAT     H133128   9.745   6.266   9.576
10962WAT     H233129   9.638   6.383   9.617
10963WAT      O33130   6.356   1.589   1.582
10963WAT     H133131   6.304   1.550   1.658
10963WAT     H233132   6.454   1.586   1.603
10964WAT      O33133   8.674   3.401   4.192
10964WAT     H133134   8.742   3.333   4.221
10964WAT     H233135   8.652   3.387   4.096
10965WAT      O33136   6.848   4.916   9.114
10965WAT     H133137   6.776   4.897   9.181
10965WAT     H233138   6.806   4.942   9.027
10966WAT      O33139   9.555   7.444   6.585
10966WAT     H133140   9.612   7.508   6.636
10966WAT     H233141   9.581   7.446   6.488
10967WAT      O33142   2.558   3.747   9.716
10967WAT     H133143   2.527   3.780   9.627
10967WAT     H233144   2.479   3.740   9.778
10968WAT      O33145   7.245   4.495  -0.003
10968WAT     H133146   7.184   4.575  -0.008
10968WAT     H233147   7.293   4.496   0.085
10969WAT      O33148   9.423   7.201   7.473
10969WAT     H133149   9.503   7.161   7.429
10969WAT     H233150   9.415   7.166   7.567
10970WAT      O33151   2.171   9.188   8.195
10970WAT     H133152   2.104   9.140   8.138
10970WAT     H233153   2.190   9.134   8.277
10971WAT      O33154   6.746   9.040   0.109
10971WAT     H133155   6.829   8.985   0.103
10971WAT     H233156   6.666   8.980   0.099
10972WAT      O33157   9.886   6.610   9.616
10972WAT     H133158   9.926   6.617   9.707
10972WAT     H233159   9.815   6.540   9.617
10973WAT      O33160   7.519   5.424   1.878
10973WAT     H133161   7.469   5.497   1.832
10973WAT     H233162   7.598   5.399   1.823
10974WAT      O33163   8.277   0.827   2.300
10974WAT     H133164   8.305   0.904   2.357
10974WAT     H233165   8.252   0.750   2.358
10975WAT      O33166   5.532   0.454   7.979
10975WAT     H133167   5.612   0.509   7.956
10975WAT     H233168   5.549   0.403   8.063
10976WAT      O33169   4.931   7.846   7.324
10976WAT     H133170   4.847   7.820   7.275
10976WAT     H233171   4.907   7.899   7.405
10977WAT      O33172   0.449   0.200   7.913
10977WAT     H133173   0.450   0.291   7.870
10977WAT     H233174   0.542   0.175   7.938
10978WAT      O33175   7.788   1.464   4.902
10978WAT     H133176   7.837   1.464   4.989
10978WAT     H233177   7.726   1.386   4.899
10979WAT      O33178   7.714   8.572   4.307
10979WAT     H133179   7.714   8.524   4.395
10979WAT     H233180   7.766   8.657   4.316
10980WAT      O33181   8.179   8.835   1.318
10980WAT     H133182   8.257   8.803   1.265
10980WAT     H233183   8.205   8.843   1.414
10981WAT      O33184   3.531   0.655   4.941
10981WAT     H133185   3.435   0.634   4.956
10981WAT     H233186   3.558   0.624   4.850
10982WAT      O33187   5.748   1.473   1.282
10982WAT     H133188   5.671   1.470   1.346
10982WAT     H233189   5.719   1.517   1.197
10983WAT      O33190   2.682   0.346   0.282
10983WAT     H133191   2.763   0.386   0.239
10983WAT     H233192   2.602   0.364   0.225
10984WAT      O33193   6.987   7.950   5.364
10984WAT     H133194   7.009   8.007   5.285
10984WAT     H233195   6.895   7.912   5.353
10985WAT      O33196   4.468   9.348   6.075
10985WAT     H133197   4.469   9.407   5.994
10985WAT     H233198   4.403   9.385   6.142
10986WAT      O33199   6.414   8.570   5.855
10986WAT     H133200   6.437   8.527   5.943
10986WAT     H233201   6.420   8.502   5.782
10987WAT      O33202   4.813   2.370   8.201
10987WAT     H133203   4.861   2.407   8.121
10987WAT     H233204   4.798   2.443   8.268
10988WAT      O33205   1.209   3.891   1.123
10988WAT     H133206   1.179   3.796   1.125
10988WAT     H233207   1.303   3.897   1.159
10989WAT      O33208   7.304   7.963   6.310
10989WAT     H133209   7.250   7.987   6.229
10989WAT     H233210   7.248   7.979   6.392
10990WAT      O33211   1.421   8.292   9.776
10990WAT     H133212   1.331   8.281   9.818
10990WAT     H233213   1.491   8.285   9.847
10991WAT      O33214   4.173   3.309   5.064
10991WAT     H133215   4.250   3.270   5.114
10991WAT     H233216   4.104   3.238   5.048
10992WAT      O33217   3.479   5.135   8.561
10992WAT     H133218   3.410   5.177   8.620
10992WAT     H233219   3.541   5.079   8.616
10993WAT      O33220   4.716   7.109   9.311
10993WAT     H133221   4.741   7.171   9.236
10993WAT     H233222   4.781   7.121   9.386
10994WAT      O33223   5.756   7.310   9.515
10994WAT     H133224   5.708   7.261   9.587
10994WAT     H233225   5.701   7.312   9.432
10995WAT      O33226   8.636   6.233   5.102
10995WAT     H133227   8.705   6.193   5.162
10995WAT     H233228   8.577   6.160   5.067
10996WAT      O33229   6.077   1.095   2.427
10996WAT     H133230   5.989   1.059   2.458
10996WAT     H233231   6.116   1.033   2.359
10997WAT      O33232   3.844   3.835   6.958
10997WAT     H133233   3.756   3.812   6.917
10997WAT     H233234   3.905   3.873   6.888
10998WAT      O33235   1.388   1.329   4.515
10998WAT     H133236   1.469   1.387   4.530
10998WAT     H233237   1.309   1.387   4.495
10999WAT      O33238   2.836   5.122   3.762
10999WAT     H133239   2.818   5.211   3.720
10999WAT     H233240   2.781   5.052   3.716
11000WAT      O33241   6.172   1.274   9.866
11000WAT     H133242   6.189   1.216   9.786
11000WAT     H233243   6.203   1.367   9.847
11001WAT      O33244   2.559   2.099   0.609
11001WAT     H133245   2.644   2.067   0.649
11001WAT     H233246   2.522   2.028   0.548
11002WAT      O33247   3.293   4.909   7.014
11002WAT     H133248   3.388   4.923   6.986
11002WAT     H233249   3.284   4.822   7.062
11003WAT      O33250   7.978   1.349   8.270
11003WAT     H133251   7.958   1.294   8.190
11003WAT     H233252   8.076   1.368   8.273
11004WAT      O33253   2.248   3.150   3.366
11004WAT     H133254   2.222   3.130   3.460
11004WAT     H233255   2.326   3.092   3.340
11005WAT      O33256   1.369   6.745   4.592
11005WAT     H133257   1.355   6.794   4.678
11005WAT     H233258   1.334   6.800   4.516
11006WAT      O33259   5.126   9.642   9.698
11006WAT     H133260   5.087   9.557   9.734
11006WAT     H233261   5.129   9.638   9.598
11007WAT      O33262   1.748   7.301   5.533
11007WAT     H133263   1.764   7.361   5.455
11007WAT     H233264   1.836   7.280   5.577
11008WAT      O33265   9.592   1.481   6.427
11008WAT     H133266   9.543   1.438   6.352
11008WAT     H233267   9.584   1.424   6.509
11009WAT      O33268   0.014   8.436   5.031
11009WAT     H133269   0.085   8.420   5.100
11009WAT     H233270  -0.062   8.486   5.073
11010WAT      O33271   0.368   9.783   1.101
11010WAT     H133272   0.444   9.729   1.063
11010WAT     H233273   0.368   9.873   1.057
11011WAT      O33274   7.185   5.559   5.487
11011WAT     H133275   7.185   5.508   5.401
11011WAT     H233276   7.278   5.564   5.523
11012WAT      O33277   4.132   5.432   3.306
11012WAT     H133278   4.149   5.454   3.402
11012WAT     H233279   4.218   5.419   3.258
11013WAT      O33280   7.165   4.505   1.469
11013WAT     H133281   7.160   4.481   1.566
11013WAT     H233282   7.169   4.605   1.460
11014WAT      O33283   8.431   0.568   0.796
11014WAT     H133284   8.471   0.647   0.840
11014WAT     H233285   8.503   0.504   0.769
11015WAT      O33286   1.844   5.821   2.085
11015WAT     H133287   1.769   5.886   2.090
11015WAT     H233288   1.816   5.742   2.030
11016WAT      O33289   2.131   5.654   4.732
11016WAT     H133290   2.130   5.750   4.759
11016WAT     H233291   2.069   5.602   4.790
11017WAT      O33292   7.650   7.063   9.134
11017WAT     H133293   7.578   7.109   9.083
11017WAT     H233294   7.670   6.974   9.092
11018WAT      O33295   7.313   8.612   5.478
11018WAT     H133296   7.356   8.564   5.402
11018WAT     H233297   7.340   8.571   5.564
11019WAT      O33298   5.019   1.305   8.055
11019WAT     H133299   5.016   1.372   8.129
11019WAT     H233300   4.993   1.348   7.969
11020WAT      O33301   7.791   5.573   3.530
11020WAT     H133302   7.731   5.650   3.507
11020WAT     H233303   7.739   5.488   3.528
11021WAT      O33304   6.488   2.434   5.422
11021WAT     H133305   6.513   2.341   5.395
11021WAT     H233306   6.389   2.440   5.431
11022WAT      O33307   8.928   2.969   0.008
11022WAT     H133308   8.888   2.897  -0.049
11022WAT     H233309   8.856   3.033   0.037
11023WAT      O33310   6.193   4.821   2.330
11023WAT     H133311   6.212   4.907   2.378
11023WAT     H233312   6.221   4.744   2.388
11024WAT      O33313   2.864   1.232   4.286
11024WAT     H133314   2.792   1.210   4.352
11024WAT     H233315   2.909   1.148   4.257
11025WAT      O33316   3.686   0.545   8.040
11025WAT     H133317   3.681   0.622   7.976
11025WAT     H233318   3.594   0.516   8.064
11026WAT      O33319   3.555   0.377   0.063
11026WAT     H133320   3.577   0.295   0.010
11026WAT     H233321   3.600   0.456   0.023
11027WAT      O33322   4.213   1.749   5.735
11027WAT     H133323   4.126   1.705   5.713
11027WAT     H233324   4.287   1.699   5.691
11028WAT      O33325   2.894   2.661   7.542
11028WAT     H133326   2.904   2.699   7.633
11028WAT     H233327   2.902   2.561   7.545
11029WAT      O33328   4.747   5.967   1.815
11029WAT     H133329   4.829   6.005   1.858
11029WAT     H233330   4.671   5.971   1.880
11030WAT      O33331   5.769   0.607   2.681
11030WAT     H133332   5.800   0.583   2.589
11030WAT     H233333   5.712   0.533   2.717
11031WAT      O33334   3.162   3.174   4.058
11031WAT     H133335   3.241   3.186   4.118
11031WAT     H233336   3.084   3.145   4.113
11032WAT      O33337   5.783   5.963   1.729
11032WAT     H133338   5.820   6.039   1.674
11032WAT     H233339   5.688   5.946   1.702
11033WAT      O33340   4.050   2.815   2.160
11033WAT     H133341   4.098   2.808   2.247
11033WAT     H233342   4.102   2.873   2.098
11034WAT      O33343   9.395   4.915   5.757
11034WAT     H133344   9.492   4.938   5.740
11034WAT     H233345   9.386   4.873   5.847
11035WAT      O33346   9.225   2.674   5.355
11035WAT     H133347   9.133   2.636   5.352
11035WAT     H233348   9.280   2.636   5.281
11036WAT      O33349   5.381   8.438   1.187
11036WAT     H133350   5.465   8.386   1.170
11036WAT     H233351   5.304   8.375   1.193
11037WAT      O33352   2.385   5.497   6.947
11037WAT     H133353   2.402   5.596   6.950
11037WAT     H233354   2.460   5.450   6.993
11038WAT      O33355   9.281   4.760   9.387
11038WAT     H133356   9.229   4.783   9.469
11038WAT     H233357   9.335   4.839   9.358
11039WAT      O33358   7.872   8.702   5.468
11039WAT     H133359   7.864   8.624   5.406
11039WAT     H233360   7.915   8.673   5.554
11040WAT      O33361   7.404   6.845   4.151
11040WAT     H133362   7.413   6.845   4.051
11040WAT     H233363   7.383   6.753   4.182
11041WAT      O33364   5.949   3.163   4.242
11041WAT     H133365   5.854   3.183   4.221
11041WAT     H233366   6.001   3.152   4.156
11042WAT      O33367   0.920   1.028   9.315
11042WAT     H133368   1.001   1.083   9.334
11042WAT     H233369   0.844   1.088   9.288
11043WAT      O33370   2.397   8.154   9.150
11043WAT     H133371   2.396   8.142   9.250
11043WAT     H233372   2.321   8.214   9.124
11044WAT      O33373   7.213   5.328   3.688
11044WAT     H133374   7.118   5.327   3.657
11044WAT     H233375   7.217   5.299   3.783
11045WAT      O33376   4.596   2.807   2.580
11045WAT     H133377   4.644   2.726   2.547
11045WAT     H233378   4.499   2.801   2.555
11046WAT      O33379   2.033   6.757   3.644
11046WAT     H133380   1.942   6.797   3.641
11046WAT     H233381   2.082   6.777   3.559
11047WAT      O33382   8.892   5.005   7.431
11047WAT     H133383   8.989   5.023   7.451
11047WAT     H233384   8.883   4.974   7.336
11048WAT      O33385   3.802   0.888   6.675
11048WAT     H133386   3.773   0.981   6.699
11048WAT     H233387   3.858   0.892   6.592
11049WAT      O33388   6.533   8.754   4.504
11049WAT     H133389   6.434   8.745   4.494
11049WAT     H233390   6.561   8.712   4.590
11050WAT      O33391   2.020   4.761   6.914
11050WAT     H133392   2.071   4.686   6.870
11050WAT     H233393   1.966   4.725   6.989
11051WAT      O33394   4.925   0.347   3.721
11051WAT     H133395   5.007   0.312   3.675
11051WAT     H233396   4.932   0.330   3.819
11052WAT      O33397   5.491   3.240   1.148
11052WAT     H133398   5.580   3.206   1.179
11052WAT     H233399   5.493   3.340   1.145
11053WAT      O33400   5.227   3.462   1.373
11053WAT     H133401   5.213   3.393   1.301
11053WAT     H233402   5.142   3.477   1.422
11054WAT      O33403   6.929   0.789   6.372
11054WAT     H133404   6.842   0.774   6.325
11054WAT     H233405   7.003   0.750   6.318
11055WAT      O33406   5.946   0.871   4.496
11055WAT     H133407   5.868   0.906   4.549
11055WAT     H233408   6.017   0.940   4.492
11056WAT      O33409   9.237   6.566   9.860
11056WAT     H133410   9.315   6.599   9.912
11056WAT     H233411   9.201   6.640   9.802
11057WAT      O33412   4.616   2.749   7.610
11057WAT     H133413   4.649   2.841   7.631
11057WAT     H233414   4.639   2.726   7.515
11058WAT      O33415   1.661   7.529   3.902
11058WAT     H133416   1.759   7.515   3.888
11058WAT     H233417   1.640   7.626   3.893
11059WAT      O33418   5.320   7.522   5.757
11059WAT     H133419   5.351   7.538   5.851
11059WAT     H233420   5.268   7.436   5.753
11060WAT      O33421   9.549   2.117   3.172
11060WAT     H133422   9.506   2.072   3.094
11060WAT     H233423   9.572   2.211   3.148
11061WAT      O33424   4.692   1.483   6.663
11061WAT     H133425   4.729   1.520   6.748
11061WAT     H233426   4.699   1.383   6.665
11062WAT      O33427   7.069   7.446   6.672
11062WAT     H133428   7.164   7.455   6.642
11062WAT     H233429   7.057   7.359   6.721
11063WAT      O33430   1.535   0.643   2.415
11063WAT     H133431   1.516   0.546   2.431
11063WAT     H233432   1.596   0.677   2.486
11064WAT      O33433   6.596   5.288   3.819
11064WAT     H133434   6.570   5.191   3.825
11064WAT     H233435   6.695   5.296   3.814
11065WAT      O33436   0.424   8.623   2.968
11065WAT     H133437   0.453   8.547   3.027
11065WAT     H233438   0.386   8.696   3.025
11066WAT      O33439   3.979   7.901   0.811
11066WAT     H133440   3.961   7.921   0.715
11066WAT     H233441   3.984   7.986   0.863
11067WAT      O33442   0.069   1.365   2.072
11067WAT     H133443   0.062   1.458   2.035
11067WAT     H233444   0.099   1.370   2.167
11068WAT      O33445   2.066   0.300   7.772
11068WAT     H133446   2.097   0.207   7.795
11068WAT     H233447   1.970   0.310   7.796
11069WAT      O33448   5.564   8.543   2.133
11069WAT     H133449   5.579   8.493   2.218
11069WAT     H233450   5.628   8.512   2.063
11070WAT      O33451   4.000   8.916   0.127
11070WAT     H133452   4.003   8.962   0.038
11070WAT     H233453   4.089   8.922   0.171
11071WAT      O33454   7.542   5.791   6.902
11071WAT     H133455   7.579   5.877   6.938
11071WAT     H233456   7.450   5.777   6.937
11072WAT      O33457   8.830   7.030   2.642
11072WAT     H133458   8.746   7.011   2.693
11072WAT     H233459   8.825   6.987   2.552
11073WAT      O33460   9.693   3.948   5.979
11073WAT     H133461   9.676   4.017   5.909
11073WAT     H233462   9.791   3.925   5.980
11074WAT      O33463   0.486   0.025   0.482
11074WAT     H133464   0.507   0.094   0.413
11074WAT     H233465   0.409  -0.031   0.451
11075WAT      O33466   4.058   0.353   9.650
11075WAT     H133467   4.030   0.404   9.569
11075WAT     H233468   4.001   0.272   9.660
11076WAT      O33469   6.962   2.976   3.120
11076WAT     H133470   6.941   2.948   3.027
11076WAT     H233471   6.884   2.958   3.179
11077WAT      O33472   0.414   8.801   4.907
11077WAT     H133473   0.388   8.733   4.838
11077WAT     H233474   0.339   8.865   4.921
11078WAT      O33475   6.017   3.815   7.572
11078WAT     H133476   6.109   3.814   7.533
11078WAT     H233477   6.012   3.882   7.645
11079WAT      O33478   0.621   2.518   0.936
11079WAT     H133479   0.579   2.520   1.027
11079WAT     H233480   0.665   2.430   0.922
11080WAT      O33481   1.887   9.842   2.028
11080WAT     H133482   1.836   9.756   2.032
11080WAT     H233483   1.832   9.915   2.070
11081WAT      O33484   4.291   4.006   5.604
11081WAT     H133485   4.304   3.907   5.604
11081WAT     H233486   4.334   4.045   5.522
11082WAT      O33487   8.118   6.899   9.698
11082WAT     H133488   8.183   6.837   9.741
11082WAT     H233489   8.060   6.941   9.768
11083WAT      O33490   6.289   5.553   7.217
11083WAT     H133491   6.287   5.628   7.151
11083WAT     H233492   6.350   5.481   7.184
11084WAT      O33493   5.966   5.118   7.824
11084WAT     H133494   6.062   5.093   7.838
11084WAT     H233495   5.935   5.082   7.736
11085WAT      O33496   4.242   0.842   8.071
11085WAT     H133497   4.165   0.811   8.017
11085WAT     H233498   4.287   0.919   8.025
11086WAT      O33499   6.131   6.918   4.408
11086WAT     H133500   6.153   6.896   4.313
11086WAT     H233501   6.123   6.833   4.461
11087WAT      O33502   2.416   7.870   2.427
11087WAT     H133503   2.344   7.870   2.496
11087WAT     H233504   2.382   7.826   2.343
11088WAT      O33505   3.819   7.500   4.672
11088WAT     H133506   3.818   7.440   4.752
11088WAT     H233507   3.904   7.553   4.671
11089WAT      O33508   1.308   2.132   5.528
11089WAT     H133509   1.253   2.118   5.446
11089WAT     H233510   1.248   2.143   5.607
11090WAT      O33511   8.430   2.290   9.352
11090WAT     H133512   8.429   2.348   9.270
11090WAT     H233513   8.410   2.196   9.326
11091WAT      O33514   5.951   1.850   6.074
11091WAT     H133515   6.037   1.874   6.029
11091WAT     H233516   5.969   1.830   6.171
11092WAT      O33517   6.497   4.328   3.582
11092WAT     H133518   6.506   4.364   3.489
11092WAT     H233519   6.486   4.228   3.578
11093WAT      O33520   1.174   4.757   5.074
11093WAT     H133521   1.158   4.667   5.034
11093WAT     H233522   1.272   4.776   5.074
11094WAT      O33523   5.042   2.731   0.353
11094WAT     H133524   5.108   2.658   0.335
11094WAT     H233525   4.988   2.748   0.271
11095WAT      O33526   2.653   1.431   3.978
11095WAT     H133527   2.642   1.355   3.914
11095WAT     H233528   2.573   1.490   3.974
11096WAT      O33529   1.072   0.777   8.978
11096WAT     H133530   1.134   0.707   8.942
11096WAT     H233531   1.094   0.794   9.074
11097WAT      O33532   0.643   5.071   2.612
11097WAT     H133533   0.645   4.996   2.546
11097WAT     H233534   0.713   5.139   2.588
11098WAT      O33535   9.392   0.602   5.788
11098WAT     H133536   9.405   0.700   5.774
11098WAT     H233537   9.316   0.570   5.731
11099WAT      O33538   3.319   1.922   5.613
11099WAT     H133539   3.264   1.935   5.530
11099WAT     H233540   3.269   1.862   5.676
11100WAT      O33541   1.815   5.660   1.891
11100WAT     H133542   1.737   5.599   1.898
11100WAT     H233543   1.897   5.606   1.870
11101WAT      O33544   3.841   8.889   2.448
11101WAT     H133545   3.829   8.983   2.417
11101WAT     H233546   3.937   8.864   2.441
11102WAT      O33547   9.565   5.528   5.209
11102WAT     H133548   9.611   5.464   5.271
11102WAT     H233549   9.549   5.483   5.121
11103WAT      O33550   4.688   4.086   4.172
11103WAT     H133551   4.633   4.007   4.196
11103WAT     H233552   4.785   4.064   4.182
11104WAT      O33553   4.179   3.276   9.461
11104WAT     H133554   4.219   3.219   9.390
11104WAT     H233555   4.214   3.249   9.551
11105WAT      O33556   2.389   8.491   0.880
11105WAT     H133557   2.466   8.522   0.824
11105WAT     H233558   2.415   8.494   0.976
11106WAT      O33559   1.370   9.565   9.538
11106WAT     H133560   1.424   9.483   9.555
11106WAT     H233561   1.341   9.605   9.625
11107WAT      O33562   3.813   2.637   1.504
11107WAT     H133563   3.763   2.670   1.584
11107WAT     H233564   3.837   2.540   1.517
11108WAT      O33565   9.644   1.594   8.917
11108WAT     H133566   9.711   1.618   8.847
11108WAT     H233567   9.678   1.624   9.006
11109WAT      O33568   8.942   2.244   0.282
11109WAT     H133569   9.027   2.227   0.332
11109WAT     H233570   8.883   2.164   0.287
11110WAT      O33571   9.032   4.486   7.109
11110WAT     H133572   9.120   4.499   7.063
11110WAT     H233573   8.958   4.501   7.044
11111WAT      O33574   2.619   1.026   9.645
11111WAT     H133575   2.640   1.024   9.547
11111WAT     H233576   2.529   1.067   9.658
11112WAT      O33577   6.196   6.070   2.759
11112WAT     H133578   6.202   6.169   2.754
11112WAT     H233579   6.168   6.033   2.671
11113WAT      O33580   6.427   7.187   5.902
11113WAT     H133581   6.434   7.222   5.809
11113WAT     H233582   6.460   7.256   5.967
11114WAT      O33583   1.682   8.119   0.845
11114WAT     H133584   1.665   8.032   0.800
11114WAT     H233585   1.724   8.183   0.780
11115WAT      O33586   3.536   9.443   5.650
11115WAT     H133587   3.455   9.410   5.699
11115WAT     H233588   3.612   9.379   5.665
11116WAT      O33589   7.018   6.507   6.396
11116WAT     H133590   6.918   6.497   6.390
11116WAT     H233591   7.043   6.543   6.486
11117WAT      O33592   5.188   6.833   1.362
11117WAT     H133593   5.091   6.837   1.340
11117WAT     H233594   5.237   6.782   1.291
11118WAT      O33595   2.864   7.567   3.725
11118WAT     H133596   2.772   7.558   3.763
11118WAT     H233597   2.910   7.478   3.727
11119WAT      O33598   1.928   1.952   5.680
11119WAT     H133599   1.957   1.856   5.671
11119WAT     H233600   1.876   1.963   5.764
11120WAT      O33601   0.549   5.899   1.389
11120WAT     H133602   0.583   5.826   1.448
11120WAT     H233603   0.554   5.986   1.438
11121WAT      O33604   8.155   0.278   0.804
11121WAT     H133605   8.193   0.292   0.713
11121WAT     H233606   8.104   0.360   0.832
11122WAT      O33607   9.040   0.414   0.942
11122WAT     H133608   9.056   0.454   1.032
11122WAT     H233609   9.010   0.485   0.879
11123WAT      O33610   4.539   3.989   7.689
11123WAT     H133611   4.579   4.068   7.736
11123WAT     H233612   4.441   3.985   7.707
11124WAT      O33613   7.720   0.683   6.632
11124WAT     H133614   7.691   0.644   6.545
11124WAT     H233615   7.818   0.703   6.628
11125WAT      O33616   9.444   1.248   2.594
11125WAT     H133617   9.498   1.278   2.516
11125WAT     H233618   9.354   1.291   2.591
11126WAT      O33619   5.688   1.216   0.110
11126WAT     H133620   5.656   1.216   0.015
11126WAT     H233621   5.781   1.254   0.113
11127WAT      O33622   7.294   2.567   1.895
11127WAT     H133623   7.287   2.562   1.995
11127WAT     H233624   7.285   2.475   1.857
11128WAT      O33625   6.250   5.926   9.449
11128WAT     H133626   6.342   5.888   9.445
11128WAT     H233627   6.204   5.895   9.533
11129WAT      O33628   6.730   6.574   3.773
11129WAT     H133629   6.757   6.668   3.752
11129WAT     H233630   6.789   6.538   3.846
11130WAT      O33631   2.690   9.637   4.825
11130WAT     H133632   2.713   9.724   4.782
11130WAT     H233633   2.593   9.619   4.813
11131WAT      O33634   6.986   6.114   0.573
11131WAT     H133635   7.047   6.080   0.645
11131WAT     H233636   7.021   6.202   0.539
11132WAT      O33637   0.931   4.148   4.055
11132WAT     H133638   0.935   4.202   3.971
11132WAT     H233639   0.886   4.202   4.127
11133WAT      O33640   4.962   2.668   1.996
11133WAT     H133641   4.978   2.612   2.078
11133WAT     H233642   4.889   2.626   1.942
11134WAT      O33643   4.152   5.442   6.803
11134WAT     H133644   4.169   5.533   6.766
11134WAT     H233645   4.184   5.373   6.738
11135WAT      O33646   3.755   6.319   1.501
11135WAT     H133647   3.829   6.279   1.556
11135WAT     H233648   3.673   6.264   1.509
11136WAT      O33649   8.665   0.143   8.785
11136WAT     H133650   8.763   0.145   8.769
11136WAT     H233651   8.617   0.120   8.700
11137WAT      O33652   6.369   8.363   5.668
11137WAT     H133653   6.285   8.309   5.661
11137WAT     H233654   6.437   8.326   5.605
11138WAT      O33655   2.525   1.561   2.861
11138WAT     H133656   2.564   1.583   2.772
11138WAT     H233657   2.568   1.478   2.897
11139WAT      O33658   5.703   7.604   8.491
11139WAT     H133659   5.673   7.699   8.503
11139WAT     H233660   5.802   7.601   8.484
11140WAT      O33661   5.877   0.424   9.677
11140WAT     H133662   5.887   0.384   9.768
11140WAT     H233663   5.935   0.505   9.669
11141WAT      O33664   0.851   8.766   4.653
11141WAT     H133665   0.927   8.702   4.662
11141WAT     H233666   0.801   8.746   4.568
11142WAT      O33667   0.262   9.357   0.993
11142WAT     H133668   0.243   9.303   1.075
11142WAT     H233669   0.290   9.449   1.019
11143WAT      O33670   8.431   1.828   4.918
11143WAT     H133671   8.353   1.877   4.956
11143WAT     H233672   8.398   1.757   4.854
11144WAT      O33673   1.999   8.258   5.154
11144WAT     H133674   1.977   8.343   5.204
11144WAT     H233675   2.096   8.260   5.128
11145WAT      O33676   7.600   9.526   9.403
11145WAT     H133677   7.621   9.620   9.431
11145WAT     H233678   7.661   9.463   9.450
11146WAT      O33679   0.219   1.488   4.113
11146WAT     H133680   0.294   1.551   4.134
11146WAT     H233681   0.247   1.426   4.040
11147WAT      O33682   9.172   6.194   1.979
11147WAT     H133683   9.082   6.201   1.937
11147WAT     H233684   9.167   6.134   2.059
11148WAT      O33685   7.002   2.920   8.435
11148WAT     H133686   6.948   2.917   8.351
11148WAT     H233687   6.963   2.989   8.497
11149WAT      O33688   5.524   8.269   4.360
11149WAT     H133689   5.536   8.367   4.379
11149WAT     H233690   5.457   8.257   4.287
11150WAT      O33691   3.250   3.400   0.209
11150WAT     H133692   3.333   3.445   0.174
11150WAT     H233693   3.223   3.444   0.295
11151WAT      O33694   2.175   2.316   3.051
11151WAT     H133695   2.146   2.379   2.979
11151WAT     H233696   2.226   2.365   3.121
11152WAT      O33697   9.422   9.014   3.248
11152WAT     H133698   9.427   8.953   3.327
11152WAT     H233699   9.400   8.960   3.166
11153WAT      O33700   3.043   4.433   5.923
11153WAT     H133701   3.082   4.359   5.978
11153WAT     H233702   2.944   4.421   5.917
11154WAT      O33703   0.016   2.107   6.459
11154WAT     H133704  -0.041   2.177   6.502
11154WAT     H233705   0.033   2.033   6.524
11155WAT      O33706   6.032   8.484   5.522
11155WAT     H133707   5.955   8.481   5.457
11155WAT     H233708   6.011   8.427   5.601
11156WAT      O33709   8.954   1.469   8.690
11156WAT     H133710   9.025   1.448   8.623
11156WAT     H233711   8.886   1.396   8.691
11157WAT      O33712   8.831   6.184   9.309
11157WAT     H133713   8.785   6.158   9.394
11157WAT     H233714   8.779   6.255   9.263
11158WAT      O33715   5.434   3.212   4.856
11158WAT     H133716   5.486   3.265   4.790
11158WAT     H233717   5.486   3.205   4.941
11159WAT      O33718   1.795   9.122   6.128
11159WAT     H133719   1.754   9.173   6.204
11159WAT     H233720   1.803   9.026   6.153
11160WAT      O33721   3.238   1.259   5.553
11160WAT     H133722   3.177   1.181   5.568
11160WAT     H233723   3.305   1.264   5.626
11161WAT      O33724   6.997   3.975   4.350
11161WAT     H133725   7.008   3.889   4.399
11161WAT     H233726   7.070   4.038   4.375
11162WAT      O33727   1.245   4.865   9.050
11162WAT     H133728   1.165   4.839   8.995
11162WAT     H233729   1.227   4.953   9.095
11163WAT      O33730   3.090   5.566   2.232
11163WAT     H133731   3.044   5.646   2.195
11163WAT     H233732   3.154   5.529   2.164
11164WAT      O33733   8.160   9.077   3.399
11164WAT     H133734   8.224   9.132   3.452
11164WAT     H233735   8.102   9.024   3.461
11165WAT      O33736   4.520   0.076   7.610
11165WAT     H133737   4.535  -0.003   7.669
11165WAT     H233738   4.603   0.133   7.609
11166WAT      O33739   4.774   1.676   2.506
11166WAT     H133740   4.720   1.710   2.430
11166WAT     H233741   4.771   1.742   2.581
11167WAT      O33742   0.916   0.602   1.606
11167WAT     H133743   0.826   0.645   1.611
11167WAT     H233744   0.911   0.510   1.645
11168WAT      O33745   1.500   4.498   3.247
11168WAT     H133746   1.552   4.454   3.174
11168WAT     H233747   1.402   4.479   3.236
11169WAT      O33748   0.173   3.993   9.876
11169WAT     H133749   0.116   3.929   9.928
11169WAT     H233750   0.116   4.064   9.835
11170WAT      O33751   1.816   8.953   4.228
11170WAT     H133752   1.792   8.867   4.182
11170WAT     H233753   1.801   9.029   4.165
11171WAT      O33754   3.588   6.538   7.474
11171WAT     H133755   3.572   6.528   7.376
11171WAT     H233756   3.552   6.457   7.522
11172WAT      O33757   1.537   6.906   2.270
11172WAT     H133758   1.514   6.809   2.280
11172WAT     H233759   1.495   6.958   2.344
11173WAT      O33760   6.163   6.113   0.546
11173WAT     H133761   6.115   6.201   0.535
11173WAT     H233762   6.261   6.129   0.546
11174WAT      O33763   8.704   0.612   2.740
11174WAT     H133764   8.748   0.696   2.772
11174WAT     H233765   8.609   0.631   2.718
11175WAT      O33766   0.323   5.824   6.711
11175WAT     H133767   0.327   5.924   6.723
11175WAT     H233768   0.412   5.791   6.682
11176WAT      O33769   6.522   8.405   4.646
11176WAT     H133770   6.432   8.445   4.660
11176WAT     H233771   6.587   8.445   4.710
11177WAT      O33772   4.475   2.758   1.655
11177WAT     H133773   4.436   2.689   1.594
11177WAT     H233774   4.564   2.788   1.620
11178WAT      O33775   3.274   0.964   4.860
11178WAT     H133776   3.212   0.893   4.894
11178WAT     H233777   3.275   0.962   4.760
11179WAT      O33778   2.334   4.437   8.918
11179WAT     H133779   2.407   4.501   8.943
11179WAT     H233780   2.289   4.403   9.000
11180WAT      O33781   4.676   9.784   9.065
11180WAT     H133782   4.590   9.833   9.074
11180WAT     H233783   4.752   9.846   9.087
11181WAT      O33784   9.425   5.034   0.425
11181WAT     H133785   9.378   5.118   0.397
11181WAT     H233786   9.357   4.966   0.455
11182WAT      O33787   6.765   8.249   8.655
11182WAT     H133788   6.684   8.231   8.711
11182WAT     H233789   6.801   8.339   8.677
11183WAT      O33790   0.179   7.927   0.884
11183WAT     H133791   0.167   7.841   0.833
11183WAT     H233792   0.189   7.907   0.981
11184WAT      O33793   7.191   8.147   5.416
11184WAT     H133794   7.121   8.080   5.443
11184WAT     H233795   7.262   8.101   5.364
11185WAT      O33796   0.737   9.504   2.590
11185WAT     H133797   0.652   9.555   2.574
11185WAT     H233798   0.716   9.408   2.605
11186WAT      O33799   2.527   5.221   3.390
11186WAT     H133800   2.462   5.296   3.404
11186WAT     H233801   2.478   5.134   3.387
11187WAT      O33802   7.656   0.383   3.189
11187WAT     H133803   7.726   0.317   3.164
11187WAT     H233804   7.681   0.428   3.275
11188WAT      O33805   0.165   7.493   6.204
11188WAT     H133806   0.211   7.467   6.119
11188WAT     H233807   0.148   7.592   6.204
11189WAT      O33808   1.038   2.927   3.598
11189WAT     H133809   0.992   2.908   3.684
11189WAT     H233810   1.085   3.015   3.604
11190WAT      O33811   8.235   8.855   9.483
11190WAT     H133812   8.197   8.784   9.424
11190WAT     H233813   8.308   8.903   9.434
11191WAT      O33814   1.629   3.460   2.896
11191WAT     H133815   1.543   3.449   2.846
11191WAT     H233816   1.628   3.548   2.944
11192WAT      O33817   2.170   9.654   2.901
11192WAT     H133818   2.092   9.711   2.926
11192WAT     H233819   2.143   9.558   2.899
11193WAT      O33820   1.207   9.394   0.943
11193WAT     H133821   1.232   9.301   0.970
11193WAT     H233822   1.287   9.454   0.952
11194WAT      O33823   2.984   7.896   5.054
11194WAT     H133824   2.968   7.804   5.019
11194WAT     H233825   2.897   7.939   5.079
11195WAT      O33826   0.496   5.692   1.923
11195WAT     H133827   0.408   5.667   1.963
11195WAT     H233828   0.568   5.680   1.991
11196WAT      O33829   0.312   3.914   5.000
11196WAT     H133830   0.294   4.012   4.999
11196WAT     H233831   0.350   3.886   4.912
11197WAT      O33832   0.308   6.043   7.762
11197WAT     H133833   0.354   6.004   7.682
11197WAT     H233834   0.366   6.030   7.843
11198WAT      O33835   1.986   4.137   4.584
11198WAT     H133836   2.038   4.198   4.643
11198WAT     H233837   1.973   4.179   4.495
11199WAT      O33838   9.719   2.321   7.983
11199WAT     H133839   9.646   2.254   7.969
11199WAT     H233840   9.743   2.361   7.894
11200WAT      O33841   5.906   8.502   4.925
11200WAT     H133842   5.974   8.575   4.925
11200WAT     H233843   5.830   8.528   4.864
11201WAT      O33844   7.070   7.593   8.906
11201WAT     H133845   7.131   7.608   8.828
11201WAT     H233846   7.112   7.630   8.989
11202WAT      O33847   2.440   2.826   9.360
11202WAT     H133848   2.448   2.818   9.261
11202WAT     H233849   2.515   2.776   9.404
11203WAT      O33850   3.335   3.022   7.930
11203WAT     H133851   3.286   2.938   7.909
11203WAT     H233852   3.270   3.092   7.959
11204WAT      O33853   2.383   3.277   4.825
11204WAT     H133854   2.465   3.322   4.859
11204WAT     H233855   2.304   3.304   4.881
11205WAT      O33856   7.571   0.547   8.343
11205WAT     H133857   7.475   0.533   8.316
11205WAT     H233858   7.631   0.520   8.268
11206WAT      O33859   9.463   4.834   6.856
11206WAT     H133860   9.498   4.740   6.863
11206WAT     H233861   9.538   4.896   6.837
11207WAT      O33862   0.201   4.714   1.138
11207WAT     H133863   0.291   4.688   1.172
11207WAT     H233864   0.186   4.812   1.151
11208WAT      O33865   0.300   2.988   9.347
11208WAT     H133866   0.376   2.972   9.284
11208WAT     H233867   0.301   3.083   9.377
11209WAT      O33868   4.376   0.186   9.408
11209WAT     H133869   4.291   0.165   9.361
11209WAT     H233870   4.417   0.101   9.442
11210WAT      O33871   9.077   5.738   2.505
11210WAT     H133872   9.023   5.654   2.507
11210WAT     H233873   9.168   5.718   2.469
11211WAT      O33874   2.092   3.957   6.211
11211WAT     H133875   2.069   3.973   6.307
11211WAT     H233876   2.185   3.923   6.203
11212WAT      O33877   8.439   4.874   2.896
11212WAT     H133878   8.360   4.932   2.915
11212WAT     H233879   8.515   4.930   2.864
11213WAT      O33880   4.388   3.491   1.376
11213WAT     H133881   4.453   3.421   1.347
11213WAT     H233882   4.417   3.580   1.342
11214WAT      O33883   7.710   2.291   7.149
11214WAT     H133884   7.703   2.250   7.059
11214WAT     H233885   7.646   2.368   7.157
11215WAT      O33886   3.994   1.394   7.781
11215WAT     H133887   3.919   1.406   7.846
11215WAT     H233888   3.994   1.471   7.717
11216WAT      O33889   4.961   1.956   6.705
11216WAT     H133890   5.012   1.870   6.705
11216WAT     H233891   4.999   2.017   6.635
11217WAT      O33892   3.843   8.996   3.270
11217WAT     H133893   3.875   9.067   3.332
11217WAT     H233894   3.863   8.906   3.308
11218WAT      O33895   0.813   9.369   6.277
11218WAT     H133896   0.743   9.305   6.307
11218WAT     H233897   0.829   9.436   6.349
11219WAT      O33898   2.147   8.807   3.073
11219WAT     H133899   2.206   8.726   3.073
11219WAT     H233900   2.198   8.886   3.106
11220WAT      O33901   4.680   9.679   2.873
11220WAT     H133902   4.642   9.586   2.876
11220WAT     H233903   4.605   9.745   2.869
11221WAT      O33904   2.131   0.616   1.755
11221WAT     H133905   2.114   0.714   1.770
11221WAT     H233906   2.093   0.563   1.830
11222WAT      O33907   3.856   6.187   0.893
11222WAT     H133908   3.815   6.199   0.983
11222WAT     H233909   3.858   6.275   0.845
11223WAT      O33910   2.572   5.652   3.075
11223WAT     H133911   2.619   5.731   3.036
11223WAT     H233912   2.639   5.592   3.120
11224WAT      O33913   4.856   7.110   5.433
11224WAT     H133914   4.859   7.105   5.333
11224WAT     H233915   4.834   7.019   5.470
11225WAT      O33916   6.189   7.028   0.379
11225WAT     H133917   6.237   6.940   0.376
11225WAT     H233918   6.123   7.032   0.304
11226WAT      O33919   2.542   7.557   9.774
11226WAT     H133920   2.575   7.641   9.817
11226WAT     H233921   2.487   7.505   9.839
11227WAT      O33922   5.813   9.305   2.818
11227WAT     H133923   5.716   9.279   2.811
11227WAT     H233924   5.869   9.238   2.768
11228WAT      O33925   1.453   2.174   8.245
11228WAT     H133926   1.386   2.101   8.228
11228WAT     H233927   1.437   2.249   8.180
11229WAT      O33928   2.293   9.632   7.746
11229WAT     H133929   2.215   9.643   7.685
11229WAT     H233930   2.372   9.682   7.709
11230WAT      O33931   1.756   5.297   4.855
11230WAT     H133932   1.791   5.275   4.764
11230WAT     H233933   1.833   5.314   4.918
11231WAT      O33934   9.080   7.657   4.459
11231WAT     H133935   9.099   7.752   4.482
11231WAT     H233936   9.122   7.597   4.527
11232WAT      O33937   0.913   2.479   5.970
11232WAT     H133938   0.901   2.578   5.982
11232WAT     H233939   0.962   2.461   5.886
11233WAT      O33940   8.018   1.080   5.544
11233WAT     H133941   7.977   0.992   5.568
11233WAT     H233942   8.115   1.080   5.571
11234WAT      O33943   9.067   0.895   5.545
11234WAT     H133944   9.007   0.823   5.511
11234WAT     H233945   9.012   0.976   5.568
11235WAT      O33946   6.861   5.227   5.515
11235WAT     H133947   6.888   5.323   5.507
11235WAT     H233948   6.914   5.172   5.450
11236WAT      O33949   1.547   3.548   9.232
11236WAT     H133950   1.616   3.602   9.183
11236WAT     H233951   1.464   3.603   9.243
11237WAT      O33952   2.518   2.504   8.793
11237WAT     H133953   2.552   2.552   8.712
11237WAT     H233954   2.593   2.492   8.859
11238WAT      O33955   7.139   6.817   0.803
11238WAT     H133956   7.161   6.795   0.708
11238WAT     H233957   7.069   6.889   0.806
11239WAT      O33958   7.530   6.598   1.542
11239WAT     H133959   7.540   6.503   1.572
11239WAT     H233960   7.609   6.651   1.570
11240WAT      O33961   4.316   0.782   2.978
11240WAT     H133962   4.264   0.863   3.007
11240WAT     H233963   4.411   0.792   3.005
11241WAT      O33964   4.395   6.588   6.892
11241WAT     H133965   4.438   6.573   6.981
11241WAT     H233966   4.296   6.582   6.901
11242WAT      O33967   4.698   6.851   6.066
11242WAT     H133968   4.665   6.888   5.980
11242WAT     H233969   4.621   6.815   6.119
11243WAT      O33970   3.003   8.818   8.092
11243WAT     H133971   3.076   8.777   8.037
11243WAT     H233972   3.022   8.915   8.105
11244WAT      O33973   0.492   9.790   3.012
11244WAT     H133974   0.569   9.733   3.042
11244WAT     H233975   0.412   9.732   2.999
11245WAT      O33976   5.096   5.187   8.148
11245WAT     H133977   5.131   5.279   8.130
11245WAT     H233978   5.136   5.151   8.232
11246WAT      O33979   2.636   1.383   9.801
11246WAT     H133980   2.632   1.454   9.871
11246WAT     H233981   2.697   1.310   9.830
11247WAT      O33982   7.099   7.206   3.322
11247WAT     H133983   7.042   7.140   3.371
11247WAT     H233984   7.087   7.193   3.223
11248WAT      O33985   0.648   2.930   3.080
11248WAT     H133986   0.721   2.970   3.025
11248WAT     H233987   0.665   2.948   3.177
11249WAT      O33988   8.727   0.491   5.239
11249WAT     H133989   8.658   0.424   5.212
11249WAT     H233990   8.818   0.449   5.235
11250WAT      O33991   7.582   8.531   3.728
11250WAT     H133992   7.557   8.556   3.634
11250WAT     H233993   7.528   8.586   3.792
11251WAT      O33994   0.588   8.156   5.971
11251WAT     H133995   0.506   8.213   5.961
11251WAT     H233996   0.603   8.136   6.068
11252WAT      O33997   9.309   6.620   4.365
11252WAT     H133998   9.343   6.667   4.283
11252WAT     H233999   9.315   6.521   4.351
11253WAT      O34000   8.955   7.127   2.921
11253WAT     H134001   8.873   7.184   2.928
11253WAT     H234002   9.029   7.181   2.882
11254WAT      O34003   4.499   4.057   6.357
11254WAT     H134004   4.497   4.145   6.405
11254WAT     H234005   4.515   4.073   6.260
11255WAT      O34006   2.237   0.751   9.375
11255WAT     H134007   2.139   0.731   9.370
11255WAT     H234008   2.285   0.674   9.418
11256WAT      O34009   3.475   6.505   6.315
11256WAT     H134010   3.405   6.531   6.381
11256WAT     H234011   3.514   6.587   6.274
11257WAT      O34012   2.865   8.777   3.648
11257WAT     H134013   2.932   8.769   3.574
11257WAT     H234014   2.895   8.848   3.712
11258WAT      O34015   6.537   7.207   8.997
11258WAT     H134016   6.504   7.202   9.091
11258WAT     H234017   6.459   7.216   8.934
11259WAT      O34018   8.234   7.250   8.617
11259WAT     H134019   8.322   7.237   8.573
11259WAT     H234020   8.247   7.285   8.710
11260WAT      O34021   1.405   4.826   8.804
11260WAT     H134022   1.333   4.806   8.738
11260WAT     H234023   1.365   4.870   8.885
11261WAT      O34024   3.984   4.508   5.786
11261WAT     H134025   3.970   4.439   5.715
11261WAT     H234026   4.025   4.466   5.867
11262WAT      O34027   0.149   4.964   8.635
11262WAT     H134028   0.225   4.901   8.652
11262WAT     H234029   0.166   5.014   8.550
11263WAT      O34030   7.983   3.656   5.172
11263WAT     H134031   8.050   3.633   5.101
11263WAT     H234032   8.013   3.619   5.260
11264WAT      O34033   0.565   8.318   5.424
11264WAT     H134034   0.508   8.272   5.492
11264WAT     H234035   0.632   8.376   5.471
11265WAT      O34036   9.307   2.765   2.357
11265WAT     H134037   9.316   2.698   2.283
11265WAT     H234038   9.304   2.717   2.445
11266WAT      O34039   3.105   7.797   1.482
11266WAT     H134040   3.085   7.738   1.560
11266WAT     H234041   3.202   7.820   1.481
11267WAT      O34042   6.841   2.186   9.253
11267WAT     H134043   6.895   2.217   9.331
11267WAT     H234044   6.782   2.110   9.280
11268WAT      O34045   5.699   6.701   9.857
11268WAT     H134046   5.720   6.797   9.839
11268WAT     H234047   5.615   6.695   9.911
11269WAT      O34048   0.461   8.796   0.129
11269WAT     H134049   0.517   8.861   0.078
11269WAT     H234050   0.377   8.778   0.078
11270WAT      O34051   3.361   5.474   7.107
11270WAT     H134052   3.457   5.446   7.113
11270WAT     H234053   3.356   5.567   7.071
11271WAT      O34054   2.924   1.618   0.105
11271WAT     H134055   2.997   1.559   0.071
11271WAT     H234056   2.886   1.671   0.030
11272WAT      O34057   8.797   6.087   1.353
11272WAT     H134058   8.880   6.144   1.363
11272WAT     H234059   8.800   6.013   1.420
11273WAT      O34060   7.979   5.690   4.314
11273WAT     H134061   8.032   5.749   4.374
11273WAT     H234062   7.933   5.745   4.245
11274WAT      O34063   3.804   9.133   3.603
11274WAT     H134064   3.760   9.220   3.584
11274WAT     H234065   3.738   9.059   3.589
11275WAT      O34066   6.905   1.991   6.734
11275WAT     H134067   6.873   2.081   6.706
11275WAT     H234068   7.004   1.987   6.724
11276WAT      O34069   1.077   0.724   5.859
11276WAT     H134070   1.024   0.664   5.918
11276WAT     H234071   1.101   0.807   5.909
11277WAT      O34072   7.294   6.998   8.125
11277WAT     H134073   7.338   7.040   8.204
11277WAT     H234074   7.213   7.051   8.099
11278WAT      O34075   5.015   3.895   5.558
11278WAT     H134076   5.109   3.876   5.530
11278WAT     H234077   5.003   3.870   5.655
11279WAT      O34078   6.682   2.947   3.592
11279WAT     H134079   6.737   3.030   3.590
11279WAT     H234080   6.586   2.970   3.581
11280WAT      O34081   0.401   3.579   8.442
11280WAT     H134082   0.446   3.552   8.528
11280WAT     H234083   0.342   3.505   8.411
11281WAT      O34084   0.030   5.555   2.119
11281WAT     H134085   0.036   5.476   2.181
11281WAT     H234086  -0.016   5.630   2.166
11282WAT      O34087   0.064   5.776   5.439
11282WAT     H134088   0.043   5.680   5.458
11282WAT     H234089   0.158   5.783   5.405
11283WAT      O34090   7.533   5.276   8.365
11283WAT     H134091   7.543   5.309   8.271
11283WAT     H234092   7.616   5.295   8.417
11284WAT      O34093   0.842   1.418   0.713
11284WAT     H134094   0.887   1.412   0.802
11284WAT     H234095   0.910   1.437   0.642
11285WAT      O34096   9.523   6.497   3.132
11285WAT     H134097   9.465   6.448   3.066
11285WAT     H234098   9.482   6.586   3.153
11286WAT      O34099   9.350   8.717   8.528
11286WAT     H134100   9.392   8.788   8.584
11286WAT     H234101   9.294   8.658   8.586
11287WAT      O34102   2.316   3.451   9.228
11287WAT     H134103   2.363   3.364   9.216
11287WAT     H234104   2.247   3.462   9.157
11288WAT      O34105   3.158   1.883   3.005
11288WAT     H134106   3.208   1.879   3.091
11288WAT     H234107   3.210   1.939   2.940
11289WAT      O34108   9.753   7.918   5.303
11289WAT     H134109   9.848   7.940   5.326
11289WAT     H234110   9.733   7.954   5.212
11290WAT      O34111   9.041   7.800   9.477
11290WAT     H134112   8.987   7.793   9.560
11290WAT     H234113   9.138   7.804   9.500
11291WAT      O34114   6.609   0.944   2.973
11291WAT     H134115   6.574   0.851   2.972
11291WAT     H234116   6.533   1.009   2.975
11292WAT      O34117   7.490   5.720   7.457
11292WAT     H134118   7.498   5.654   7.382
11292WAT     H234119   7.397   5.758   7.457
11293WAT      O34120   8.767   3.043   6.895
11293WAT     H134121   8.806   2.953   6.917
11293WAT     H234122   8.801   3.111   6.961
11294WAT      O34123   5.748   4.931   6.201
11294WAT     H134124   5.720   4.979   6.284
11294WAT     H234125   5.830   4.973   6.164
11295WAT      O34126   3.951   2.764   5.383
11295WAT     H134127   4.002   2.831   5.329
11295WAT     H234128   3.992   2.757   5.474
11296WAT      O34129   2.863   6.597   8.709
11296WAT     H134130   2.838   6.501   8.699
11296WAT     H234131   2.795   6.654   8.663
11297WAT      O34132   5.121   1.578   4.173
11297WAT     H134133   5.100   1.673   4.195
11297WAT     H234134   5.218   1.569   4.150
11298WAT      O34135   9.077   3.184   3.028
11298WAT     H134136   9.064   3.122   3.105
11298WAT     H234137   9.097   3.276   3.061
11299WAT      O34138   2.437   1.644   2.354
11299WAT     H134139   2.386   1.721   2.393
11299WAT     H234140   2.386   1.560   2.370
11300WAT      O34141   7.951   5.829   5.376
11300WAT     H134142   7.970   5.882   5.459
11300WAT     H234143   8.036   5.792   5.340
11301WAT      O34144   7.896   6.883   7.820
11301WAT     H134145   7.895   6.927   7.910
11301WAT     H234146   7.928   6.789   7.830
11302WAT      O34147   7.011   7.551   1.665
11302WAT     H134148   6.985   7.614   1.592
11302WAT     H234149   7.111   7.554   1.677
11303WAT      O34150   3.901   4.576   0.123
11303WAT     H134151   3.917   4.673   0.109
11303WAT     H234152   3.814   4.550   0.080
11304WAT      O34153   9.783   5.777   8.675
11304WAT     H134154   9.792   5.872   8.645
11304WAT     H234155   9.867   5.749   8.722
11305WAT      O34156   0.152   2.171   4.744
11305WAT     H134157   0.211   2.096   4.717
11305WAT     H234158   0.077   2.136   4.800
11306WAT      O34159   9.111   4.164   2.771
11306WAT     H134160   9.043   4.127   2.834
11306WAT     H234161   9.196   4.181   2.820
11307WAT      O34162   2.105   1.716   9.011
11307WAT     H134163   2.170   1.687   9.081
11307WAT     H234164   2.052   1.637   8.979
11308WAT      O34165   2.588   0.597   1.013
11308WAT     H134166   2.648   0.676   1.001
11308WAT     H234167   2.600   0.534   0.937
11309WAT      O34168   4.330   2.035   4.921
11309WAT     H134169   4.406   2.061   4.981
11309WAT     H234170   4.316   1.936   4.928
11310WAT      O34171   5.051   6.273   1.322
11310WAT     H134172   4.958   6.245   1.296
11310WAT     H234173   5.112   6.194   1.317
11311WAT      O34174   1.785   8.579   6.433
11311WAT     H134175   1.776   8.480   6.426
11311WAT     H234176   1.702   8.623   6.399
11312WAT      O34177   5.187   8.727   4.665
11312WAT     H134178   5.223   8.665   4.735
11312WAT     H234179   5.209   8.691   4.574
11313WAT      O34180   0.222   8.860   0.804
11313WAT     H134181   0.167   8.781   0.834
11313WAT     H234182   0.250   8.913   0.884
11314WAT      O34183   8.897   3.421   8.620
11314WAT     H134184   8.994   3.417   8.641
11314WAT     H234185   8.870   3.340   8.568
11315WAT      O34186   7.812   0.168   8.649
11315WAT     H134187   7.772   0.201   8.563
11315WAT     H234188   7.911   0.169   8.642
11316WAT      O34189   2.128   8.624   8.318
11316WAT     H134190   2.153   8.527   8.316
11316WAT     H234191   2.211   8.680   8.309
11317WAT      O34192   8.395   1.526   6.037
11317WAT     H134193   8.295   1.527   6.041
11317WAT     H234194   8.430   1.463   6.107
11318WAT      O34195   0.672   6.218   1.824
11318WAT     H134196   0.647   6.121   1.830
11318WAT     H234197   0.590   6.272   1.806
11319WAT      O34198   0.570   5.525   9.274
11319WAT     H134199   0.645   5.530   9.208
11319WAT     H234200   0.546   5.618   9.303
11320WAT      O34201   9.548   2.910   0.034
11320WAT     H134202   9.476   2.910  -0.035
11320WAT     H234203   9.535   2.833   0.096
11321WAT      O34204   0.747   8.134   3.344
11321WAT     H134205   0.802   8.059   3.381
11321WAT     H234206   0.791   8.221   3.365
11322WAT      O34207   2.688   1.839   1.273
11322WAT     H134208   2.767   1.842   1.212
11322WAT     H234209   2.612   1.888   1.230
11323WAT      O34210   9.570   9.236   6.209
11323WAT     H134211   9.518   9.262   6.290
11323WAT     H234212   9.508   9.234   6.130
11324WAT      O34213   7.151   6.729   9.684
11324WAT     H134214   7.070   6.751   9.630
11324WAT     H234215   7.133   6.751   9.780
11325WAT      O34216   4.944   4.033   7.542
11325WAT     H134217   4.897   3.946   7.523
11325WAT     H234218   5.041   4.015   7.556
11326WAT      O34219   8.066   1.953   2.653
11326WAT     H134220   8.110   1.916   2.571
11326WAT     H234221   8.078   2.052   2.655
11327WAT      O34222   9.453   6.335   2.465
11327WAT     H134223   9.409   6.248   2.443
11327WAT     H234224   9.444   6.397   2.388
11328WAT      O34225   9.041   8.399   0.528
11328WAT     H134226   9.133   8.440   0.527
11328WAT     H234227   8.973   8.470   0.547
11329WAT      O34228   7.603   6.350   8.837
11329WAT     H134229   7.663   6.304   8.903
11329WAT     H234230   7.650   6.357   8.749
11330WAT      O34231   1.091   7.072   2.409
11330WAT     H134232   1.187   7.069   2.436
11330WAT     H234233   1.050   6.982   2.421
11331WAT      O34234   6.952   4.522   9.153
11331WAT     H134235   6.889   4.445   9.162
11331WAT     H234236   7.039   4.499   9.198
11332WAT      O34237   7.957   2.851   3.230
11332WAT     H134238   7.913   2.762   3.231
11332WAT     H234239   8.034   2.851   3.294
11333WAT      O34240   2.262   8.220   1.458
11333WAT     H134241   2.323   8.191   1.384
11333WAT     H234242   2.232   8.313   1.441
11334WAT      O34243   6.734   4.255   8.254
11334WAT     H134244   6.679   4.183   8.296
11334WAT     H234245   6.708   4.343   8.294
11335WAT      O34246   8.214   9.250   4.198
11335WAT     H134247   8.121   9.277   4.225
11335WAT     H234248   8.274   9.330   4.203
11336WAT      O34249   6.845   4.533   4.930
11336WAT     H134250   6.914   4.565   4.995
11336WAT     H234251   6.771   4.489   4.981
11337WAT      O34252   3.553   6.796   1.815
11337WAT     H134253   3.593   6.844   1.893
11337WAT     H234254   3.553   6.856   1.735
11338WAT      O34255   2.519   2.880   1.067
11338WAT     H134256   2.536   2.867   0.969
11338WAT     H234257   2.440   2.940   1.080
11339WAT      O34258   6.838   2.431   4.650
11339WAT     H134259   6.925   2.436   4.700
11339WAT     H234260   6.851   2.469   4.558
11340WAT      O34261   2.574   7.168   8.491
11340WAT     H134262   2.642   7.205   8.556
11340WAT     H234263   2.483   7.176   8.531
11341WAT      O34264   6.873   1.686   2.269
11341WAT     H134265   6.874   1.741   2.353
11341WAT     H234266   6.967   1.660   2.245
11342WAT      O34267   0.512   8.098   3.222
11342WAT     H134268   0.594   8.093   3.279
11342WAT     H234269   0.478   8.192   3.220
11343WAT      O34270   5.805   2.136   6.329
11343WAT     H134271   5.867   2.162   6.403
11343WAT     H234272   5.834   2.180   6.244
11344WAT      O34273   9.458   3.368   4.529
11344WAT     H134274   9.436   3.274   4.501
11344WAT     H234275   9.509   3.414   4.457
11345WAT      O34276   8.186   6.207   5.292
11345WAT     H134277   8.172   6.195   5.390
11345WAT     H234278   8.262   6.269   5.277
11346WAT      O34279   3.776   7.317   0.269
11346WAT     H134280   3.844   7.338   0.199
11346WAT     H234281   3.814   7.252   0.335
11347WAT      O34282   1.014   2.824   8.691
11347WAT     H134283   1.090   2.760   8.704
11347WAT     H234284   0.961   2.797   8.611
11348WAT      O34285   2.667   1.574   6.002
11348WAT     H134286   2.587   1.635   6.009
11348WAT     H234287   2.749   1.625   6.028
11349WAT      O34288   0.125   2.756   6.130
11349WAT     H134289   0.103   2.852   6.117
11349WAT     H234290   0.062   2.699   6.078
11350WAT      O34291   3.979   6.897   4.301
11350WAT     H134292   4.039   6.817   4.303
11350WAT     H234293   4.006   6.962   4.372
11351WAT      O34294   4.665   5.689   5.342
11351WAT     H134295   4.597   5.699   5.270
11351WAT     H234296   4.626   5.637   5.418
11352WAT      O34297   0.404   0.978   9.737
11352WAT     H134298   0.477   0.978   9.806
11352WAT     H234299   0.418   0.903   9.673
11353WAT      O34300   5.280   5.828   0.725
11353WAT     H134301   5.306   5.776   0.644
11353WAT     H234302   5.198   5.787   0.766
11354WAT      O34303   8.741   7.643   2.823
11354WAT     H134304   8.813   7.679   2.764
11354WAT     H234305   8.653   7.678   2.793
11355WAT      O34306   3.395   8.068   2.876
11355WAT     H134307   3.342   8.106   2.952
11355WAT     H234308   3.384   7.969   2.874
11356WAT      O34309   1.571   6.260   0.889
11356WAT     H134310   1.640   6.188   0.879
11356WAT     H234311   1.583   6.307   0.977
11357WAT      O34312   1.747   6.514   9.287
11357WAT     H134313   1.765   6.448   9.215
11357WAT     H234314   1.823   6.515   9.352
11358WAT      O34315   7.303   7.847   1.389
11358WAT     H134316   7.238   7.873   1.460
11358WAT     H234317   7.255   7.828   1.304
11359WAT      O34318   4.022   0.964   7.593
11359WAT     H134319   4.068   1.049   7.567
11359WAT     H234320   3.971   0.979   7.678
11360WAT      O34321   3.741   0.148   8.162
11360WAT     H134322   3.802   0.210   8.113
11360WAT     H234323   3.675   0.109   8.098
11361WAT      O34324   4.724   0.224   0.624
11361WAT     H134325   4.659   0.244   0.550
11361WAT     H234326   4.770   0.138   0.604
11362WAT      O34327   7.188   3.893   6.496
11362WAT     H134328   7.284   3.865   6.504
11362WAT     H234329   7.150   3.910   6.587
11363WAT      O34330   6.825   7.467   5.011
11363WAT     H134331   6.813   7.522   4.928
11363WAT     H234332   6.736   7.454   5.056
11364WAT      O34333   8.394   1.485   0.794
11364WAT     H134334   8.316   1.543   0.816
11364WAT     H234335   8.431   1.510   0.705
11365WAT      O34336   9.879   7.075   1.918
11365WAT     H134337   9.941   7.149   1.945
11365WAT     H234338   9.932   6.998   1.881
11366WAT      O34339   2.860   4.368   7.911
11366WAT     H134340   2.816   4.424   7.841
11366WAT     H234341   2.959   4.364   7.892
11367WAT      O34342   9.392   7.997   1.215
11367WAT     H134343   9.479   7.969   1.255
11367WAT     H234344   9.318   7.980   1.280
11368WAT      O34345   9.284   3.462   6.257
11368WAT     H134346   9.347   3.414   6.317
11368WAT     H234347   9.334   3.528   6.202
11369WAT      O34348   8.196   4.869   8.324
11369WAT     H134349   8.285   4.892   8.286
11369WAT     H234350   8.140   4.823   8.255
11370WAT      O34351   1.498   1.109   5.115
11370WAT     H134352   1.449   1.125   5.200
11370WAT     H234353   1.466   1.024   5.073
11371WAT      O34354   2.184   8.379   9.588
11371WAT     H134355   2.243   8.457   9.569
11371WAT     H234356   2.240   8.303   9.622
11372WAT      O34357   0.889   3.940   2.717
11372WAT     H134358   0.824   4.016   2.718
11372WAT     H234359   0.976   3.972   2.681
11373WAT      O34360   3.144   2.480   2.022
11373WAT     H134361   3.206   2.503   2.097
11373WAT     H234362   3.196   2.476   1.936
11374WAT      O34363   8.958   4.175   8.551
11374WAT     H134364   8.877   4.124   8.579
11374WAT     H234365   8.965   4.173   8.451
11375WAT      O34366   5.105   4.996   7.574
11375WAT     H134367   5.047   5.026   7.649
11375WAT     H234368   5.060   4.920   7.526
11376WAT      O34369   1.583   3.758   8.295
11376WAT     H134370   1.577   3.689   8.367
11376WAT     H234371   1.507   3.747   8.231
11377WAT      O34372   7.009   1.585   8.661
11377WAT     H134373   6.978   1.542   8.576
11377WAT     H234374   6.949   1.662   8.684
11378WAT      O34375   4.084   6.764   2.707
11378WAT     H134376   4.007   6.760   2.644
11378WAT     H234377   4.051   6.785   2.799
11379WAT      O34378   7.630   1.923   4.903
11379WAT     H134379   7.677   1.875   4.977
11379WAT     H234380   7.685   2.001   4.874
11380WAT      O34381   5.335   2.739   6.438
11380WAT     H134382   5.323   2.787   6.525
11380WAT     H234383   5.407   2.670   6.447
11381WAT      O34384   0.104   5.633   9.175
11381WAT     H134385   0.043   5.593   9.244
11381WAT     H234386   0.094   5.583   9.089
11382WAT      O34387   7.163   6.163   5.686
11382WAT     H134388   7.142   6.135   5.780
11382WAT     H234389   7.111   6.106   5.622
11383WAT      O34390   8.736   6.566   7.499
11383WAT     H134391   8.724   6.626   7.578
11383WAT     H234392   8.746   6.472   7.530
11384WAT      O34393   6.436   1.999   7.361
11384WAT     H134394   6.477   1.911   7.385
11384WAT     H234395   6.363   1.985   7.293
11385WAT      O34396   5.863   6.099   8.000
11385WAT     H134397   5.861   6.190   7.957
11385WAT     H234398   5.810   6.035   7.944
11386WAT      O34399   0.058   9.213   9.199
11386WAT     H134400   0.022   9.123   9.175
11386WAT     H234401  -0.017   9.271   9.233
11387WAT      O34402   4.141   9.472   2.780
11387WAT     H134403   4.142   9.423   2.693
11387WAT     H234404   4.182   9.414   2.851
11388WAT      O34405   5.679   2.978   2.701
11388WAT     H134406   5.647   3.026   2.619
11388WAT     H234407   5.778   2.981   2.704
11389WAT      O34408   6.179   2.194   3.325
11389WAT     H134409   6.237   2.114   3.342
11389WAT     H234410   6.225   2.277   3.356
11390WAT      O34411   8.718   1.758   9.308
11390WAT     H134412   8.642   1.816   9.277
11390WAT     H234413   8.796   1.815   9.332
11391WAT      O34414   9.861   3.248   6.672
11391WAT     H134415   9.808   3.328   6.645
11391WAT     H234416   9.947   3.276   6.713
11392WAT      O34417   6.733   9.219   6.722
11392WAT     H134418   6.709   9.206   6.626
11392WAT     H234419   6.733   9.131   6.769
11393WAT      O34420   4.385   8.027   5.271
11393WAT     H134421   4.385   7.935   5.232
11393WAT     H234422   4.440   8.088   5.214
11394WAT      O34423   7.783   4.154   7.169
11394WAT     H134424   7.883   4.149   7.166
11394WAT     H234425   7.755   4.245   7.198
11395WAT      O34426   4.844   4.889   3.665
11395WAT     H134427   4.786   4.947   3.723
11395WAT     H234428   4.795   4.865   3.582
11396WAT      O34429   5.299   9.381   6.244
11396WAT     H134430   5.375   9.344   6.298
11396WAT     H234431   5.275   9.314   6.173
11397WAT      O34432   9.314   2.783   0.730
11397WAT     H134433   9.301   2.880   0.750
11397WAT     H234434   9.255   2.729   0.790
11398WAT      O34435   4.455   4.816   4.123
11398WAT     H134436   4.469   4.910   4.093
11398WAT     H234437   4.479   4.753   4.049
11399WAT      O34438   9.729   7.636   9.625
11399WAT     H134439   9.820   7.595   9.632
11399WAT     H234440   9.720   7.709   9.692
11400WAT      O34441   0.005   6.090   2.675
11400WAT     H134442  -0.081   6.040   2.666
11400WAT     H234443   0.011   6.131   2.766
11401WAT      O34444   0.956   9.747   7.794
11401WAT     H134445   1.014   9.767   7.715
11401WAT     H234446   0.889   9.677   7.770
11402WAT      O34447   9.848   8.773   8.187
11402WAT     H134448   9.790   8.761   8.267
11402WAT     H234449   9.891   8.864   8.190
11403WAT      O34450   7.024   8.379   3.019
11403WAT     H134451   6.982   8.336   2.939
11403WAT     H234452   7.122   8.361   3.018
11404WAT      O34453   0.459   7.456   3.932
11404WAT     H134454   0.512   7.448   3.848
11404WAT     H234455   0.519   7.481   4.007
11405WAT      O34456   5.165   0.590   2.164
11405WAT     H134457   5.080   0.558   2.206
11405WAT     H234458   5.235   0.520   2.173
11406WAT      O34459   3.486   3.379   8.722
11406WAT     H134460   3.455   3.345   8.811
11406WAT     H234461   3.441   3.328   8.649
11407WAT      O34462   4.039   7.517   7.614
11407WAT     H134463   4.127   7.478   7.641
11407WAT     H234464   4.020   7.494   7.519
11408WAT      O34465   3.860   6.357   7.406
11408WAT     H134466   3.878   6.272   7.455
11408WAT     H234467   3.876   6.435   7.467
11409WAT      O34468   1.625   0.619   9.223
11409WAT     H134469   1.621   0.525   9.188
11409WAT     H234470   1.718   0.654   9.212
11410WAT      O34471   7.137   1.795   9.426
11410WAT     H134472   7.056   1.851   9.445
11410WAT     H234473   7.193   1.787   9.509
11411WAT      O34474   4.519   1.739   3.066
11411WAT     H134475   4.544   1.672   2.996
11411WAT     H234476   4.579   1.727   3.145
11412WAT      O34477   8.008   5.311   2.768
11412WAT     H134478   8.085   5.267   2.722
11412WAT     H234479   7.962   5.245   2.828
11413WAT      O34480   0.743   6.390   3.581
11413WAT     H134481   0.772   6.412   3.488
11413WAT     H234482   0.684   6.462   3.616
11414WAT      O34483   9.561   7.115   7.929
11414WAT     H134484   9.515   7.165   8.002
11414WAT     H234485   9.615   7.041   7.970
11415WAT      O34486   0.421   8.927   1.376
11415WAT     H134487   0.387   8.898   1.466
11415WAT     H234488   0.439   8.847   1.320
11416WAT      O34489   7.004   9.080   0.952
11416WAT     H134490   6.905   9.081   0.948
11416WAT     H234491   7.033   9.063   1.047
11417WAT      O34492   3.294   1.749   7.947
11417WAT     H134493   3.367   1.695   7.905
11417WAT     H234494   3.327   1.789   8.033
11418WAT      O34495   2.237   7.413   5.702
11418WAT     H134496   2.258   7.511   5.704
11418WAT     H234497   2.322   7.361   5.708
11419WAT      O34498   4.552   7.697   9.630
11419WAT     H134499   4.639   7.656   9.603
11419WAT     H234500   4.542   7.785   9.585
11420WAT      O34501   6.899   9.713   0.140
11420WAT     H134502   6.860   9.633   0.095
11420WAT     H234503   6.885   9.707   0.239
11421WAT      O34504   0.295   3.684   7.639
11421WAT     H134505   0.256   3.592   7.631
11421WAT     H234506   0.238   3.739   7.700
11422WAT      O34507   1.441   3.205   0.934
11422WAT     H134508   1.518   3.247   0.982
11422WAT     H234509   1.383   3.157   1.000
11423WAT      O34510   6.619   1.306   6.656
11423WAT     H134511   6.589   1.253   6.577
11423WAT     H234512   6.670   1.386   6.625
11424WAT      O34513   0.545   0.126   8.402
11424WAT     H134514   0.555   0.207   8.344
11424WAT     H234515   0.461   0.134   8.456
11425WAT      O34516   7.203   6.494   4.981
11425WAT     H134517   7.173   6.549   5.058
11425WAT     H234518   7.282   6.539   4.937
11426WAT      O34519   2.426   6.207   2.623
11426WAT     H134520   2.501   6.195   2.689
11426WAT     H234521   2.437   6.294   2.575
11427WAT      O34522   9.653   1.482   2.661
11427WAT     H134523   9.598   1.429   2.726
11427WAT     H234524   9.614   1.472   2.570
11428WAT      O34525   7.761   6.861   8.986
11428WAT     H134526   7.717   6.853   8.897
11428WAT     H234527   7.758   6.774   9.034
11429WAT      O34528   9.119   9.496   4.101
11429WAT     H134529   9.078   9.549   4.027
11429WAT     H234530   9.063   9.415   4.118
11430WAT      O34531   1.723   0.221   2.057
11430WAT     H134532   1.680   0.219   1.967
11430WAT     H234533   1.768   0.310   2.070
11431WAT      O34534   0.240   1.665   8.124
11431WAT     H134535   0.200   1.586   8.078
11431WAT     H234536   0.191   1.748   8.095
11432WAT      O34537   2.217   1.455   7.567
11432WAT     H134538   2.184   1.413   7.651
11432WAT     H234539   2.184   1.403   7.488
11433WAT      O34540   8.611   5.720   0.912
11433WAT     H134541   8.524   5.693   0.871
11433WAT     H234542   8.684   5.714   0.844
11434WAT      O34543   7.544   5.707   8.767
11434WAT     H134544   7.472   5.777   8.771
11434WAT     H234545   7.582   5.705   8.675
11435WAT      O34546   1.816   3.315   0.109
11435WAT     H134547   1.751   3.382   0.075
11435WAT     H234548   1.795   3.293   0.204
11436WAT      O34549   0.656   5.480   8.813
11436WAT     H134550   0.574   5.535   8.804
11436WAT     H234551   0.637   5.386   8.783
11437WAT      O34552   3.293   7.600   1.890
11437WAT     H134553   3.318   7.640   1.978
11437WAT     H234554   3.233   7.522   1.905
11438WAT      O34555   0.680   7.627   8.566
11438WAT     H134556   0.755   7.693   8.572
11438WAT     H234557   0.656   7.596   8.658
11439WAT      O34558   3.523   5.198   2.232
11439WAT     H134559   3.487   5.270   2.291
11439WAT     H234560   3.454   5.174   2.163
11440WAT      O34561   3.462   1.878   1.245
11440WAT     H134562   3.475   1.976   1.230
11440WAT     H234563   3.432   1.862   1.339
11441WAT      O34564   2.753   2.159   1.123
11441WAT     H134565   2.781   2.143   1.218
11441WAT     H234566   2.666   2.112   1.107
11442WAT      O34567   9.892   7.475   1.274
11442WAT     H134568   9.834   7.396   1.294
11442WAT     H234569   9.871   7.510   1.182
11443WAT      O34570   0.238   6.085   0.490
11443WAT     H134571   0.269   6.165   0.439
11443WAT     H234572   0.317   6.031   0.518
11444WAT      O34573   1.105   9.294   8.947
11444WAT     H134574   1.127   9.371   8.887
11444WAT     H234575   1.146   9.309   9.037
11445WAT      O34576   2.897   8.628   5.594
11445WAT     H134577   2.882   8.646   5.496
11445WAT     H234578   2.857   8.539   5.618
11446WAT      O34579   6.633   8.720   2.573
11446WAT     H134580   6.585   8.729   2.660
11446WAT     H234581   6.656   8.624   2.558
11447WAT      O34582   7.539   3.416   2.046
11447WAT     H134583   7.474   3.340   2.051
11447WAT     H234584   7.498   3.499   2.085
11448WAT      O34585   0.758   8.995   3.313
11448WAT     H134586   0.805   9.073   3.354
11448WAT     H234587   0.659   9.010   3.315
11449WAT      O34588   9.643   1.435   3.435
11449WAT     H134589   9.714   1.408   3.500
11449WAT     H234590   9.556   1.444   3.483
11450WAT      O34591   8.771   9.408   7.522
11450WAT     H134592   8.703   9.357   7.471
11450WAT     H234593   8.746   9.505   7.524
11451WAT      O34594   1.052   9.538   3.538
11451WAT     H134595   0.997   9.476   3.594
11451WAT     H234596   1.149   9.520   3.554
11452WAT      O34597   8.540   3.605   1.359
11452WAT     H134598   8.545   3.570   1.452
11452WAT     H234599   8.537   3.705   1.361
11453WAT      O34600   5.094   2.194   1.746
11453WAT     H134601   5.184   2.238   1.756
11453WAT     H234602   5.049   2.229   1.664
11454WAT      O34603   4.503   2.020   3.088
11454WAT     H134604   4.494   1.921   3.078
11454WAT     H234605   4.576   2.053   3.028
11455WAT      O34606   9.470   8.118   0.118
11455WAT     H134607   9.514   8.207   0.125
11455WAT     H234608   9.457   8.080   0.209
11456WAT      O34609   4.033   5.375   5.082
11456WAT     H134610   4.008   5.311   5.008
11456WAT     H234611   4.060   5.323   5.163
11457WAT      O34612   3.167   8.221   9.248
11457WAT     H134613   3.089   8.281   9.234
11457WAT     H234614   3.152   8.135   9.199
11458WAT      O34615   7.565   8.431   8.552
11458WAT     H134616   7.626   8.362   8.589
11458WAT     H234617   7.474   8.419   8.591
11459WAT      O34618   1.393   7.699   2.637
11459WAT     H134619   1.406   7.634   2.712
11459WAT     H234620   1.331   7.660   2.569
11460WAT      O34621   8.100   2.088   1.671
11460WAT     H134622   8.116   2.004   1.620
11460WAT     H234623   8.037   2.070   1.747
11461WAT      O34624   9.055   8.455   9.547
11461WAT     H134625   9.060   8.492   9.640
11461WAT     H234626   9.095   8.522   9.483
11462WAT      O34627   6.220   7.436   2.345
11462WAT     H134628   6.227   7.456   2.248
11462WAT     H234629   6.208   7.522   2.396
11463WAT      O34630   1.381   0.097   5.314
11463WAT     H134631   1.369   0.196   5.317
11463WAT     H234632   1.292   0.052   5.310
11464WAT      O34633   9.675   7.122   2.533
11464WAT     H134634   9.635   7.031   2.524
11464WAT     H234635   9.609   7.191   2.505
11465WAT      O34636   2.803   2.770   8.268
11465WAT     H134637   2.886   2.823   8.285
11465WAT     H234638   2.774   2.725   8.352
11466WAT      O34639   6.550   0.639   2.042
11466WAT     H134640   6.516   0.566   2.100
11466WAT     H234641   6.474   0.694   2.009
11467WAT      O34642   0.255   5.535   5.338
11467WAT     H134643   0.280   5.631   5.325
11467WAT     H234644   0.171   5.515   5.286
11468WAT      O34645   3.418   4.012   2.129
11468WAT     H134646   3.386   4.100   2.095
11468WAT     H234647   3.429   4.016   2.228
11469WAT      O34648   3.612   9.305   2.470
11469WAT     H134649   3.554   9.287   2.549
11469WAT     H234650   3.564   9.365   2.406
11470WAT      O34651   7.618   3.736   9.140
11470WAT     H134652   7.707   3.695   9.162
11470WAT     H234653   7.558   3.667   9.099
11471WAT      O34654   0.202   3.273   3.323
11471WAT     H134655   0.150   3.284   3.408
11471WAT     H234656   0.159   3.327   3.251
11472WAT      O34657   6.629   4.849   4.049
11472WAT     H134658   6.685   4.890   4.121
11472WAT     H234659   6.560   4.789   4.090
11473WAT      O34660   0.517   5.785   2.465
11473WAT     H134661   0.567   5.716   2.413
11473WAT     H234662   0.445   5.825   2.408
11474WAT      O34663   6.596   7.816   5.113
11474WAT     H134664   6.665   7.770   5.168
11474WAT     H234665   6.566   7.755   5.040
11475WAT      O34666   4.474   2.327   2.091
11475WAT     H134667   4.426   2.240   2.092
11475WAT     H234668   4.505   2.348   1.998
11476WAT      O34669   1.668   6.405   6.086
11476WAT     H134670   1.601   6.336   6.114
11476WAT     H234671   1.620   6.484   6.048
11477WAT      O34672   7.097   3.060   0.058
11477WAT     H134673   7.172   2.994   0.053
11477WAT     H234674   7.025   3.024   0.116
11478WAT      O34675   7.385   3.572   4.414
11478WAT     H134676   7.484   3.582   4.401
11478WAT     H234677   7.337   3.628   4.346
11479WAT      O34678   7.213   5.915   2.631
11479WAT     H134679   7.212   5.951   2.724
11479WAT     H234680   7.219   5.991   2.566
11480WAT      O34681   1.374   6.314   1.133
11480WAT     H134682   1.278   6.316   1.106
11480WAT     H234683   1.381   6.334   1.231
11481WAT      O34684   2.760   2.538   4.384
11481WAT     H134685   2.728   2.549   4.478
11481WAT     H234686   2.777   2.441   4.367
11482WAT      O34687   2.111   3.891   7.732
11482WAT     H134688   2.077   3.800   7.706
11482WAT     H234689   2.034   3.952   7.750
11483WAT      O34690   0.134   0.366   7.651
11483WAT     H134691   0.169   0.283   7.694
11483WAT     H234692   0.126   0.351   7.552
11484WAT      O34693   9.306   2.480   5.191
11484WAT     H134694   9.398   2.441   5.192
11484WAT     H234695   9.283   2.508   5.097
11485WAT      O34696   4.724   4.939   0.612
11485WAT     H134697   4.802   5.002   0.613
11485WAT     H234698   4.702   4.915   0.517
11486WAT      O34699   4.223   2.230   9.735
11486WAT     H134700   4.141   2.181   9.766
11486WAT     H234701   4.281   2.250   9.814
11487WAT      O34702   7.722   0.947   8.289
11487WAT     H134703   7.789   0.921   8.220
11487WAT     H234704   7.672   1.028   8.257
11488WAT      O34705   5.734   1.491   6.240
11488WAT     H134706   5.698   1.412   6.290
11488WAT     H234707   5.693   1.575   6.277
11489WAT      O34708   2.992   3.189   5.921
11489WAT     H134709   2.984   3.249   6.000
11489WAT     H234710   3.039   3.105   5.949
11490WAT      O34711   5.627   5.081   3.706
11490WAT     H134712   5.533   5.057   3.681
11490WAT     H234713   5.631   5.178   3.728
11491WAT      O34714   6.966   5.631   5.131
11491WAT     H134715   6.919   5.577   5.061
11491WAT     H234716   6.994   5.719   5.092
11492WAT      O34717   2.740   4.439   3.782
11492WAT     H134718   2.755   4.536   3.761
11492WAT     H234719   2.645   4.415   3.762
11493WAT      O34720   8.244   8.532   6.782
11493WAT     H134721   8.243   8.486   6.693
11493WAT     H234722   8.318   8.495   6.838
11494WAT      O34723   6.514   4.282   2.510
11494WAT     H134724   6.435   4.304   2.566
11494WAT     H234725   6.571   4.215   2.558
11495WAT      O34726   1.254   0.228   0.375
11495WAT     H134727   1.206   0.277   0.302
11495WAT     H234728   1.263   0.288   0.455
11496WAT      O34729   2.758   5.218   8.983
11496WAT     H134730   2.824   5.242   8.913
11496WAT     H234731   2.747   5.118   8.987
11497WAT      O34732   1.503   4.235   7.604
11497WAT     H134733   1.515   4.171   7.680
11497WAT     H234734   1.431   4.301   7.628
11498WAT      O34735   6.607   2.519   3.436
11498WAT     H134736   6.603   2.565   3.525
11498WAT     H234737   6.692   2.544   3.390
11499WAT      O34738   5.219   5.291   9.307
11499WAT     H134739   5.142   5.259   9.362
11499WAT     H234740   5.223   5.238   9.222
11500WAT      O34741   5.452   0.026   5.209
11500WAT     H134742   5.506   0.009   5.292
11500WAT     H234743   5.406   0.114   5.218
11501WAT      O34744   7.742   5.301   1.300
11501WAT     H134745   7.682   5.372   1.335
11501WAT     H234746   7.829   5.303   1.351
11502WAT      O34747   7.719   6.306   3.681
11502WAT     H134748   7.799   6.270   3.633
11502WAT     H234749   7.743   6.324   3.777
11503WAT      O34750   2.149   4.066   1.937
11503WAT     H134751   2.168   4.088   2.033
11503WAT     H234752   2.065   4.012   1.931
11504WAT      O34753   8.811   4.260   3.264
11504WAT     H134754   8.722   4.215   3.265
11504WAT     H234755   8.841   4.273   3.170
11505WAT      O34756   7.899   4.257   0.935
11505WAT     H134757   7.850   4.208   1.007
11505WAT     H234758   7.874   4.354   0.937
11506WAT      O34759   9.657   4.145   0.789
11506WAT     H134760   9.711   4.226   0.813
11506WAT     H234761   9.590   4.128   0.861
11507WAT      O34762   0.779   9.033   0.214
11507WAT     H134763   0.839   8.953   0.214
11507WAT     H234764   0.703   9.018   0.151
11508WAT      O34765   5.753   6.754   1.460
11508WAT     H134766   5.744   6.669   1.407
11508WAT     H234767   5.732   6.735   1.556
11509WAT      O34768   9.724   1.771   6.875
11509WAT     H134769   9.771   1.745   6.791
11509WAT     H234770   9.758   1.861   6.905
11510WAT      O34771   0.957   1.512   4.801
11510WAT     H134772   0.976   1.436   4.739
11510WAT     H234773   0.894   1.482   4.872
11511WAT      O34774   8.934   3.378   1.112
11511WAT     H134775   8.968   3.460   1.067
11511WAT     H234776   8.939   3.389   1.211
11512WAT      O34777   8.900   2.051   5.296
11512WAT     H134778   8.896   2.136   5.349
11512WAT     H234779   8.973   1.993   5.333
11513WAT      O34780   1.002   7.363   8.635
11513WAT     H134781   1.026   7.455   8.665
11513WAT     H234782   0.976   7.365   8.539
11514WAT      O34783   4.613   1.027   1.745
11514WAT     H134784   4.697   1.052   1.696
11514WAT     H234785   4.605   1.082   1.828
11515WAT      O34786   9.585   0.067   1.939
11515WAT     H134787   9.627   0.078   1.849
11515WAT     H234788   9.530   0.148   1.960
11516WAT      O34789   3.371   8.019   9.365
11516WAT     H134790   3.458   8.067   9.362
11516WAT     H234791   3.300   8.075   9.322
11517WAT      O34792   2.198   7.667   5.368
11517WAT     H134793   2.242   7.647   5.280
11517WAT     H234794   2.128   7.598   5.386
11518WAT      O34795   6.720   7.387   7.769
11518WAT     H134796   6.678   7.334   7.695
11518WAT     H234797   6.818   7.366   7.773
11519WAT      O34798   4.990   0.617   9.706
11519WAT     H134799   4.896   0.586   9.692
11519WAT     H234800   5.033   0.562   9.778
11520WAT      O34801   8.490   9.038   4.185
11520WAT     H134802   8.460   9.033   4.280
11520WAT     H234803   8.480   8.949   4.142
11521WAT      O34804   4.961   0.323   8.670
11521WAT     H134805   4.899   0.399   8.652
11521WAT     H234806   4.925   0.269   8.746
11522WAT      O34807   4.316   9.706   5.788
11522WAT     H134808   4.397   9.759   5.814
11522WAT     H234809   4.234   9.761   5.804
11523WAT      O34810   1.016   1.095   8.233
11523WAT     H134811   1.098   1.125   8.283
11523WAT     H234812   1.010   0.995   8.237
11524WAT      O34813   1.293   3.638   1.839
11524WAT     H134814   1.214   3.579   1.856
11524WAT     H234815   1.370   3.609   1.896
11525WAT      O34816   4.243   4.204   1.137
11525WAT     H134817   4.200   4.144   1.204
11525WAT     H234818   4.189   4.288   1.128
11526WAT      O34819   1.304   4.558   3.737
11526WAT     H134820   1.380   4.508   3.779
11526WAT     H234821   1.295   4.648   3.780
11527WAT      O34822   1.114   2.165   7.980
11527WAT     H134823   1.087   2.222   7.903
11527WAT     H234824   1.112   2.069   7.954
11528WAT      O34825   6.040   0.180   4.453
11528WAT     H134826   6.047   0.109   4.523
11528WAT     H234827   6.110   0.165   4.383
11529WAT      O34828   2.702   9.330   4.064
11529WAT     H134829   2.776   9.367   4.008
11529WAT     H234830   2.623   9.392   4.059
11530WAT      O34831   8.710   2.796   5.749
11530WAT     H134832   8.686   2.856   5.825
11530WAT     H234833   8.671   2.834   5.664
11531WAT      O34834   3.096   2.341   6.083
11531WAT     H134835   3.006   2.385   6.091
11531WAT     H234836   3.134   2.359   5.992
11532WAT      O34837   9.727   3.869   5.680
11532WAT     H134838   9.764   3.888   5.771
11532WAT     H234839   9.802   3.847   5.617
11533WAT      O34840   3.996   2.350   6.680
11533WAT     H134841   3.953   2.422   6.625
11533WAT     H234842   4.046   2.392   6.756
11534WAT      O34843   1.860   0.081   8.594
11534WAT     H134844   1.945   0.050   8.636
11534WAT     H234845   1.880   0.148   8.523
11535WAT      O34846   6.945   8.319   1.476
11535WAT     H134847   6.953   8.285   1.570
11535WAT     H234848   6.850   8.315   1.446
11536WAT      O34849   3.194   8.570   0.020
11536WAT     H134850   3.235   8.523  -0.059
11536WAT     H234851   3.095   8.562   0.016
11537WAT      O34852   3.393   1.483   9.258
11537WAT     H134853   3.400   1.582   9.244
11537WAT     H234854   3.480   1.449   9.293
11538WAT      O34855   4.306   6.746   5.844
11538WAT     H134856   4.270   6.812   5.777
11538WAT     H234857   4.261   6.658   5.831
11539WAT      O34858   4.255   3.637   2.883
11539WAT     H134859   4.237   3.550   2.837
11539WAT     H234860   4.224   3.632   2.978
11540WAT      O34861   7.638   1.074   6.018
11540WAT     H134862   7.703   1.035   5.952
11540WAT     H234863   7.616   1.167   5.991
11541WAT      O34864   4.261   6.961   1.405
11541WAT     H134865   4.230   6.926   1.317
11541WAT     H234866   4.270   7.060   1.401
11542WAT      O34867   5.800   5.727   1.521
11542WAT     H134868   5.740   5.807   1.517
11542WAT     H234869   5.880   5.743   1.463
11543WAT      O34870   7.263   8.290   2.641
11543WAT     H134871   7.247   8.386   2.666
11543WAT     H234872   7.180   8.253   2.599
11544WAT      O34873   1.549   4.418   3.811
11544WAT     H134874   1.575   4.499   3.863
11544WAT     H234875   1.630   4.379   3.767
11545WAT      O34876   7.597   4.949   3.853
11545WAT     H134877   7.610   4.854   3.884
11545WAT     H234878   7.576   5.007   3.932
11546WAT      O34879   2.915   2.705   9.754
11546WAT     H134880   2.949   2.663   9.838
11546WAT     H234881   2.896   2.633   9.686
11547WAT      O34882   5.907   8.589   6.935
11547WAT     H134883   5.840   8.664   6.933
11547WAT     H234884   5.971   8.599   6.858
11548WAT      O34885   8.508   4.229   4.130
11548WAT     H134886   8.434   4.265   4.188
11548WAT     H234887   8.537   4.140   4.165
11549WAT      O34888   9.536   5.221   2.040
11549WAT     H134889   9.592   5.138   2.037
11549WAT     H234890   9.579   5.292   1.984
11550WAT      O34891   5.003   1.354   1.804
11550WAT     H134892   5.076   1.369   1.871
11550WAT     H234893   4.948   1.437   1.796
11551WAT      O34894   5.432   2.222   0.152
11551WAT     H134895   5.449   2.126   0.128
11551WAT     H234896   5.405   2.227   0.248
11552WAT      O34897   4.640   5.291   5.654
11552WAT     H134898   4.716   5.303   5.719
11552WAT     H234899   4.664   5.219   5.589
11553WAT      O34900   5.470   0.660   1.945
11553WAT     H134901   5.507   0.687   1.856
11553WAT     H234902   5.545   0.646   2.010
11554WAT      O34903   1.754   9.076   5.280
11554WAT     H134904   1.847   9.110   5.264
11554WAT     H234905   1.703   9.143   5.333
11555WAT      O34906   9.394   0.678   3.938
11555WAT     H134907   9.305   0.661   3.897
11555WAT     H234908   9.456   0.715   3.868
11556WAT      O34909   1.762   9.631   5.337
11556WAT     H134910   1.794   9.583   5.256
11556WAT     H234911   1.837   9.682   5.378
11557WAT      O34912   9.155   7.922   0.115
11557WAT     H134913   9.152   7.966   0.025
11557WAT     H234914   9.116   7.985   0.183
11558WAT      O34915   8.789   4.458   9.328
11558WAT     H134916   8.782   4.557   9.315
11558WAT     H234917   8.812   4.414   9.242
11559WAT      O34918   2.344   3.818   7.435
11559WAT     H134919   2.309   3.757   7.506
11559WAT     H234920   2.389   3.765   7.364
11560WAT      O34921   2.349   3.892   2.589
11560WAT     H134922   2.401   3.807   2.584
11560WAT     H234923   2.390   3.953   2.657
11561WAT      O34924   1.344   8.532   7.359
11561WAT     H134925   1.352   8.434   7.380
11561WAT     H234926   1.398   8.584   7.425
11562WAT      O34927   3.413   4.776   8.991
11562WAT     H134928   3.371   4.847   9.048
11562WAT     H234929   3.512   4.783   8.998
11563WAT      O34930   6.821   6.248   9.206
11563WAT     H134931   6.736   6.235   9.155
11563WAT     H234932   6.894   6.195   9.163
11564WAT      O34933   5.840   3.847   1.652
11564WAT     H134934   5.927   3.802   1.671
11564WAT     H234935   5.807   3.820   1.561
11565WAT      O34936   7.276   5.930   0.518
11565WAT     H134937   7.204   5.941   0.586
11565WAT     H234938   7.316   6.019   0.497
11566WAT      O34939   8.811   3.998   1.462
11566WAT     H134940   8.871   4.066   1.505
11566WAT     H234941   8.829   3.908   1.501
11567WAT      O34942   1.795   1.843   9.516
11567WAT     H134943   1.740   1.875   9.593
11567WAT     H234944   1.739   1.785   9.457
11568WAT      O34945   4.611   9.325   8.753
11568WAT     H134946   4.709   9.308   8.755
11568WAT     H234947   4.591   9.403   8.693
11569WAT      O34948   4.566   5.907   1.998
11569WAT     H134949   4.581   5.809   2.016
11569WAT     H234950   4.548   5.954   2.085
11570WAT      O34951   2.025   5.499   0.897
11570WAT     H134952   1.941   5.501   0.951
11570WAT     H234953   2.006   5.528   0.804
11571WAT      O34954   9.804   3.449   2.694
11571WAT     H134955   9.903   3.448   2.701
11571WAT     H234956   9.774   3.376   2.633
11572WAT      O34957   6.535   6.412   2.043
11572WAT     H134958   6.443   6.445   2.022
11572WAT     H234959   6.538   6.313   2.034
11573WAT      O34960   1.778   6.659   3.362
11573WAT     H134961   1.754   6.715   3.282
11573WAT     H234962   1.857   6.601   3.339
11574WAT      O34963   5.695   0.606   5.556
11574WAT     H134964   5.733   0.628   5.645
11574WAT     H234965   5.674   0.509   5.551
11575WAT      O34966   1.650   5.701   1.307
11575WAT     H134967   1.704   5.719   1.389
11575WAT     H234968   1.615   5.787   1.270
11576WAT      O34969   5.106   3.660   0.370
11576WAT     H134970   5.026   3.658   0.309
11576WAT     H234971   5.085   3.610   0.454
11577WAT      O34972   7.261   6.330   3.013
11577WAT     H134973   7.341   6.298   3.065
11577WAT     H234974   7.287   6.343   2.918
11578WAT      O34975   0.371   4.103   6.575
11578WAT     H134976   0.444   4.082   6.640
11578WAT     H234977   0.312   4.022   6.564
11579WAT      O34978   1.508   7.386   5.292
11579WAT     H134979   1.568   7.347   5.222
11579WAT     H234980   1.494   7.319   5.365
11580WAT      O34981   1.433   4.808   5.097
11580WAT     H134982   1.439   4.870   5.175
11580WAT     H234983   1.493   4.841   5.024
11581WAT      O34984   1.423   9.709   8.608
11581WAT     H134985   1.420   9.609   8.603
11581WAT     H234986   1.338   9.742   8.649
11582WAT      O34987   8.419   1.540   7.512
11582WAT     H134988   8.387   1.460   7.562
11582WAT     H234989   8.346   1.608   7.507
11583WAT      O34990   8.074   5.698   9.542
11583WAT     H134991   7.997   5.720   9.483
11583WAT     H234992   8.057   5.611   9.588
11584WAT      O34993   3.169   8.724   7.353
11584WAT     H134994   3.238   8.652   7.361
11584WAT     H234995   3.116   8.729   7.438
11585WAT      O34996   4.408   6.000   2.668
11585WAT     H134997   4.399   5.954   2.756
11585WAT     H234998   4.449   6.090   2.681
11586WAT      O34999   3.651   6.249   7.766
11586WAT     H135000   3.576   6.289   7.715
11586WAT     H235001   3.729   6.312   7.768
11587WAT      O35002   9.666   2.758   7.560
11587WAT     H135003   9.620   2.687   7.506
11587WAT     H235004   9.753   2.723   7.595
11588WAT      O35005   3.058   6.831   0.786
11588WAT     H135006   3.088   6.774   0.863
11588WAT     H235007   3.040   6.924   0.819
11589WAT      O35008   9.346   2.196   9.637
11589WAT     H135009   9.346   2.129   9.711
11589WAT     H235010   9.419   2.175   9.572
11590WAT      O35011   5.982   5.161   4.346
11590WAT     H135012   5.946   5.162   4.253
11590WAT     H235013   5.913   5.124   4.408
11591WAT      O35014   4.739   3.287   2.323
11591WAT     H135015   4.825   3.260   2.281
11591WAT     H235016   4.737   3.386   2.334
11592WAT      O35017   6.931   0.514   9.038
11592WAT     H135018   6.919   0.610   9.064
11592WAT     H235019   7.006   0.474   9.091
11593WAT      O35020   4.643   3.518   8.618
11593WAT     H135021   4.726   3.570   8.601
11593WAT     H235022   4.564   3.580   8.616
11594WAT      O35023   3.016   9.691   7.993
11594WAT     H135024   2.983   9.687   8.088
11594WAT     H235025   3.098   9.634   7.984
11595WAT      O35026   2.355   7.312   9.320
11595WAT     H135027   2.420   7.378   9.357
11595WAT     H235028   2.403   7.244   9.265
11596WAT      O35029   3.995   8.054   6.362
11596WAT     H135030   4.033   7.978   6.416
11596WAT     H235031   3.958   8.123   6.424
11597WAT      O35032   0.502   3.375   2.862
11597WAT     H135033   0.546   3.348   2.776
11597WAT     H235034   0.526   3.470   2.884
11598WAT      O35035   1.971   2.823   6.599
11598WAT     H135036   1.921   2.737   6.596
11598WAT     H235037   2.039   2.820   6.673
11599WAT      O35038   9.391   0.134   0.159
11599WAT     H135039   9.370   0.037   0.151
11599WAT     H235040   9.479   0.145   0.204
11600WAT      O35041   2.501   1.103   7.322
11600WAT     H135042   2.433   1.166   7.287
11600WAT     H235043   2.543   1.052   7.246
11601WAT      O35044   7.429   7.209   1.923
11601WAT     H135045   7.473   7.179   1.838
11601WAT     H235046   7.470   7.295   1.953
11602WAT      O35047   8.380   5.692   6.683
11602WAT     H135048   8.373   5.789   6.660
11602WAT     H235049   8.476   5.668   6.699
11603WAT      O35050   6.169   1.418   2.031
11603WAT     H135051   6.204   1.336   2.076
11603WAT     H235052   6.070   1.409   2.017
11604WAT      O35053   9.754   9.039   5.086
11604WAT     H135054   9.840   9.090   5.085
11604WAT     H235055   9.773   8.941   5.091
11605WAT      O35056   6.684   6.750   5.162
11605WAT     H135057   6.670   6.763   5.261
11605WAT     H235058   6.619   6.806   5.112
11606WAT      O35059   7.168   2.556   8.542
11606WAT     H135060   7.152   2.462   8.573
11606WAT     H235061   7.111   2.575   8.462
11607WAT      O35062   7.871   7.920   9.034
11607WAT     H135063   7.774   7.937   9.053
11607WAT     H235064   7.908   7.856   9.101
11608WAT      O35065   3.089   7.277   5.814
11608WAT     H135066   3.064   7.236   5.902
11608WAT     H235067   3.187   7.300   5.815
11609WAT      O35068   3.538   8.915   7.750
11609WAT     H135069   3.452   8.955   7.719
11609WAT     H235070   3.588   8.982   7.805
11610WAT      O35071   1.680   6.829   4.727
11610WAT     H135072   1.586   6.839   4.758
11610WAT     H235073   1.728   6.764   4.785
11611WAT      O35074   8.525   6.502   3.793
11611WAT     H135075   8.505   6.414   3.749
11611WAT     H235076   8.558   6.566   3.724
11612WAT      O35077   1.385   0.721   9.233
11612WAT     H135078   1.401   0.817   9.209
11612WAT     H235079   1.473   0.674   9.243
11613WAT      O35080   6.634   2.669   0.435
11613WAT     H135081   6.678   2.750   0.473
11613WAT     H235082   6.609   2.607   0.510
11614WAT      O35083   9.336   7.107   1.096
11614WAT     H135084   9.403   7.062   1.155
11614WAT     H235085   9.248   7.059   1.103
11615WAT      O35086   2.787   2.284   6.624
11615WAT     H135087   2.784   2.248   6.531
11615WAT     H235088   2.784   2.383   6.623
11616WAT      O35089   5.016   1.316   9.362
11616WAT     H135090   4.938   1.323   9.424
11616WAT     H235091   5.025   1.221   9.331
11617WAT      O35092   4.312   4.076   4.340
11617WAT     H135093   4.385   4.011   4.318
11617WAT     H235094   4.342   4.169   4.319
11618WAT      O35095   0.482   1.992   1.208
11618WAT     H135096   0.573   2.009   1.169
11618WAT     H235097   0.413   1.999   1.135
11619WAT      O35098   6.452   0.685   7.417
11619WAT     H135099   6.388   0.722   7.350
11619WAT     H235100   6.439   0.731   7.504
11620WAT      O35101   9.219   3.985   3.979
11620WAT     H135102   9.180   3.951   4.064
11620WAT     H235103   9.319   3.978   3.981
11621WAT      O35104   2.590   5.037   4.513
11621WAT     H135105   2.647   4.956   4.502
11621WAT     H235106   2.559   5.044   4.608
11622WAT      O35107   2.644   0.764   3.877
11622WAT     H135108   2.662   0.676   3.831
11622WAT     H235109   2.669   0.839   3.816
11623WAT      O35110   7.683   6.904   5.737
11623WAT     H135111   7.704   6.898   5.640
11623WAT     H235112   7.754   6.857   5.790
11624WAT      O35113   9.136   3.482   0.844
11624WAT     H135114   9.193   3.472   0.763
11624WAT     H235115   9.194   3.495   0.924
11625WAT      O35116   6.828   7.462   9.518
11625WAT     H135117   6.752   7.503   9.569
11625WAT     H235118   6.906   7.525   9.517
11626WAT      O35119   1.030   6.773   3.151
11626WAT     H135120   1.007   6.718   3.071
11626WAT     H235121   0.952   6.831   3.176
11627WAT      O35122   7.200   4.790   5.087
11627WAT     H135123   7.253   4.721   5.137
11627WAT     H235124   7.186   4.759   4.992
11628WAT      O35125   5.298   8.215   9.090
11628WAT     H135126   5.350   8.199   9.006
11628WAT     H235127   5.231   8.141   9.103
11629WAT      O35128   6.410   7.210   8.045
11629WAT     H135129   6.315   7.177   8.042
11629WAT     H235130   6.410   7.308   8.068
11630WAT      O35131   5.806   4.545   8.378
11630WAT     H135132   5.827   4.448   8.370
11630WAT     H235133   5.860   4.597   8.311
11631WAT      O35134   1.153   5.029   5.013
11631WAT     H135135   1.172   4.931   5.021
11631WAT     H235136   1.096   5.046   4.933
11632WAT      O35137   3.212   2.547   8.560
11632WAT     H135138   3.116   2.530   8.586
11632WAT     H235139   3.230   2.646   8.562
11633WAT      O35140   5.718   6.094   5.142
11633WAT     H135141   5.800   6.121   5.194
11633WAT     H235142   5.652   6.169   5.144
11634WAT      O35143   5.573   4.231   0.524
11634WAT     H135144   5.538   4.323   0.507
11634WAT     H235145   5.498   4.166   0.521
11635WAT      O35146   3.910   6.507   9.552
11635WAT     H135147   3.889   6.479   9.458
11635WAT     H235148   4.000   6.550   9.556
11636WAT      O35149   8.556   4.480   7.956
11636WAT     H135150   8.508   4.412   7.901
11636WAT     H235151   8.631   4.519   7.904
11637WAT      O35152   1.990   5.689   8.231
11637WAT     H135153   1.967   5.733   8.145
11637WAT     H235154   2.087   5.662   8.231
11638WAT      O35155   3.347   6.286   1.082
11638WAT     H135156   3.295   6.243   1.155
11638WAT     H235157   3.435   6.317   1.117
11639WAT      O35158   4.913   0.140   1.847
11639WAT     H135159   4.855   0.059   1.858
11639WAT     H235160   4.868   0.219   1.889
11640WAT      O35161   1.506   8.079   9.507
11640WAT     H135162   1.453   8.129   9.439
11640WAT     H235163   1.576   8.024   9.462
11641WAT      O35164   6.482   7.393   3.644
11641WAT     H135165   6.497   7.416   3.740
11641WAT     H235166   6.533   7.456   3.586
11642WAT      O35167   8.590   3.836   1.743
11642WAT     H135168   8.534   3.915   1.764
11642WAT     H235169   8.602   3.780   1.826
11643WAT      O35170   7.339   3.294   0.393
11643WAT     H135171   7.366   3.389   0.408
11643WAT     H235172   7.352   3.242   0.478
11644WAT      O35173   5.101   1.831   5.667
11644WAT     H135174   5.086   1.821   5.569
11644WAT     H235175   5.180   1.889   5.683
11645WAT      O35176   1.253   3.731   3.667
11645WAT     H135177   1.223   3.756   3.760
11645WAT     H235178   1.198   3.781   3.600
11646WAT      O35179   4.422   4.064   5.124
11646WAT     H135180   4.517   4.076   5.153
11646WAT     H235181   4.363   4.129   5.172
11647WAT      O35182   3.624   5.560   8.982
11647WAT     H135183   3.602   5.468   9.013
11647WAT     H235184   3.707   5.558   8.927
11648WAT      O35185   1.164   8.673   4.923
11648WAT     H135186   1.093   8.726   4.969
11648WAT     H235187   1.205   8.610   4.989
11649WAT      O35188   2.541   2.008   5.276
11649WAT     H135189   2.533   2.009   5.176
11649WAT     H235190   2.637   1.995   5.302
11650WAT      O35191   5.098   1.895   8.472
11650WAT     H135192   5.111   1.951   8.390
11650WAT     H235193   5.019   1.835   8.459
11651WAT      O35194   7.868   2.267   1.081
11651WAT     H135195   7.816   2.197   1.032
11651WAT     H235196   7.808   2.344   1.102
11652WAT      O35197   5.796   6.013   3.858
11652WAT     H135198   5.894   6.009   3.878
11652WAT     H235199   5.749   5.941   3.908
11653WAT      O35200   3.327   3.940   0.604
11653WAT     H135201   3.391   3.979   0.539
11653WAT     H235202   3.370   3.863   0.652
11654WAT      O35203   6.260   3.994   0.073
11654WAT     H135204   6.257   3.941  -0.011
11654WAT     H235205   6.192   4.067   0.069
11655WAT      O35206   9.738   1.472   4.622
11655WAT     H135207   9.656   1.499   4.674
11655WAT     H235208   9.749   1.534   4.544
11656WAT      O35209   4.437   2.761   3.175
11656WAT     H135210   4.381   2.751   3.093
11656WAT     H235211   4.517   2.819   3.154
11657WAT      O35212   1.105   1.461   0.103
11657WAT     H135213   1.084   1.517   0.182
11657WAT     H235214   1.026   1.456   0.043
11658WAT      O35215   8.418   6.488   2.856
11658WAT     H135216   8.509   6.499   2.894
11658WAT     H235217   8.417   6.522   2.762
11659WAT      O35218   9.242   8.593   0.571
11659WAT     H135219   9.236   8.671   0.633
11659WAT     H235220   9.286   8.622   0.486
11660WAT      O35221   2.869   2.551   0.133
11660WAT     H135222   2.832   2.562   0.225
11660WAT     H235223   2.926   2.469   0.130
11661WAT      O35224   8.191   9.699   8.342
11661WAT     H135225   8.210   9.798   8.346
11661WAT     H235226   8.261   9.649   8.392
11662WAT      O35227   6.243   6.251   9.840
11662WAT     H135228   6.315   6.188   9.811
11662WAT     H235229   6.154   6.206   9.831
11663WAT      O35230   8.181   3.850   5.648
11663WAT     H135231   8.229   3.906   5.580
11663WAT     H235232   8.236   3.769   5.669
11664WAT      O35233   3.863   4.426   6.512
11664WAT     H135234   3.773   4.385   6.523
11664WAT     H235235   3.867   4.474   6.424
11665WAT      O35236   0.908   4.574   1.134
11665WAT     H135237   0.861   4.492   1.102
11665WAT     H235238   0.884   4.651   1.074
11666WAT      O35239   6.098   8.380   1.264
11666WAT     H135240   6.196   8.394   1.251
11666WAT     H235241   6.048   8.424   1.190
11667WAT      O35242   9.577   1.323   9.458
11667WAT     H135243   9.632   1.242   9.438
11667WAT     H235244   9.565   1.377   9.375
11668WAT      O35245   8.951   7.628   8.211
11668WAT     H135246   8.879   7.558   8.209
11668WAT     H235247   8.946   7.677   8.298
11669WAT      O35248   7.366   8.147   2.437
11669WAT     H135249   7.331   8.190   2.521
11669WAT     H235250   7.465   8.140   2.442
11670WAT      O35251   9.312   9.339   0.889
11670WAT     H135252   9.220   9.314   0.920
11670WAT     H235253   9.376   9.265   0.912
11671WAT      O35254   6.590   8.759   2.263
11671WAT     H135255   6.520   8.827   2.242
11671WAT     H235256   6.599   8.749   2.362
11672WAT      O35257   3.188   4.996   5.115
11672WAT     H135258   3.128   4.965   5.188
11672WAT     H235259   3.275   4.947   5.121
11673WAT      O35260   3.965   1.033   1.794
11673WAT     H135261   4.034   1.083   1.742
11673WAT     H235262   3.876   1.078   1.782
11674WAT      O35263   6.052   7.826   6.038
11674WAT     H135264   6.048   7.882   6.120
11674WAT     H235265   6.137   7.845   5.989
11675WAT      O35266   5.494   6.472   1.577
11675WAT     H135267   5.541   6.545   1.626
11675WAT     H235268   5.399   6.466   1.607
11676WAT      O35269   5.965   7.552   7.188
11676WAT     H135270   5.923   7.481   7.246
11676WAT     H235271   5.978   7.516   7.096
11677WAT      O35272   4.058   9.566   8.993
11677WAT     H135273   4.108   9.481   8.976
11677WAT     H235274   3.987   9.578   8.923
11678WAT      O35275   6.994   5.074   0.726
11678WAT     H135276   6.917   5.132   0.698
11678WAT     H235277   7.078   5.107   0.683
11679WAT      O35278   0.627   6.518   8.395
11679WAT     H135279   0.677   6.433   8.383
11679WAT     H235280   0.617   6.537   8.493
11680WAT      O35281   7.311   4.444   8.621
11680WAT     H135282   7.356   4.363   8.659
11680WAT     H235283   7.220   4.419   8.588
11681WAT      O35284   9.396   8.781   0.993
11681WAT     H135285   9.351   8.795   1.081
11681WAT     H235286   9.470   8.714   1.003
11682WAT      O35287   5.082   2.487   0.854
11682WAT     H135288   5.109   2.454   0.763
11682WAT     H235289   4.994   2.533   0.848
11683WAT      O35290   1.086   1.397   0.550
11683WAT     H135291   1.095   1.485   0.502
11683WAT     H235292   1.072   1.324   0.484
11684WAT      O35293   8.156   2.374   6.943
11684WAT     H135294   8.087   2.441   6.914
11684WAT     H235295   8.125   2.282   6.920
11685WAT      O35296   8.089   7.297   8.149
11685WAT     H135297   8.048   7.231   8.212
11685WAT     H235298   8.017   7.351   8.105
11686WAT      O35299   8.437   1.777   3.880
11686WAT     H135300   8.478   1.853   3.828
11686WAT     H235301   8.404   1.707   3.816
11687WAT      O35302   1.661   8.225   2.421
11687WAT     H135303   1.630   8.318   2.400
11687WAT     H235304   1.586   8.161   2.407
11688WAT      O35305   8.234   7.638   5.019
11688WAT     H135306   8.324   7.681   5.016
11688WAT     H235307   8.163   7.708   5.013
11689WAT      O35308   2.169   5.525   7.948
11689WAT     H135309   2.095   5.572   7.899
11689WAT     H235310   2.130   5.453   8.005
11690WAT      O35311   0.848   5.344   7.814
11690WAT     H135312   0.802   5.269   7.863
11690WAT     H235313   0.860   5.318   7.718
11691WAT      O35314   0.917   8.884   1.977
11691WAT     H135315   0.976   8.963   1.991
11691WAT     H235316   0.867   8.864   2.062
11692WAT      O35317   4.000   7.196   1.720
11692WAT     H135318   3.970   7.134   1.792
11692WAT     H235319   3.921   7.224   1.665
11693WAT      O35320   9.325   4.442   3.730
11693WAT     H135321   9.413   4.484   3.750
11693WAT     H235322   9.274   4.430   3.815
11694WAT      O35323   4.261   7.680   8.440
11694WAT     H135324   4.197   7.748   8.476
11694WAT     H235325   4.215   7.592   8.430
11695WAT      O35326   8.754   3.476   4.840
11695WAT     H135327   8.690   3.552   4.835
11695WAT     H235328   8.735   3.411   4.766
11696WAT      O35329   5.533   6.234   7.146
11696WAT     H135330   5.517   6.329   7.174
11696WAT     H235331   5.617   6.201   7.186
11697WAT      O35332   6.123   7.280   2.543
11697WAT     H135333   6.192   7.247   2.607
11697WAT     H235334   6.160   7.359   2.493
11698WAT      O35335   3.742   6.212   1.173
11698WAT     H135336   3.682   6.259   1.238
11698WAT     H235337   3.766   6.122   1.209
11699WAT      O35338   3.397   8.865   8.026
11699WAT     H135339   3.325   8.929   7.999
11699WAT     H235340   3.482   8.887   7.979
11700WAT      O35341   3.208   6.075   3.744
11700WAT     H135342   3.172   6.162   3.708
11700WAT     H235343   3.154   6.047   3.823
11701WAT      O35344   3.920   0.548   1.555
11701WAT     H135345   3.865   0.492   1.617
11701WAT     H235346   3.942   0.635   1.599
11702WAT      O35347   3.465   2.612   1.284
11702WAT     H135348   3.477   2.711   1.279
11702WAT     H235349   3.515   2.569   1.209
11703WAT      O35350   9.848   0.939   3.406
11703WAT     H135351   9.811   0.880   3.335
11703WAT     H235352   9.812   1.032   3.395
11704WAT      O35353   2.206   0.962   1.097
11704WAT     H135354   2.128   0.908   1.065
11704WAT     H235355   2.180   1.058   1.107
11705WAT      O35356   8.258   5.505   7.878
11705WAT     H135357   8.260   5.603   7.895
11705WAT     H235358   8.172   5.480   7.833
11706WAT      O35359   4.455   3.365   3.223
11706WAT     H135360   4.409   3.310   3.153
11706WAT     H235361   4.553   3.367   3.205
11707WAT      O35362   6.418   4.039   6.532
11707WAT     H135363   6.410   4.092   6.447
11707WAT     H235364   6.418   4.102   6.610
11708WAT      O35365   0.244   4.668   3.365
11708WAT     H135366   0.342   4.685   3.373
11708WAT     H235367   0.206   4.728   3.294
11709WAT      O35368   3.406   0.574   5.949
11709WAT     H135369   3.488   0.517   5.945
11709WAT     H235370   3.418   0.654   5.890
11710WAT      O35371   7.775   6.750   8.636
11710WAT     H135372   7.691   6.704   8.665
11710WAT     H235373   7.807   6.710   8.550
11711WAT      O35374   0.652   7.368   9.543
11711WAT     H135375   0.559   7.344   9.517
11711WAT     H235376   0.716   7.327   9.478
11712WAT      O35377   3.186   0.390   4.700
11712WAT     H135378   3.228   0.429   4.619
11712WAT     H235379   3.242   0.315   4.735
11713WAT      O35380   9.552   0.756   5.560
11713WAT     H135381   9.477   0.725   5.500
11713WAT     H235382   9.537   0.852   5.584
11714WAT      O35383   4.021   6.975   8.394
11714WAT     H135384   4.012   7.037   8.317
11714WAT     H235385   3.986   6.885   8.368
11715WAT      O35386   2.881   1.691   1.858
11715WAT     H135387   2.911   1.635   1.935
11715WAT     H235388   2.905   1.645   1.772
11716WAT      O35389   9.228   5.212   8.583
11716WAT     H135390   9.326   5.229   8.572
11716WAT     H235391   9.190   5.280   8.646
11717WAT      O35392   6.733   6.624   4.442
11717WAT     H135393   6.716   6.573   4.526
11717WAT     H235394   6.783   6.566   4.377
11718WAT      O35395   4.938   2.476   7.999
11718WAT     H135396   4.910   2.487   7.904
11718WAT     H235397   4.994   2.554   8.027
11719WAT      O35398   3.469   7.377   0.100
11719WAT     H135399   3.423   7.348   0.016
11719WAT     H235400   3.568   7.371   0.087
11720WAT      O35401   7.026   3.328   1.696
11720WAT     H135402   7.100   3.342   1.631
11720WAT     H235403   6.974   3.247   1.670
11721WAT      O35404   4.294   7.983   6.728
11721WAT     H135405   4.262   8.078   6.731
11721WAT     H235406   4.383   7.980   6.682
11722WAT      O35407   2.198   0.876   7.828
11722WAT     H135408   2.284   0.927   7.830
11722WAT     H235409   2.177   0.843   7.920
11723WAT      O35410   9.861   4.807   1.494
11723WAT     H135411   9.820   4.878   1.436
11723WAT     H235412   9.914   4.851   1.567
11724WAT      O35413   7.747   7.942   0.958
11724WAT     H135414   7.821   7.917   1.022
11724WAT     H235415   7.765   7.901   0.869
11725WAT      O35416   7.769   2.343   1.517
11725WAT     H135417   7.777   2.442   1.526
11725WAT     H235418   7.860   2.302   1.505
11726WAT      O35419   9.432   6.778   1.031
11726WAT     H135420   9.343   6.794   0.988
11726WAT     H235421   9.504   6.782   0.961
11727WAT      O35422   2.065   9.395   7.336
11727WAT     H135423   2.141   9.330   7.333
11727WAT     H235424   2.069   9.447   7.421
11728WAT      O35425   0.444   6.445   3.582
11728WAT     H135426   0.387   6.474   3.506
11728WAT     H235427   0.462   6.347   3.575
11729WAT      O35428   1.881   4.465   2.398
11729WAT     H135429   1.803   4.492   2.455
11729WAT     H235430   1.868   4.372   2.365
11730WAT      O35431   6.418   8.332   1.840
11730WAT     H135432   6.366   8.345   1.755
11730WAT     H235433   6.355   8.325   1.917
11731WAT      O35434   3.440   4.507   6.607
11731WAT     H135435   3.486   4.427   6.567
11731WAT     H235436   3.462   4.589   6.554
11732WAT      O35437   6.227   7.493   1.533
11732WAT     H135438   6.239   7.473   1.436
11732WAT     H235439   6.224   7.592   1.546
11733WAT      O35440   0.366   9.330   0.755
11733WAT     H135441   0.326   9.399   0.693
11733WAT     H235442   0.322   9.336   0.844
11734WAT      O35443   0.797   0.858   8.880
11734WAT     H135444   0.862   0.810   8.938
11734WAT     H235445   0.791   0.954   8.908
11735WAT      O35446   0.362   3.395   7.349
11735WAT     H135447   0.311   3.354   7.273
11735WAT     H235448   0.314   3.477   7.381
11736WAT      O35449   3.670   3.182   9.746
11736WAT     H135450   3.755   3.141   9.714
11736WAT     H235451   3.614   3.113   9.793
11737WAT      O35452   4.655   3.213   6.237
11737WAT     H135453   4.663   3.313   6.232
11737WAT     H235454   4.596   3.189   6.315
11738WAT      O35455   1.925   0.221   0.086
11738WAT     H135456   1.899   0.298   0.027
11738WAT     H235457   2.023   0.203   0.075
11739WAT      O35458   6.615   2.778   6.662
11739WAT     H135459   6.552   2.728   6.603
11739WAT     H235460   6.703   2.731   6.665
11740WAT      O35461   3.833   3.851   0.494
11740WAT     H135462   3.840   3.830   0.396
11740WAT     H235463   3.826   3.950   0.506
11741WAT      O35464   2.315   4.012   7.612
11741WAT     H135465   2.324   3.957   7.530
11741WAT     H235466   2.241   3.975   7.669
11742WAT      O35467   6.613   1.507   7.463
11742WAT     H135468   6.518   1.484   7.441
11742WAT     H235469   6.643   1.452   7.541
11743WAT      O35470   2.657   7.884   1.909
11743WAT     H135471   2.745   7.932   1.920
11743WAT     H235472   2.583   7.951   1.906
11744WAT      O35473   5.691   4.469   4.929
11744WAT     H135474   5.675   4.418   5.014
11744WAT     H235475   5.657   4.563   4.940
11745WAT      O35476   9.719   8.808   4.947
11745WAT     H135477   9.713   8.886   4.884
11745WAT     H235478   9.649   8.817   5.017
11746WAT      O35479   9.833   0.108   5.619
11746WAT     H135480   9.824   0.208   5.623
11746WAT     H235481   9.917   0.081   5.668
11747WAT      O35482   9.879   1.658   7.955
11747WAT     H135483   9.788   1.667   7.914
11747WAT     H235484   9.942   1.722   7.910
11748WAT      O35485   4.613   2.263   8.952
11748WAT     H135486   4.556   2.272   8.871
11748WAT     H235487   4.641   2.354   8.983
11749WAT      O35488   5.871   5.764   2.139
11749WAT     H135489   5.914   5.786   2.051
11749WAT     H235490   5.942   5.759   2.210
11750WAT      O35491   5.780   9.837   3.095
11750WAT     H135492   5.695   9.789   3.074
11750WAT     H235493   5.853   9.771   3.110
11751WAT      O35494   9.492   4.777   0.708
11751WAT     H135495   9.538   4.865   0.692
11751WAT     H235496   9.428   4.759   0.634
11752WAT      O35497   5.863   7.864   9.317
11752WAT     H135498   5.799   7.881   9.243
11752WAT     H235499   5.868   7.766   9.335
11753WAT      O35500   3.740   5.321   8.676
11753WAT     H135501   3.672   5.370   8.623
11753WAT     H235502   3.803   5.273   8.614
11754WAT      O35503   3.398   7.417   5.523
11754WAT     H135504   3.403   7.322   5.490
11754WAT     H235505   3.313   7.459   5.491
11755WAT      O35506   4.820   9.226   5.548
11755WAT     H135507   4.770   9.167   5.485
11755WAT     H235508   4.917   9.225   5.524
11756WAT      O35509   6.255   6.599   6.755
11756WAT     H135510   6.179   6.554   6.709
11756WAT     H235511   6.312   6.529   6.800
11757WAT      O35512   4.586   2.003   8.003
11757WAT     H135513   4.510   1.941   7.988
11757WAT     H235514   4.589   2.031   8.099
11758WAT      O35515   2.866   7.084   3.244
11758WAT     H135516   2.910   6.994   3.241
11758WAT     H235517   2.925   7.148   3.294
11759WAT      O35518   0.144   5.176   2.537
11759WAT     H135519   0.138   5.119   2.619
11759WAT     H235520   0.131   5.272   2.563
11760WAT      O35521   4.980   0.780   0.876
11760WAT     H135522   5.018   0.862   0.918
11760WAT     H235523   5.049   0.707   0.876
11761WAT      O35524   3.196   7.664   9.164
11761WAT     H135525   3.209   7.660   9.263
11761WAT     H235526   3.100   7.682   9.144
11762WAT      O35527   2.678   7.591   1.421
11762WAT     H135528   2.658   7.554   1.331
11762WAT     H235529   2.669   7.691   1.419
11763WAT      O35530   7.966   6.627   7.810
11763WAT     H135531   8.045   6.566   7.799
11763WAT     H235532   7.892   6.578   7.856
11764WAT      O35533   0.575   0.782   6.534
11764WAT     H135534   0.661   0.801   6.581
11764WAT     H235535   0.499   0.794   6.599
11765WAT      O35536   1.271   1.251   0.031
11765WAT     H135537   1.295   1.292  -0.057
11765WAT     H235538   1.224   1.318   0.087
11766WAT      O35539   7.796   0.494   0.096
11766WAT     H135540   7.714   0.450   0.061
11766WAT     H235541   7.876   0.437   0.077
11767WAT      O35542   4.590   6.398   0.128
11767WAT     H135543   4.648   6.416   0.049
11767WAT     H235544   4.619   6.456   0.204
11768WAT      O35545   1.026   1.136   6.739
11768WAT     H135546   1.011   1.053   6.792
11768WAT     H235547   0.966   1.209   6.772
11769WAT      O35548   2.686   7.245   8.222
11769WAT     H135549   2.762   7.251   8.287
11769WAT     H235550   2.600   7.237   8.272
11770WAT      O35551   7.962   6.440   6.814
11770WAT     H135552   7.952   6.395   6.903
11770WAT     H235553   7.977   6.538   6.828
11771WAT      O35554   1.778   6.816   0.300
11771WAT     H135555   1.776   6.886   0.229
11771WAT     H235556   1.691   6.767   0.303
11772WAT      O35557   1.191   8.253   9.013
11772WAT     H135558   1.189   8.349   8.985
11772WAT     H235559   1.132   8.200   8.952
11773WAT      O35560   6.748   1.316   9.392
11773WAT     H135561   6.838   1.284   9.362
11773WAT     H235562   6.686   1.319   9.313
11774WAT      O35563   4.058   8.650   2.508
11774WAT     H135564   4.008   8.590   2.445
11774WAT     H235565   4.000   8.673   2.586
11775WAT      O35566   4.358   9.738   3.836
11775WAT     H135567   4.348   9.786   3.923
11775WAT     H235568   4.366   9.640   3.852
11776WAT      O35569   3.385   8.105   8.634
11776WAT     H135570   3.320   8.065   8.570
11776WAT     H235571   3.339   8.178   8.687
11777WAT      O35572   7.054   9.073   7.728
11777WAT     H135573   7.144   9.038   7.755
11777WAT     H235574   6.993   9.075   7.807
11778WAT      O35575   5.657   6.738   7.875
11778WAT     H135576   5.605   6.669   7.923
11778WAT     H235577   5.632   6.738   7.778
11779WAT      O35578   4.081   1.402   5.691
11779WAT     H135579   4.023   1.478   5.661
11779WAT     H235580   4.023   1.322   5.707
11780WAT      O35581   5.340   8.836   6.320
11780WAT     H135582   5.248   8.803   6.343
11780WAT     H235583   5.398   8.758   6.298
11781WAT      O35584   7.879   0.512   6.308
11781WAT     H135585   7.876   0.593   6.249
11781WAT     H235586   7.973   0.480   6.317
11782WAT      O35587   7.397   5.508   0.600
11782WAT     H135588   7.438   5.598   0.585
11782WAT     H235589   7.386   5.462   0.512
11783WAT      O35590   5.195   3.548   3.398
11783WAT     H135591   5.100   3.578   3.390
11783WAT     H235592   5.218   3.536   3.495
11784WAT      O35593   5.157   1.943   0.283
11784WAT     H135594   5.246   1.968   0.322
11784WAT     H235595   5.150   1.981   0.191
11785WAT      O35596   2.053   2.937   6.892
11785WAT     H135597   2.069   2.843   6.923
11785WAT     H235598   2.054   2.999   6.970
11786WAT      O35599   7.256   6.559   8.651
11786WAT     H135600   7.215   6.636   8.603
11786WAT     H235601   7.261   6.480   8.590
11787WAT      O35602   9.293   2.579   3.409
11787WAT     H135603   9.217   2.644   3.398
11787WAT     H235604   9.268   2.491   3.369
11788WAT      O35605   2.572   0.051   4.592
11788WAT     H135606   2.495   0.015   4.539
11788WAT     H235607   2.658   0.014   4.555
11789WAT      O35608   9.379   7.694   2.674
11789WAT     H135609   9.432   7.735   2.600
11789WAT     H235610   9.415   7.725   2.762
11790WAT      O35611   7.289   1.259   3.940
11790WAT     H135612   7.351   1.276   3.863
11790WAT     H235613   7.277   1.344   3.992
11791WAT      O35614   9.194   3.446   5.829
11791WAT     H135615   9.228   3.496   5.749
11791WAT     H235616   9.095   3.452   5.832
11792WAT      O35617   2.173   9.585   6.848
11792WAT     H135618   2.129   9.600   6.759
11792WAT     H235619   2.129   9.508   6.894
11793WAT      O35620   7.226   8.424   7.674
11793WAT     H135621   7.204   8.346   7.733
11793WAT     H235622   7.286   8.487   7.722
11794WAT      O35623   5.596   7.180   2.828
11794WAT     H135624   5.602   7.260   2.886
11794WAT     H235625   5.680   7.172   2.774
11795WAT      O35626   9.444   4.577   7.210
11795WAT     H135627   9.383   4.637   7.261
11795WAT     H235628   9.535   4.619   7.204
11796WAT      O35629   8.885   9.386   3.290
11796WAT     H135630   8.902   9.482   3.267
11796WAT     H235631   8.959   9.330   3.253
11797WAT      O35632   9.247   4.843   8.309
11797WAT     H135633   9.288   4.930   8.281
11797WAT     H235634   9.239   4.841   8.409
11798WAT      O35635   2.153   8.881   4.494
11798WAT     H135636   2.113   8.922   4.412
11798WAT     H235637   2.175   8.953   4.560
11799WAT      O35638   5.427   6.577   6.433
11799WAT     H135639   5.424   6.640   6.356
11799WAT     H235640   5.337   6.572   6.476
11800WAT      O35641   5.856   6.141   4.168
11800WAT     H135642   5.860   6.072   4.096
11800WAT     H235643   5.874   6.231   4.129
11801WAT      O35644   7.334   7.218   1.514
11801WAT     H135645   7.237   7.240   1.508
11801WAT     H235646   7.388   7.297   1.487
11802WAT      O35647   3.070   6.861   0.186
11802WAT     H135648   3.035   6.864   0.092
11802WAT     H235649   3.024   6.787   0.235
11803WAT      O35650   8.155   2.072   7.058
11803WAT     H135651   8.240   2.030   7.089
11803WAT     H235652   8.114   2.124   7.133
11804WAT      O35653   8.524   9.278   9.255
11804WAT     H135654   8.471   9.314   9.332
11804WAT     H235655   8.555   9.354   9.198
11805WAT      O35656   6.244   4.873   7.512
11805WAT     H135657   6.150   4.860   7.544
11805WAT     H235658   6.308   4.840   7.581
11806WAT      O35659   8.329   7.496   9.559
11806WAT     H135660   8.260   7.445   9.507
11806WAT     H235661   8.315   7.594   9.546
11807WAT      O35662   1.128   0.139   9.822
11807WAT     H135663   1.213   0.186   9.799
11807WAT     H235664   1.058   0.161   9.754
11808WAT      O35665   1.595   4.882   5.728
11808WAT     H135666   1.549   4.898   5.815
11808WAT     H235667   1.691   4.908   5.736
11809WAT      O35668   1.036   9.243   4.175
11809WAT     H135669   1.027   9.166   4.238
11809WAT     H235670   0.945   9.282   4.158
11810WAT      O35671   9.263   3.011   8.325
11810WAT     H135672   9.237   2.935   8.384
11810WAT     H235673   9.222   3.095   8.361
11811WAT      O35674   3.217   0.789   5.414
11811WAT     H135675   3.134   0.765   5.363
11811WAT     H235676   3.191   0.832   5.501
11812WAT      O35677   8.845   1.049   5.610
11812WAT     H135678   8.857   0.971   5.672
11812WAT     H235679   8.819   1.129   5.663
11813WAT      O35680   1.154   2.559   6.582
11813WAT     H135681   1.194   2.569   6.491
11813WAT     H235682   1.215   2.504   6.639
11814WAT      O35683   7.765   2.598   1.558
11814WAT     H135684   7.822   2.665   1.509
11814WAT     H235685   7.767   2.618   1.656
11815WAT      O35686   7.490   8.304   6.301
11815WAT     H135687   7.484   8.397   6.337
11815WAT     H235688   7.418   8.248   6.342
11816WAT      O35689   4.737   2.830   5.215
11816WAT     H135690   4.775   2.886   5.289
11816WAT     H235691   4.772   2.862   5.127
11817WAT      O35692   4.769   7.007   4.936
11817WAT     H135693   4.727   7.086   4.890
11817WAT     H235694   4.854   7.035   4.980
11818WAT      O35695   2.185   7.529   7.862
11818WAT     H135696   2.094   7.496   7.839
11818WAT     H235697   2.247   7.452   7.877
11819WAT      O35698   2.903   9.386   6.387
11819WAT     H135699   2.906   9.363   6.290
11819WAT     H235700   2.809   9.411   6.413
11820WAT      O35701   7.532   2.861   6.601
11820WAT     H135702   7.451   2.907   6.564
11820WAT     H235703   7.587   2.824   6.527
11821WAT      O35704   2.965   8.576   6.259
11821WAT     H135705   2.938   8.535   6.346
11821WAT     H235706   3.065   8.574   6.251
11822WAT      O35707   0.156   3.276   7.198
11822WAT     H135708   0.173   3.179   7.211
11822WAT     H235709   0.114   3.292   7.109
11823WAT      O35710   3.318   7.970   9.627
11823WAT     H135711   3.336   7.967   9.529
11823WAT     H235712   3.390   8.023   9.673
11824WAT      O35713   2.478   5.461   0.748
11824WAT     H135714   2.541   5.401   0.796
11824WAT     H235715   2.391   5.413   0.732
11825WAT      O35716   7.605   0.667   7.591
11825WAT     H135717   7.557   0.750   7.621
11825WAT     H235718   7.623   0.673   7.492
11826WAT      O35719   7.002   5.635   1.005
11826WAT     H135720   6.926   5.570   1.002
11826WAT     H235721   7.072   5.607   0.939
11827WAT      O35722   2.788   3.663   3.688
11827WAT     H135723   2.881   3.669   3.650
11827WAT     H235724   2.755   3.755   3.710
11828WAT      O35725   9.789   8.971   9.464
11828WAT     H135726   9.816   8.894   9.406
11828WAT     H235727   9.868   9.004   9.515
11829WAT      O35728   4.485   9.067   9.417
11829WAT     H135729   4.540   9.003   9.363
11829WAT     H235730   4.396   9.027   9.437
11830WAT      O35731   4.339   9.106   5.011
11830WAT     H135732   4.326   9.200   5.045
11830WAT     H235733   4.250   9.059   5.009
11831WAT      O35734   1.660   9.440   8.961
11831WAT     H135735   1.581   9.491   8.925
11831WAT     H235736   1.709   9.396   8.885
11832WAT      O35737   8.507   9.524   7.726
11832WAT     H135738   8.420   9.561   7.694
11832WAT     H235739   8.582   9.576   7.684
11833WAT      O35740   4.078   6.925   6.138
11833WAT     H135741   4.038   6.896   6.225
11833WAT     H235742   4.096   6.845   6.081
11834WAT      O35743   4.513   7.898   3.389
11834WAT     H135744   4.607   7.925   3.365
11834WAT     H235745   4.461   7.880   3.306
11835WAT      O35746   7.895   1.066   2.894
11835WAT     H135747   7.813   1.121   2.885
11835WAT     H235748   7.923   1.033   2.804
11836WAT      O35749   5.819   1.827   6.917
11836WAT     H135750   5.905   1.776   6.919
11836WAT     H235751   5.839   1.925   6.907
11837WAT      O35752   6.955   5.763   4.312
11837WAT     H135753   6.998   5.854   4.309
11837WAT     H235754   7.022   5.695   4.342
11838WAT      O35755   7.179   2.090   4.666
11838WAT     H135756   7.162   2.120   4.760
11838WAT     H235757   7.271   2.051   4.661
11839WAT      O35758   7.492   0.223   8.645
11839WAT     H135759   7.560   0.296   8.654
11839WAT     H235760   7.484   0.197   8.549
11840WAT      O35761   5.308   7.792   6.321
11840WAT     H135762   5.290   7.701   6.358
11840WAT     H235763   5.345   7.784   6.229
11841WAT      O35764   7.634   6.083   4.579
11841WAT     H135765   7.675   6.003   4.623
11841WAT     H235766   7.572   6.128   4.643
11842WAT      O35767   0.317   0.027   9.098
11842WAT     H135768   0.315   0.122   9.066
11842WAT     H235769   0.356  -0.032   9.028
11843WAT      O35770   6.694   6.303   1.515
11843WAT     H135771   6.617   6.360   1.542
11843WAT     H235772   6.779   6.340   1.551
11844WAT      O35773   7.689   6.592   4.061
11844WAT     H135774   7.762   6.661   4.061
11844WAT     H235775   7.721   6.509   4.015
11845WAT      O35776   6.570   4.908   2.780
11845WAT     H135777   6.545   4.812   2.796
11845WAT     H235778   6.669   4.915   2.771
11846WAT      O35779   7.537   5.890   7.708
11846WAT     H135780   7.562   5.837   7.627
11846WAT     H235781   7.438   5.893   7.717
11847WAT      O35782   1.829   0.191   6.261
11847WAT     H135783   1.886   0.240   6.327
11847WAT     H235784   1.802   0.253   6.187
11848WAT      O35785   2.981   4.676   1.018
11848WAT     H135786   2.926   4.759   1.029
11848WAT     H235787   2.991   4.655   0.920
11849WAT      O35788   0.759   3.553   6.835
11849WAT     H135789   0.812   3.632   6.804
11849WAT     H235790   0.662   3.568   6.815
11850WAT      O35791   0.525   1.720   2.070
11850WAT     H135792   0.555   1.797   2.014
11850WAT     H235793   0.583   1.641   2.051
11851WAT      O35794   5.738   4.965   5.465
11851WAT     H135795   5.737   4.923   5.556
11851WAT     H235796   5.720   5.063   5.474
11852WAT      O35797   8.718   8.252   1.905
11852WAT     H135798   8.649   8.302   1.959
11852WAT     H235799   8.752   8.311   1.832
11853WAT      O35800   9.014   1.026   0.344
11853WAT     H135801   9.108   1.046   0.370
11853WAT     H235802   9.013   0.963   0.267
11854WAT      O35803   6.436   1.614   8.716
11854WAT     H135804   6.432   1.688   8.649
11854WAT     H235805   6.517   1.558   8.699
11855WAT      O35806   9.320   8.528   6.830
11855WAT     H135807   9.295   8.505   6.736
11855WAT     H235808   9.314   8.627   6.844
11856WAT      O35809   2.876   3.292   3.549
11856WAT     H135810   2.948   3.315   3.483
11856WAT     H235811   2.906   3.216   3.606
11857WAT      O35812   2.032   5.805   3.223
11857WAT     H135813   2.064   5.898   3.239
11857WAT     H235814   1.998   5.796   3.130
11858WAT      O35815   4.448   5.301   1.788
11858WAT     H135816   4.469   5.203   1.783
11858WAT     H235817   4.531   5.353   1.770
11859WAT      O35818   1.049   9.356   5.373
11859WAT     H135819   1.144   9.351   5.343
11859WAT     H235820   1.007   9.439   5.336
11860WAT      O35821   7.184   0.232   7.704
11860WAT     H135822   7.275   0.274   7.710
11860WAT     H235823   7.176   0.183   7.617
11861WAT      O35824   5.211   2.930   3.576
11861WAT     H135825   5.145   2.967   3.510
11861WAT     H235826   5.175   2.845   3.615
11862WAT      O35827   3.438   4.240   3.673
11862WAT     H135828   3.500   4.168   3.705
11862WAT     H235829   3.404   4.291   3.752
11863WAT      O35830   1.591   7.905   7.391
11863WAT     H135831   1.587   7.807   7.374
11863WAT     H235832   1.614   7.953   7.306
11864WAT      O35833   8.308   5.138   6.498
11864WAT     H135834   8.251   5.061   6.529
11864WAT     H235835   8.268   5.224   6.529
11865WAT      O35836   7.606   7.796   2.750
11865WAT     H135837   7.516   7.834   2.770
11865WAT     H235838   7.617   7.786   2.651
11866WAT      O35839   8.211   1.777   8.797
11866WAT     H135840   8.240   1.869   8.769
11866WAT     H235841   8.190   1.778   8.895
11867WAT      O35842   1.657   3.091   3.686
11867WAT     H135843   1.567   3.050   3.702
11867WAT     H235844   1.727   3.021   3.700
11868WAT      O35845   0.350   6.623   0.252
11868WAT     H135846   0.431   6.582   0.294
11868WAT     H235847   0.293   6.552   0.211
11869WAT      O35848   3.653   4.789   3.558
11869WAT     H135849   3.741   4.811   3.599
11869WAT     H235850   3.648   4.827   3.465
11870WAT      O35851   5.065   2.594   7.595
11870WAT     H135852   4.968   2.608   7.614
11870WAT     H235853   5.107   2.544   7.671
11871WAT      O35854   0.047   0.047   6.693
11871WAT     H135855   0.132   0.020   6.739
11871WAT     H235856  -0.020  -0.027   6.703
11872WAT      O35857   9.566   7.821   5.479
11872WAT     H135858   9.512   7.754   5.427
11872WAT     H235859   9.644   7.851   5.424
11873WAT      O35860   3.776   0.469   3.962
11873WAT     H135861   3.748   0.563   3.976
11873WAT     H235862   3.839   0.442   4.035
11874WAT      O35863   3.624   8.601   4.536
11874WAT     H135864   3.624   8.532   4.464
11874WAT     H235865   3.553   8.669   4.518
11875WAT      O35866   7.265   7.843   6.660
11875WAT     H135867   7.318   7.772   6.613
11875WAT     H235868   7.303   7.933   6.638
11876WAT      O35869   0.678   9.354   0.853
11876WAT     H135870   0.581   9.373   0.865
11876WAT     H235871   0.694   9.256   0.859
11877WAT      O35872   1.351   4.292   9.892
11877WAT     H135873   1.350   4.201   9.851
11877WAT     H235874   1.308   4.357   9.830
11878WAT      O35875   5.499   2.604   7.221
11878WAT     H135876   5.581   2.572   7.172
11878WAT     H235877   5.522   2.688   7.271
11879WAT      O35878   3.779   5.386   7.395
11879WAT     H135879   3.684   5.360   7.380
11879WAT     H235880   3.839   5.311   7.365
11880WAT      O35881   7.757   3.897   8.966
11880WAT     H135882   7.718   3.832   9.032
11880WAT     H235883   7.847   3.865   8.938
11881WAT      O35884   0.068   8.211   4.754
11881WAT     H135885   0.022   8.299   4.737
11881WAT     H235886   0.028   8.141   4.695
11882WAT      O35887   7.912   0.604   9.739
11882WAT     H135888   7.899   0.577   9.643
11882WAT     H235889   7.849   0.553   9.797
11883WAT      O35890   8.622   3.741   2.002
11883WAT     H135891   8.585   3.832   2.018
11883WAT     H235892   8.572   3.673   2.056
11884WAT      O35893   6.437   6.102   0.612
11884WAT     H135894   6.390   6.035   0.669
11884WAT     H235895   6.529   6.119   0.648
11885WAT      O35896   4.658   3.505   2.501
11885WAT     H135897   4.666   3.455   2.588
11885WAT     H235898   4.697   3.596   2.512
11886WAT      O35899   9.228   2.887   2.766
11886WAT     H135900   9.233   2.793   2.801
11886WAT     H235901   9.295   2.899   2.693
11887WAT      O35902   6.054   6.069   6.381
11887WAT     H135903   6.141   6.117   6.380
11887WAT     H235904   6.057   5.994   6.448
11888WAT      O35905   4.035   5.099   4.563
11888WAT     H135906   3.966   5.066   4.499
11888WAT     H235907   4.034   5.043   4.646
11889WAT      O35908   8.455   2.931   5.031
11889WAT     H135909   8.464   3.030   5.044
11889WAT     H235910   8.360   2.909   5.008
11890WAT      O35911   9.565   5.515   6.511
11890WAT     H135912   9.497   5.526   6.438
11890WAT     H235913   9.536   5.565   6.592
11891WAT      O35914   8.456   6.582   3.149
11891WAT     H135915   8.527   6.615   3.087
11891WAT     H235916   8.393   6.657   3.169
11892WAT      O35917   2.962   8.416   3.828
11892WAT     H135918   2.976   8.409   3.729
11892WAT     H235919   2.864   8.427   3.846
11893WAT      O35920   7.644   1.928   8.305
11893WAT     H135921   7.705   1.866   8.354
11893WAT     H235922   7.695   1.972   8.231
11894WAT      O35923   2.323   2.792   6.635
11894WAT     H135924   2.262   2.746   6.699
11894WAT     H235925   2.315   2.749   6.545
11895WAT      O35926   2.971   3.075   7.234
11895WAT     H135927   3.007   2.993   7.278
11895WAT     H235928   3.042   3.116   7.177
11896WAT      O35929   9.613   7.149   5.216
11896WAT     H135930   9.540   7.083   5.195
11896WAT     H235931   9.649   7.186   5.131
11897WAT      O35932   5.789   1.442   7.114
11897WAT     H135933   5.806   1.511   7.184
11897WAT     H235934   5.731   1.481   7.042
11898WAT      O35935   6.686   2.318   6.416
11898WAT     H135936   6.757   2.387   6.411
11898WAT     H235937   6.706   2.245   6.351
11899WAT      O35938   0.949   9.648   4.838
11899WAT     H135939   1.024   9.713   4.843
11899WAT     H235940   0.868   9.693   4.800
11900WAT      O35941   4.848   2.041   5.745
11900WAT     H135942   4.895   1.959   5.712
11900WAT     H235943   4.813   2.024   5.838
11901WAT      O35944   2.296   2.221   6.397
11901WAT     H135945   2.235   2.253   6.324
11901WAT     H235946   2.286   2.280   6.477
11902WAT      O35947   3.307   8.207   8.040
11902WAT     H135948   3.297   8.299   8.079
11902WAT     H235949   3.242   8.194   7.966
11903WAT      O35950   1.277   7.906   0.747
11903WAT     H135951   1.280   7.929   0.650
11903WAT     H235952   1.340   7.965   0.798
11904WAT      O35953   8.499   8.475   9.240
11904WAT     H135954   8.549   8.543   9.187
11904WAT     H235955   8.462   8.517   9.323
11905WAT      O35956   8.919   3.721   3.411
11905WAT     H135957   8.878   3.785   3.345
11905WAT     H235958   9.013   3.748   3.429
11906WAT      O35959   7.469   1.354   3.755
11906WAT     H135960   7.475   1.377   3.658
11906WAT     H235961   7.549   1.300   3.782
11907WAT      O35962   3.378   7.374   7.616
11907WAT     H135963   3.383   7.276   7.596
11907WAT     H235964   3.355   7.388   7.712
11908WAT      O35965   9.063   5.688   1.418
11908WAT     H135966   9.142   5.728   1.373
11908WAT     H235967   9.024   5.616   1.360
11909WAT      O35968   0.725   5.500   5.384
11909WAT     H135969   0.745   5.407   5.355
11909WAT     H235970   0.657   5.498   5.458
11910WAT      O35971   5.911   1.200   7.086
11910WAT     H135972   5.982   1.178   7.152
11910WAT     H235973   5.876   1.292   7.103
11911WAT      O35974   8.078   5.988   2.630
11911WAT     H135975   8.089   5.903   2.680
11911WAT     H235976   8.149   6.053   2.657
11912WAT      O35977   8.704   7.319   0.651
11912WAT     H135978   8.749   7.281   0.570
11912WAT     H235979   8.707   7.251   0.725
11913WAT      O35980   4.479   3.286   0.938
11913WAT     H135981   4.565   3.288   0.989
11913WAT     H235982   4.422   3.212   0.971
11914WAT      O35983   8.714   4.950   4.190
11914WAT     H135984   8.786   5.017   4.207
11914WAT     H235985   8.751   4.857   4.199
11915WAT      O35986   7.125   0.686   2.121
11915WAT     H135987   7.192   0.746   2.077
11915WAT     H235988   7.073   0.738   2.189
11916WAT      O35989   0.177   0.434   0.068
11916WAT     H135990   0.233   0.378   0.129
11916WAT     H235991   0.236   0.485   0.006
11917WAT      O35992   6.638   7.306   1.307
11917WAT     H135993   6.608   7.350   1.222
11917WAT     H235994   6.569   7.240   1.336
11918WAT      O35995   4.844   9.130   8.410
11918WAT     H135996   4.776   9.136   8.337
11918WAT     H235997   4.895   9.217   8.416
11919WAT      O35998   8.911   3.991   9.382
11919WAT     H135999   8.845   4.015   9.454
11919WAT     H236000   8.989   3.944   9.423
11920WAT      O36001   5.530   1.066   6.268
11920WAT     H136002   5.538   1.068   6.168
11920WAT     H236003   5.609   1.018   6.306
11921WAT      O36004   6.172   8.729   8.217
11921WAT     H136005   6.077   8.760   8.211
11921WAT     H236006   6.233   8.801   8.182
11922WAT      O36007   6.438   2.373   6.319
11922WAT     H136008   6.362   2.315   6.346
11922WAT     H236009   6.521   2.345   6.368
11923WAT      O36010   4.054   6.997   6.883
11923WAT     H136011   4.085   7.068   6.946
11923WAT     H236012   4.073   6.907   6.923
11924WAT      O36013   6.188   4.301   3.486
11924WAT     H136014   6.267   4.251   3.449
11924WAT     H236015   6.220   4.385   3.530
11925WAT      O36016   9.652   5.708   3.793
11925WAT     H136017   9.743   5.748   3.804
11925WAT     H236018   9.656   5.611   3.813
11926WAT      O36019   8.557   0.311   7.876
11926WAT     H136020   8.597   0.339   7.789
11926WAT     H236021   8.624   0.325   7.949
11927WAT      O36022   1.816   5.210   8.331
11927WAT     H136023   1.726   5.240   8.298
11927WAT     H236024   1.874   5.289   8.345
11928WAT      O36025   4.238   3.722   5.571
11928WAT     H136026   4.165   3.750   5.507
11928WAT     H236027   4.314   3.684   5.519
11929WAT      O36028   6.913   3.817   7.509
11929WAT     H136029   6.852   3.857   7.578
11929WAT     H236030   6.869   3.822   7.419
11930WAT      O36031   1.660   2.270   7.719
11930WAT     H136032   1.572   2.231   7.692
11930WAT     H236033   1.687   2.340   7.652
11931WAT      O36034   5.778   1.519   2.351
11931WAT     H136035   5.811   1.429   2.381
11931WAT     H236036   5.845   1.589   2.377
11932WAT      O36037   7.818   5.588   4.542
11932WAT     H136038   7.730   5.603   4.498
11932WAT     H236039   7.889   5.580   4.472
11933WAT      O36040   8.974   8.004   4.392
11933WAT     H136041   9.038   7.964   4.458
11933WAT     H236042   8.889   7.950   4.392
11934WAT      O36043   2.663   7.452   8.433
11934WAT     H136044   2.664   7.463   8.532
11934WAT     H236045   2.754   7.427   8.401
11935WAT      O36046   6.702   9.325   3.489
11935WAT     H136047   6.710   9.235   3.533
11935WAT     H236048   6.613   9.333   3.443
11936WAT      O36049   5.076   1.135   7.388
11936WAT     H136050   5.033   1.065   7.445
11936WAT     H236051   5.163   1.100   7.354
11937WAT      O36052   6.573   7.272   4.725
11937WAT     H136053   6.503   7.299   4.790
11937WAT     H236054   6.535   7.204   4.662
11938WAT      O36055   6.234   5.063   0.834
11938WAT     H136056   6.243   5.162   0.827
11938WAT     H236057   6.143   5.036   0.801
11939WAT      O36058   4.687   7.952   6.136
11939WAT     H136059   4.715   7.935   6.231
11939WAT     H236060   4.760   7.998   6.087
11940WAT      O36061   5.145   7.604   2.144
11940WAT     H136062   5.180   7.510   2.149
11940WAT     H236063   5.073   7.616   2.213
11941WAT      O36064   6.028   7.699   5.506
11941WAT     H136065   6.113   7.741   5.537
11941WAT     H236066   6.008   7.618   5.562
11942WAT      O36067   9.302   7.700   9.538
11942WAT     H136068   9.349   7.783   9.566
11942WAT     H236069   9.368   7.631   9.509
11943WAT      O36070   4.893   6.073   0.688
11943WAT     H136071   4.812   6.085   0.630
11943WAT     H236072   4.868   6.086   0.784
11944WAT      O36073   8.387   3.166   4.526
11944WAT     H136074   8.364   3.137   4.433
11944WAT     H236075   8.449   3.244   4.521
11945WAT      O36076   7.756   4.965   9.314
11945WAT     H136077   7.763   4.920   9.403
11945WAT     H236078   7.795   5.057   9.320
11946WAT      O36079   8.178   5.452   4.708
11946WAT     H136080   8.257   5.514   4.712
11946WAT     H236081   8.140   5.452   4.616
11947WAT      O36082   8.886   4.243   4.190
11947WAT     H136083   8.842   4.310   4.250
11947WAT     H236084   8.837   4.239   4.103
11948WAT      O36085   0.639   5.800   9.046
11948WAT     H136086   0.609   5.734   9.114
11948WAT     H236087   0.624   5.763   8.954
11949WAT      O36088   7.398   0.722   2.252
11949WAT     H136089   7.318   0.668   2.227
11949WAT     H236090   7.369   0.815   2.277
11950WAT      O36091   4.718   2.401   9.648
11950WAT     H136092   4.699   2.390   9.550
11950WAT     H236093   4.633   2.415   9.697
11951WAT      O36094   7.653   3.669   5.669
11951WAT     H136095   7.557   3.672   5.698
11951WAT     H236096   7.706   3.733   5.725
11952WAT      O36097   8.906   0.013   3.070
11952WAT     H136098   8.951   0.096   3.104
11952WAT     H236099   8.813   0.035   3.040
11953WAT      O36100   1.991   3.962   8.235
11953WAT     H136101   2.076   3.912   8.216
11953WAT     H236102   2.012   4.057   8.259
11954WAT      O36103   6.127   6.268   8.310
11954WAT     H136104   6.188   6.216   8.370
11954WAT     H236105   6.036   6.226   8.311
11955WAT      O36106   1.722   1.899   3.214
11955WAT     H136107   1.637   1.951   3.224
11955WAT     H236108   1.752   1.901   3.119
11956WAT      O36109   7.355   0.625   3.413
11956WAT     H136110   7.306   0.633   3.327
11956WAT     H236111   7.347   0.532   3.449
11957WAT      O36112   7.974   2.965   6.580
11957WAT     H136113   8.006   2.901   6.650
11957WAT     H236114   7.993   2.927   6.490
11958WAT      O36115   6.147   8.785   7.631
11958WAT     H136116   6.075   8.808   7.566
11958WAT     H236117   6.121   8.815   7.723
11959WAT      O36118   9.884   9.060   1.364
11959WAT     H136119   9.849   9.146   1.327
11959WAT     H236120   9.926   9.077   1.454
11960WAT      O36121   7.798   8.980   9.560
11960WAT     H136122   7.851   9.006   9.640
11960WAT     H236123   7.843   8.904   9.513
11961WAT      O36124   4.713   5.750   2.757
11961WAT     H136125   4.778   5.728   2.830
11961WAT     H236126   4.631   5.791   2.795
11962WAT      O36127   8.559   1.576   5.791
11962WAT     H136128   8.520   1.568   5.699
11962WAT     H236129   8.489   1.559   5.860
11963WAT      O36130   0.831   9.031   9.736
11963WAT     H136131   0.899   8.987   9.794
11963WAT     H236132   0.877   9.084   9.664
11964WAT      O36133   6.839   2.850   0.453
11964WAT     H136134   6.860   2.946   0.470
11964WAT     H236135   6.923   2.801   0.430
11965WAT      O36136   4.706   1.844   2.718
11965WAT     H136137   4.776   1.914   2.706
11965WAT     H236138   4.615   1.887   2.716
11966WAT      O36139   6.378   7.506   6.503
11966WAT     H136140   6.305   7.568   6.473
11966WAT     H236141   6.412   7.535   6.592
11967WAT      O36142   4.925   6.906   0.155
11967WAT     H136143   4.889   6.947   0.239
11967WAT     H236144   4.933   6.976   0.084
11968WAT      O36145   3.938   3.418   2.398
11968WAT     H136146   4.035   3.403   2.415
11968WAT     H236147   3.889   3.422   2.485
11969WAT      O36148   4.146   2.593   1.938
11969WAT     H136149   4.238   2.603   1.975
11969WAT     H236150   4.079   2.619   2.008
11970WAT      O36151   6.677   6.993   2.056
11970WAT     H136152   6.745   7.067   2.057
11970WAT     H236153   6.712   6.915   2.108
11971WAT      O36154   7.131   1.140   5.620
11971WAT     H136155   7.043   1.115   5.580
11971WAT     H236156   7.182   1.198   5.556
11972WAT      O36157   2.966   4.698   6.874
11972WAT     H136158   3.033   4.754   6.826
11972WAT     H236159   3.005   4.667   6.961
11973WAT      O36160   6.673   5.743   6.547
11973WAT     H136161   6.593   5.704   6.592
11973WAT     H236162   6.674   5.842   6.560
11974WAT      O36163   5.298   4.242   2.432
11974WAT     H136164   5.302   4.220   2.335
11974WAT     H236165   5.265   4.336   2.444
11975WAT      O36166   6.594   3.341   7.871
11975WAT     H136167   6.534   3.362   7.947
11975WAT     H236168   6.569   3.252   7.832
11976WAT      O36169   1.475   9.190   8.436
11976WAT     H136170   1.522   9.183   8.348
11976WAT     H236171   1.527   9.139   8.505
11977WAT      O36172   3.211   9.314   3.022
11977WAT     H136173   3.306   9.338   3.044
11977WAT     H236174   3.150   9.355   3.090
11978WAT      O36175   8.649   4.701   6.903
11978WAT     H136176   8.567   4.657   6.866
11978WAT     H236177   8.694   4.752   6.829
11979WAT      O36178   1.309   5.787   9.869
11979WAT     H136179   1.276   5.881   9.883
11979WAT     H236180   1.311   5.767   9.771
11980WAT      O36181   6.701   4.376   6.399
11980WAT     H136182   6.784   4.321   6.413
11980WAT     H236183   6.715   4.438   6.322
11981WAT      O36184   3.581   7.776   3.195
11981WAT     H136185   3.598   7.744   3.102
11981WAT     H236186   3.557   7.873   3.194
11982WAT      O36187   3.013   3.436   5.051
11982WAT     H136188   2.942   3.416   5.118
11982WAT     H236189   2.977   3.417   4.959
11983WAT      O36190   8.288   6.368   8.403
11983WAT     H136191   8.324   6.460   8.385
11983WAT     H236192   8.189   6.367   8.386
11984WAT      O36193   7.349   3.402   4.606
11984WAT     H136194   7.357   3.461   4.525
11984WAT     H236195   7.254   3.404   4.639
11985WAT      O36196   8.079   5.060   0.729
11985WAT     H136197   7.991   5.089   0.766
11985WAT     H236198   8.065   4.980   0.671
11986WAT      O36199   3.847   3.201   3.333
11986WAT     H136200   3.751   3.189   3.360
11986WAT     H236201   3.902   3.224   3.413
11987WAT      O36202   2.591   3.803   7.561
11987WAT     H136203   2.565   3.786   7.656
11987WAT     H236204   2.509   3.821   7.507
11988WAT      O36205   1.619   4.605   6.992
11988WAT     H136206   1.703   4.580   6.943
11988WAT     H236207   1.586   4.526   7.043
11989WAT      O36208   4.481   2.933   5.575
11989WAT     H136209   4.509   2.944   5.670
11989WAT     H236210   4.468   3.023   5.533
11990WAT      O36211   9.820   3.850   4.666
11990WAT     H136212   9.893   3.801   4.713
11990WAT     H236213   9.837   3.948   4.672
11991WAT      O36214   7.866   2.932   2.972
11991WAT     H136215   7.883   2.922   3.070
11991WAT     H236216   7.946   2.904   2.920
11992WAT      O36217   3.966   0.164   2.516
11992WAT     H136218   3.981   0.097   2.443
11992WAT     H236219   3.911   0.240   2.480
11993WAT      O36220   3.418   5.928   1.630
11993WAT     H136221   3.484   5.950   1.702
11993WAT     H236222   3.326   5.953   1.661
11994WAT      O36223   6.250   3.403   6.204
11994WAT     H136224   6.204   3.329   6.155
11994WAT     H236225   6.181   3.462   6.247
11995WAT      O36226   0.148   2.295   5.673
11995WAT     H136227   0.166   2.218   5.734
11995WAT     H236228   0.162   2.381   5.722
11996WAT      O36229   1.248   4.362   6.998
11996WAT     H136230   1.298   4.332   6.917
11996WAT     H236231   1.276   4.456   7.021
11997WAT      O36232   1.929   7.216   3.700
11997WAT     H136233   1.966   7.228   3.608
11997WAT     H236234   1.837   7.177   3.694
11998WAT      O36235   4.129   0.323   7.608
11998WAT     H136236   4.153   0.418   7.591
11998WAT     H236237   4.049   0.298   7.554
11999WAT      O36238   0.949   2.849   3.340
11999WAT     H136239   0.991   2.883   3.424
11999WAT     H236240   0.859   2.891   3.328
12000WAT      O36241   6.227   5.784   6.795
12000WAT     H136242   6.181   5.863   6.754
12000WAT     H236243   6.160   5.726   6.841
12001WAT      O36244   2.772   5.854   7.495
12001WAT     H136245   2.681   5.841   7.456
12001WAT     H236246   2.840   5.809   7.436
12002WAT      O36247   8.336   8.912   1.877
12002WAT     H136248   8.306   8.881   1.967
12002WAT     H236249   8.330   9.012   1.872
12003WAT      O36250   3.645   9.715   4.041
12003WAT     H136251   3.680   9.809   4.041
12003WAT     H236252   3.656   9.676   4.132
12004WAT      O36253   0.087   8.022   6.066
12004WAT     H136254   0.025   8.099   6.086
12004WAT     H236255   0.080   7.998   5.970
12005WAT      O36256   1.810   2.600   3.148
12005WAT     H136257   1.812   2.584   3.049
12005WAT     H236258   1.756   2.682   3.168
12006WAT      O36259   7.673   9.233   0.896
12006WAT     H136260   7.632   9.142   0.900
12006WAT     H236261   7.715   9.255   0.985
12007WAT      O36262   8.201   6.482   7.762
12007WAT     H136263   8.249   6.568   7.743
12007WAT     H236264   8.214   6.419   7.686
12008WAT      O36265   4.794   8.374   8.270
12008WAT     H136266   4.749   8.413   8.190
12008WAT     H236267   4.840   8.289   8.245
12009WAT      O36268   0.538   7.840   5.679
12009WAT     H136269   0.607   7.768   5.685
12009WAT     H236270   0.578   7.926   5.712
12010WAT      O36271   6.920   4.094   7.860
12010WAT     H136272   6.988   4.022   7.874
12010WAT     H236273   6.964   4.176   7.823
12011WAT      O36274   2.175   8.871   4.955
12011WAT     H136275   2.093   8.820   4.981
12011WAT     H236276   2.257   8.818   4.979
12012WAT      O36277   4.378   3.658   8.624
12012WAT     H136278   4.383   3.758   8.629
12012WAT     H236279   4.371   3.621   8.716
12013WAT      O36280   8.448   3.885   1.386
12013WAT     H136281   8.523   3.943   1.353
12013WAT     H236282   8.380   3.875   1.314
12014WAT      O36283   8.154   9.262   9.316
12014WAT     H136284   8.056   9.272   9.336
12014WAT     H236285   8.166   9.253   9.217
12015WAT      O36286   3.029   2.883   8.372
12015WAT     H136287   2.977   2.962   8.404
12015WAT     H236288   3.078   2.842   8.449
12016WAT      O36289   1.332   3.045   2.753
12016WAT     H136290   1.420   3.085   2.777
12016WAT     H236291   1.281   3.109   2.694
12017WAT      O36292   7.502   7.738   4.345
12017WAT     H136293   7.436   7.724   4.270
12017WAT     H236294   7.529   7.650   4.384
12018WAT      O36295   9.323   0.711   4.190
12018WAT     H136296   9.233   0.671   4.207
12018WAT     H236297   9.348   0.698   4.093
12019WAT      O36298   9.046   8.523   3.809
12019WAT     H136299   9.087   8.599   3.759
12019WAT     H236300   9.072   8.528   3.905
12020WAT      O36301   8.004   0.635   7.810
12020WAT     H136302   7.981   0.539   7.827
12020WAT     H236303   8.042   0.676   7.893
12021WAT      O36304   9.595   6.462   4.808
12021WAT     H136305   9.517   6.401   4.790
12021WAT     H236306   9.680   6.417   4.780
12022WAT      O36307   6.516   0.403   7.422
12022WAT     H136308   6.472   0.435   7.338
12022WAT     H236309   6.519   0.303   7.423
12023WAT      O36310   6.221   6.058   3.486
12023WAT     H136311   6.169   5.975   3.504
12023WAT     H236312   6.244   6.063   3.389
12024WAT      O36313   4.672   6.747   2.303
12024WAT     H136314   4.641   6.836   2.271
12024WAT     H236315   4.635   6.676   2.243
12025WAT      O36316   6.486   4.681   4.808
12025WAT     H136317   6.505   4.585   4.830
12025WAT     H236318   6.517   4.701   4.715
12026WAT      O36319   3.288   8.400   9.424
12026WAT     H136320   3.240   8.332   9.369
12026WAT     H236321   3.383   8.373   9.436
12027WAT      O36322   2.178   4.649   9.747
12027WAT     H136323   2.114   4.633   9.672
12027WAT     H236324   2.241   4.571   9.753
12028WAT      O36325   4.079   1.554   1.225
12028WAT     H136326   4.149   1.607   1.273
12028WAT     H236327   4.065   1.593   1.134
12029WAT      O36328   6.681   3.453   0.717
12029WAT     H136329   6.657   3.550   0.717
12029WAT     H236330   6.599   3.398   0.698
12030WAT      O36331   7.548   6.841   5.354
12030WAT     H136332   7.550   6.836   5.254
12030WAT     H236333   7.640   6.862   5.388
12031WAT      O36334   3.588   8.442   9.091
12031WAT     H136335   3.638   8.359   9.068
12031WAT     H236336   3.490   8.428   9.078
12032WAT      O36337   7.969   4.527   4.182
12032WAT     H136338   8.061   4.567   4.189
12032WAT     H236339   7.967   4.461   4.107
12033WAT      O36340   8.027   1.356   7.333
12033WAT     H136341   8.127   1.363   7.333
12033WAT     H236342   7.996   1.317   7.419
12034WAT      O36343   8.258   0.949   6.960
12034WAT     H136344   8.273   1.041   6.924
12034WAT     H236345   8.264   0.882   6.885
12035WAT      O36346   0.405   1.542   8.564
12035WAT     H136347   0.318   1.492   8.554
12035WAT     H236348   0.460   1.528   8.482
12036WAT      O36349   7.161   4.092   6.294
12036WAT     H136350   7.167   4.065   6.197
12036WAT     H236351   7.170   4.010   6.351
12037WAT      O36352   8.960   3.409   9.161
12037WAT     H136353   8.915   3.320   9.163
12037WAT     H236354   8.900   3.478   9.202
12038WAT      O36355   6.703   9.664   9.646
12038WAT     H136356   6.752   9.714   9.717
12038WAT     H236357   6.606   9.660   9.670
12039WAT      O36358   2.753   5.568   4.420
12039WAT     H136359   2.693   5.494   4.391
12039WAT     H236360   2.746   5.581   4.519
12040WAT      O36361   2.780   4.966   6.199
12040WAT     H136362   2.682   4.977   6.187
12040WAT     H236363   2.799   4.924   6.287
12041WAT      O36364   9.009   2.031   3.490
12041WAT     H136365   8.952   2.104   3.453
12041WAT     H236366   8.976   1.943   3.456
12042WAT      O36367   1.320   0.410   0.588
12042WAT     H136368   1.407   0.372   0.619
12042WAT     H236369   1.338   0.492   0.533
12043WAT      O36370   0.573   8.099   8.066
12043WAT     H136371   0.602   8.194   8.059
12043WAT     H236372   0.591   8.052   7.980
12044WAT      O36373   4.110   0.164   2.091
12044WAT     H136374   4.037   0.232   2.082
12044WAT     H236375   4.102   0.097   2.017
12045WAT      O36376   8.177   5.426   7.374
12045WAT     H136377   8.166   5.345   7.316
12045WAT     H236378   8.189   5.507   7.317
12046WAT      O36379   9.365   3.159   9.034
12046WAT     H136380   9.268   3.170   9.011
12046WAT     H236381   9.378   3.173   9.132
12047WAT      O36382   1.297   9.729   5.608
12047WAT     H136383   1.368   9.798   5.626
12047WAT     H236384   1.337   9.638   5.613
12048WAT      O36385   9.486   6.245   7.324
12048WAT     H136386   9.456   6.341   7.320
12048WAT     H236387   9.520   6.217   7.235
12049WAT      O36388   8.620   6.286   2.860
12049WAT     H136389   8.531   6.315   2.895
12049WAT     H236390   8.613   6.269   2.762
12050WAT      O36391   3.049   7.199   4.626
12050WAT     H136392   3.095   7.239   4.705
12050WAT     H236393   2.951   7.188   4.646
12051WAT      O36394   0.953   6.914   9.259
12051WAT     H136395   0.886   6.988   9.259
12051WAT     H236396   0.993   6.905   9.168
12052WAT      O36397   8.986   3.670   5.059
12052WAT     H136398   9.078   3.701   5.084
12052WAT     H236399   8.968   3.581   5.100
12053WAT      O36400   6.388   5.734   5.246
12053WAT     H136401   6.452   5.788   5.191
12053WAT     H236402   6.439   5.685   5.317
12054WAT      O36403   6.608   1.008   6.190
12054WAT     H136404   6.612   1.070   6.269
12054WAT     H236405   6.616   0.914   6.222
12055WAT      O36406   4.264   1.943   8.462
12055WAT     H136407   4.244   1.845   8.463
12055WAT     H236408   4.185   1.992   8.426
12056WAT      O36409   2.874   8.521   1.523
12056WAT     H136410   2.904   8.617   1.528
12056WAT     H236411   2.937   8.470   1.465
12057WAT      O36412   6.354   8.307   1.196
12057WAT     H136413   6.319   8.293   1.103
12057WAT     H236414   6.440   8.357   1.191
12058WAT      O36415   7.410   4.473   1.667
12058WAT     H136416   7.474   4.398   1.646
12058WAT     H236417   7.373   4.509   1.581
12059WAT      O36418   7.587   7.243   8.466
12059WAT     H136419   7.629   7.163   8.510
12059WAT     H236420   7.649   7.321   8.473
12060WAT      O36421   6.310   3.869   6.871
12060WAT     H136422   6.308   3.797   6.801
12060WAT     H236423   6.234   3.931   6.856
12061WAT      O36424   7.461   3.351   6.064
12061WAT     H136425   7.519   3.429   6.040
12061WAT     H236426   7.416   3.317   5.982
12062WAT      O36427   5.942   8.566   9.676
12062WAT     H136428   5.961   8.634   9.606
12062WAT     H236429   5.845   8.543   9.675
12063WAT      O36430   2.952   2.603   5.610
12063WAT     H136431   2.971   2.507   5.592
12063WAT     H236432   3.012   2.660   5.554
12064WAT      O36433   0.477   8.708   0.408
12064WAT     H136434   0.508   8.756   0.326
12064WAT     H236435   0.520   8.618   0.413
12065WAT      O36436   6.175   6.834   7.045
12065WAT     H136437   6.127   6.848   6.959
12065WAT     H236438   6.130   6.762   7.098
12066WAT      O36439   5.627   8.412   5.860
12066WAT     H136440   5.627   8.396   5.762
12066WAT     H236441   5.720   8.435   5.890
12067WAT      O36442   5.541   9.362   7.291
12067WAT     H136443   5.461   9.397   7.339
12067WAT     H236444   5.564   9.271   7.326
12068WAT      O36445   9.515   7.434   4.555
12068WAT     H136446   9.577   7.402   4.483
12068WAT     H236447   9.545   7.397   4.643
12069WAT      O36448   5.968   6.530   8.816
12069WAT     H136449   5.939   6.545   8.722
12069WAT     H236450   6.036   6.598   8.843
12070WAT      O36451   6.872   5.626   2.287
12070WAT     H136452   6.928   5.573   2.223
12070WAT     H236453   6.814   5.689   2.236
12071WAT      O36454   7.221   0.016   3.850
12071WAT     H136455   7.250   0.109   3.876
12071WAT     H236456   7.268  -0.011   3.767
12072WAT      O36457   1.411   4.719   8.197
12072WAT     H136458   1.325   4.715   8.145
12072WAT     H236459   1.412   4.646   8.265
12073WAT      O36460   4.284   5.283   0.417
12073WAT     H136461   4.277   5.186   0.441
12073WAT     H236462   4.375   5.317   0.443
12074WAT      O36463   4.827   1.778   1.661
12074WAT     H136464   4.865   1.832   1.586
12074WAT     H236465   4.790   1.839   1.731
12075WAT      O36466   8.159   1.669   0.798
12075WAT     H136467   8.150   1.711   0.888
12075WAT     H236468   8.079   1.692   0.743
12076WAT      O36469   3.708   9.319   4.591
12076WAT     H136470   3.663   9.400   4.554
12076WAT     H236471   3.727   9.254   4.517
12077WAT      O36472   0.637   8.950   1.114
12077WAT     H136473   0.707   9.005   1.160
12077WAT     H236474   0.637   8.857   1.151
12078WAT      O36475   6.625   5.358   7.645
12078WAT     H136476   6.578   5.437   7.684
12078WAT     H236477   6.576   5.326   7.564
12079WAT      O36478   0.251   8.637   6.187
12079WAT     H136479   0.233   8.698   6.110
12079WAT     H236480   0.230   8.543   6.161
12080WAT      O36481   7.751   6.218   2.059
12080WAT     H136482   7.848   6.244   2.056
12080WAT     H236483   7.744   6.121   2.079
12081WAT      O36484   1.479   1.536   2.872
12081WAT     H136485   1.444   1.442   2.870
12081WAT     H236486   1.578   1.535   2.858
12082WAT      O36487   9.211   9.563   3.075
12082WAT     H136488   9.237   9.525   3.164
12082WAT     H236489   9.120   9.604   3.081
12083WAT      O36490   0.638   2.335   3.102
12083WAT     H136491   0.591   2.280   3.172
12083WAT     H236492   0.651   2.428   3.136
12084WAT      O36493   0.963   0.893   5.493
12084WAT     H136494   0.956   0.927   5.587
12084WAT     H236495   0.973   0.971   5.431
12085WAT      O36496   6.438   3.492   1.539
12085WAT     H136497   6.442   3.419   1.606
12085WAT     H236498   6.345   3.498   1.502
12086WAT      O36499   5.168   4.918   4.342
12086WAT     H136500   5.071   4.900   4.325
12086WAT     H236501   5.183   4.923   4.441
12087WAT      O36502   1.208   8.786   3.938
12087WAT     H136503   1.177   8.767   3.845
12087WAT     H236504   1.130   8.813   3.994
12088WAT      O36505   6.164   1.961   1.614
12088WAT     H136506   6.134   1.898   1.686
12088WAT     H236507   6.263   1.973   1.620
12089WAT      O36508   4.967   8.779   0.127
12089WAT     H136509   4.959   8.837   0.208
12089WAT     H236510   4.917   8.694   0.143
12090WAT      O36511   3.810   9.669   2.372
12090WAT     H136512   3.730   9.699   2.320
12090WAT     H236513   3.889   9.725   2.345
12091WAT      O36514   1.200   5.689   5.475
12091WAT     H136515   1.218   5.591   5.461
12091WAT     H236516   1.202   5.709   5.573
12092WAT      O36517   1.521   9.674   4.161
12092WAT     H136518   1.531   9.625   4.075
12092WAT     H236519   1.608   9.719   4.184
12093WAT      O36520   7.372   0.539   5.538
12093WAT     H136521   7.294   0.509   5.593
12093WAT     H236522   7.397   0.466   5.474
12094WAT      O36523   9.892   4.233   4.388
12094WAT     H136524   9.797   4.211   4.410
12094WAT     H236525   9.901   4.332   4.377
12095WAT      O36526   0.056   2.648   0.595
12095WAT     H136527   0.080   2.565   0.646
12095WAT     H236528   0.139   2.688   0.556
12096WAT      O36529   6.430   9.766   1.285
12096WAT     H136530   6.369   9.694   1.318
12096WAT     H236531   6.523   9.729   1.274
12097WAT      O36532   9.115   2.610   9.103
12097WAT     H136533   9.209   2.641   9.090
12097WAT     H236534   9.115   2.522   9.150
12098WAT      O36535   5.563   1.474   4.988
12098WAT     H136536   5.489   1.497   5.052
12098WAT     H236537   5.647   1.457   5.039
12099WAT      O36538   5.579   3.756   9.278
12099WAT     H136539   5.513   3.685   9.304
12099WAT     H236540   5.594   3.817   9.356
12100WAT      O36541   6.394   8.796   9.313
12100WAT     H136542   6.366   8.700   9.319
12100WAT     H236543   6.469   8.805   9.247
12101WAT      O36544   2.719   2.987   5.590
12101WAT     H136545   2.814   2.962   5.567
12101WAT     H236546   2.670   3.010   5.506
12102WAT      O36547   2.625   7.047   0.049
12102WAT     H136548   2.663   7.050  -0.043
12102WAT     H236549   2.655   7.128   0.100
12103WAT      O36550   1.587   0.659   7.402
12103WAT     H136551   1.507   0.616   7.359
12103WAT     H236552   1.646   0.696   7.331
12104WAT      O36553   8.344   5.975   5.307
12104WAT     H136554   8.423   5.969   5.369
12104WAT     H236555   8.303   6.065   5.315
12105WAT      O36556   8.779   6.637   6.075
12105WAT     H136557   8.681   6.622   6.088
12105WAT     H236558   8.812   6.703   6.142
12106WAT      O36559   3.960   0.393   2.073
12106WAT     H136560   3.868   0.363   2.099
12106WAT     H236561   3.954   0.464   2.003
12107WAT      O36562   5.656   9.580   0.402
12107WAT     H136563   5.680   9.542   0.313
12107WAT     H236564   5.636   9.505   0.466
12108WAT      O36565   9.817   9.618   7.847
12108WAT     H136566   9.819   9.594   7.750
12108WAT     H236567   9.729   9.594   7.886
12109WAT      O36568   7.428   5.872   5.782
12109WAT     H136569   7.498   5.848   5.849
12109WAT     H236570   7.471   5.891   5.694
12110WAT      O36571   1.279   5.804   4.164
12110WAT     H136572   1.219   5.724   4.172
12110WAT     H236573   1.370   5.774   4.137
12111WAT      O36574   6.312   8.927   1.281
12111WAT     H136575   6.268   8.998   1.226
12111WAT     H236576   6.331   8.848   1.223
12112WAT      O36577   5.080   2.515   6.889
12112WAT     H136578   5.163   2.559   6.923
12112WAT     H236579   5.009   2.518   6.959
12113WAT      O36580   7.442   2.414   0.071
12113WAT     H136581   7.488   2.326   0.063
12113WAT     H236582   7.445   2.461  -0.017
12114WAT      O36583   4.454   0.247   4.250
12114WAT     H136584   4.361   0.282   4.239
12114WAT     H236585   4.519   0.319   4.225
12115WAT      O36586   3.177   2.779   7.874
12115WAT     H136587   3.235   2.700   7.858
12115WAT     H236588   3.157   2.786   7.972
12116WAT      O36589   6.666   0.208   9.733
12116WAT     H136590   6.733   0.140   9.764
12116WAT     H236591   6.589   0.161   9.689
12117WAT      O36592   8.994   7.411   4.758
12117WAT     H136593   9.016   7.417   4.660
12117WAT     H236594   8.974   7.317   4.782
12118WAT      O36595   1.976   2.765   3.473
12118WAT     H136596   1.894   2.817   3.497
12118WAT     H236597   1.978   2.680   3.526
12119WAT      O36598   1.856   7.140   2.842
12119WAT     H136599   1.923   7.079   2.798
12119WAT     H236600   1.764   7.109   2.819
12120WAT      O36601   6.413   7.369   3.319
12120WAT     H136602   6.345   7.397   3.251
12120WAT     H236603   6.498   7.419   3.303
12121WAT      O36604   2.061   3.654   3.940
12121WAT     H136605   2.112   3.692   4.018
12121WAT     H236606   1.979   3.708   3.924
12122WAT      O36607   9.616   3.326   1.306
12122WAT     H136608   9.596   3.231   1.332
12122WAT     H236609   9.534   3.381   1.320
12123WAT      O36610   1.856   0.899   9.119
12123WAT     H136611   1.946   0.938   9.101
12123WAT     H236612   1.865   0.817   9.176
12124WAT      O36613   4.956   2.980   2.100
12124WAT     H136614   4.890   2.924   2.150
12124WAT     H236615   5.031   2.922   2.067
12125WAT      O36616   5.824   1.154   5.526
12125WAT     H136617   5.792   1.147   5.432
12125WAT     H236618   5.835   1.250   5.551
12126WAT      O36619   5.432   4.848   4.347
12126WAT     H136620   5.477   4.904   4.416
12126WAT     H236621   5.336   4.873   4.342
12127WAT      O36622   4.083   7.601   9.456
12127WAT     H136623   4.024   7.678   9.430
12127WAT     H236624   4.117   7.556   9.373
12128WAT      O36625   9.435   2.675   8.366
12128WAT     H136626   9.452   2.591   8.418
12128WAT     H236627   9.345   2.711   8.390
12129WAT      O36628   9.158   4.222   1.750
12129WAT     H136629   9.255   4.233   1.772
12129WAT     H236630   9.114   4.166   1.819
12130WAT      O36631   0.095   6.059   5.166
12130WAT     H136632   0.027   5.990   5.193
12130WAT     H236633   0.130   6.105   5.248
12131WAT      O36634   0.039   7.268   6.972
12131WAT     H136635   0.060   7.364   6.989
12131WAT     H236636   0.093   7.235   6.894
12132WAT      O36637   7.905   0.534   0.743
12132WAT     H136638   7.863   0.480   0.669
12132WAT     H236639   7.985   0.582   0.707
12133WAT      O36640   4.324   5.760   8.432
12133WAT     H136641   4.227   5.777   8.414
12133WAT     H236642   4.369   5.729   8.348
12134WAT      O36643   4.680   4.119   7.434
12134WAT     H136644   4.763   4.084   7.477
12134WAT     H236645   4.621   4.042   7.407
12135WAT      O36646   8.432   3.386   4.779
12135WAT     H136647   8.514   3.351   4.733
12135WAT     H236648   8.419   3.482   4.756
12136WAT      O36649   0.828   3.060   7.018
12136WAT     H136650   0.892   3.084   7.091
12136WAT     H236651   0.779   3.141   6.988
12137WAT      O36652   4.923   4.657   7.220
12137WAT     H136653   4.843   4.693   7.173
12137WAT     H236654   4.924   4.557   7.213
12138WAT      O36655   9.805   6.039   1.841
12138WAT     H136656   9.797   6.134   1.811
12138WAT     H236657   9.754   6.027   1.926
12139WAT      O36658   5.249   4.249   8.689
12139WAT     H136659   5.180   4.297   8.744
12139WAT     H236660   5.288   4.174   8.742
12140WAT      O36661   1.010   8.298   4.653
12140WAT     H136662   1.026   8.396   4.668
12140WAT     H236663   1.038   8.247   4.735
12141WAT      O36664   8.261   7.631   2.465
12141WAT     H136665   8.207   7.704   2.507
12141WAT     H236666   8.300   7.664   2.379
12142WAT      O36667   3.816   0.106   3.487
12142WAT     H136668   3.904   0.132   3.447
12142WAT     H236669   3.807   0.149   3.577
12143WAT      O36670   1.879   6.993   0.741
12143WAT     H136671   1.853   6.963   0.833
12143WAT     H236672   1.921   7.084   0.746
12144WAT      O36673   7.620   1.329   8.097
12144WAT     H136674   7.709   1.305   8.057
12144WAT     H236675   7.599   1.266   8.172
12145WAT      O36676   6.501   2.091   5.008
12145WAT     H136677   6.582   2.114   4.954
12145WAT     H236678   6.442   2.171   5.014
12146WAT      O36679   9.302   8.499   1.550
12146WAT     H136680   9.302   8.553   1.466
12146WAT     H236681   9.241   8.420   1.540
12147WAT      O36682   2.210   7.143   1.994
12147WAT     H136683   2.231   7.151   2.091
12147WAT     H236684   2.118   7.105   1.982
12148WAT      O36685   6.534   2.039   0.050
12148WAT     H136686   6.595   2.084  -0.015
12148WAT     H236687   6.469   2.105   0.087
12149WAT      O36688   4.201   1.444   4.671
12149WAT     H136689   4.145   1.380   4.723
12149WAT     H236690   4.150   1.529   4.657
12150WAT      O36691   3.418   3.596   4.594
12150WAT     H136692   3.354   3.563   4.664
12150WAT     H236693   3.368   3.621   4.512
12151WAT      O36694   1.500   3.730   7.685
12151WAT     H136695   1.544   3.769   7.766
12151WAT     H236696   1.556   3.748   7.605
12152WAT      O36697   2.903   7.924   3.442
12152WAT     H136698   2.823   7.916   3.501
12152WAT     H236699   2.983   7.889   3.490
12153WAT      O36700   1.192   5.276   7.864
12153WAT     H136701   1.129   5.242   7.934
12153WAT     H236702   1.160   5.366   7.832
12154WAT      O36703   9.108   2.020   0.415
12154WAT     H136704   9.019   2.014   0.460
12154WAT     H236705   9.105   1.970   0.328
12155WAT      O36706   3.285   5.026   9.238
12155WAT     H136707   3.229   4.956   9.283
12155WAT     H236708   3.316   5.092   9.306
12156WAT      O36709   3.218   7.465   4.302
12156WAT     H136710   3.303   7.513   4.325
12156WAT     H236711   3.239   7.371   4.276
12157WAT      O36712   4.883   8.774   8.145
12157WAT     H136713   4.918   8.698   8.091
12157WAT     H236714   4.953   8.802   8.212
12158WAT      O36715   7.374   3.541   0.031
12158WAT     H136716   7.276   3.561   0.031
12158WAT     H236717   7.387   3.442   0.035
12159WAT      O36718   2.252   3.899   9.346
12159WAT     H136719   2.337   3.903   9.398
12159WAT     H236720   2.273   3.884   9.249
12160WAT      O36721   1.062   3.685   5.117
12160WAT     H136722   1.079   3.652   5.210
12160WAT     H236723   1.011   3.615   5.067
12161WAT      O36724   1.661   1.838   9.754
12161WAT     H136725   1.582   1.900   9.748
12161WAT     H236726   1.711   1.857   9.838
12162WAT      O36727   0.127   7.282   5.184
12162WAT     H136728   0.199   7.348   5.161
12162WAT     H236729   0.144   7.244   5.275
12163WAT      O36730   0.602   6.299   8.079
12163WAT     H136731   0.561   6.225   8.134
12163WAT     H236732   0.566   6.387   8.110
12164WAT      O36733   3.829   9.275   4.301
12164WAT     H136734   3.879   9.194   4.333
12164WAT     H236735   3.874   9.358   4.335
12165WAT      O36736   0.607   5.671   7.107
12165WAT     H136737   0.583   5.767   7.094
12165WAT     H236738   0.608   5.625   7.018
12166WAT      O36739   9.742   5.510   9.843
12166WAT     H136740   9.643   5.502   9.836
12166WAT     H236741   9.785   5.446   9.780
12167WAT      O36742   7.947   7.697   7.427
12167WAT     H136743   7.916   7.740   7.342
12167WAT     H236744   7.872   7.695   7.493
12168WAT      O36745   7.738   8.457   2.049
12168WAT     H136746   7.824   8.507   2.040
12168WAT     H236747   7.714   8.451   2.146
12169WAT      O36748   1.545   1.280   7.298
12169WAT     H136749   1.624   1.304   7.243
12169WAT     H236750   1.464   1.271   7.240
12170WAT      O36751   8.354   1.780   0.632
12170WAT     H136752   8.388   1.700   0.583
12170WAT     H236753   8.292   1.750   0.705
12171WAT      O36754   7.897   0.672   1.920
12171WAT     H136755   7.810   0.722   1.929
12171WAT     H236756   7.957   0.694   1.997
12172WAT      O36757   2.549   1.190   8.229
12172WAT     H136758   2.467   1.233   8.191
12172WAT     H236759   2.630   1.227   8.185
12173WAT      O36760   1.392   8.941   9.709
12173WAT     H136761   1.330   8.873   9.669
12173WAT     H236762   1.486   8.923   9.680
12174WAT      O36763   8.030   0.929   9.767
12174WAT     H136764   7.951   0.968   9.815
12174WAT     H236765   8.051   0.839   9.805
12175WAT      O36766   4.906   7.903   1.337
12175WAT     H136767   4.866   7.844   1.407
12175WAT     H236768   4.950   7.982   1.380
12176WAT      O36769   9.002   9.107   2.334
12176WAT     H136770   9.048   9.194   2.351
12176WAT     H236771   8.965   9.072   2.420
12177WAT      O36772   8.323   5.757   1.162
12177WAT     H136773   8.419   5.785   1.163
12177WAT     H236774   8.278   5.794   1.081
12178WAT      O36775   9.309   7.288   4.201
12178WAT     H136776   9.232   7.327   4.150
12178WAT     H236777   9.391   7.292   4.144
12179WAT      O36778   2.273   6.360   3.160
12179WAT     H136779   2.280   6.432   3.092
12179WAT     H236780   2.190   6.306   3.144
12180WAT      O36781   2.684   8.896   9.010
12180WAT     H136782   2.724   8.962   8.947
12180WAT     H236783   2.626   8.832   8.958
12181WAT      O36784   8.530   5.891   2.745
12181WAT     H136785   8.508   5.846   2.658
12181WAT     H236786   8.558   5.822   2.812
12182WAT      O36787   3.963   3.535   0.027
12182WAT     H136788   3.892   3.502  -0.035
12182WAT     H236789   3.923   3.555   0.116
12183WAT      O36790   1.135   9.064   2.253
12183WAT     H136791   1.080   9.105   2.180
12183WAT     H236792   1.141   9.127   2.330
12184WAT      O36793   8.886   7.359   3.700
12184WAT     H136794   8.927   7.428   3.640
12184WAT     H236795   8.855   7.282   3.645
12185WAT      O36796   0.782   4.873   0.246
12185WAT     H136797   0.823   4.782   0.240
12185WAT     H236798   0.684   4.864   0.265
12186WAT      O36799   2.447   0.750   2.540
12186WAT     H136800   2.489   0.762   2.630
12186WAT     H236801   2.419   0.655   2.528
12187WAT      O36802   9.645   9.792   5.730
12187WAT     H136803   9.680   9.772   5.821
12187WAT     H236804   9.696   9.869   5.690
12188WAT      O36805   1.689   7.290   7.571
12188WAT     H136806   1.748   7.369   7.553
12188WAT     H236807   1.651   7.258   7.484
12189WAT      O36808   6.279   2.763   2.086
12189WAT     H136809   6.308   2.844   2.034
12189WAT     H236810   6.341   2.749   2.163
12190WAT      O36811   9.421   4.828   2.180
12190WAT     H136812   9.357   4.850   2.106
12190WAT     H236813   9.510   4.803   2.142
12191WAT      O36814   5.010   8.902   4.109
12191WAT     H136815   5.041   8.852   4.028
12191WAT     H236816   4.936   8.964   4.083
12192WAT      O36817   5.926   0.452   4.825
12192WAT     H136818   5.893   0.522   4.888
12192WAT     H236819   5.848   0.411   4.777
12193WAT      O36820   6.008   9.317   3.930
12193WAT     H136821   5.984   9.234   3.980
12193WAT     H236822   6.108   9.320   3.918
12194WAT      O36823   5.827   1.924   3.320
12194WAT     H136824   5.901   1.956   3.261
12194WAT     H236825   5.852   1.938   3.416
12195WAT      O36826   9.754   7.263   8.682
12195WAT     H136827   9.699   7.255   8.765
12195WAT     H236828   9.703   7.314   8.613
12196WAT      O36829   6.400   3.247   2.453
12196WAT     H136830   6.402   3.150   2.429
12196WAT     H236831   6.325   3.264   2.517
12197WAT      O36832   6.773   8.187   5.122
12197WAT     H136833   6.869   8.159   5.110
12197WAT     H236834   6.716   8.134   5.060
12198WAT      O36835   5.464   4.983   9.246
12198WAT     H136836   5.407   5.016   9.170
12198WAT     H236837   5.428   5.017   9.332
12199WAT      O36838   1.832   0.450   1.671
12199WAT     H136839   1.877   0.510   1.738
12199WAT     H236840   1.776   0.504   1.609
12200WAT      O36841   6.639   2.553   2.151
12200WAT     H136842   6.697   2.613   2.096
12200WAT     H236843   6.606   2.477   2.094
12201WAT      O36844   8.350   4.324   9.042
12201WAT     H136845   8.347   4.266   8.961
12201WAT     H236846   8.285   4.289   9.110
12202WAT      O36847   7.939   7.344   2.543
12202WAT     H136848   8.000   7.395   2.482
12202WAT     H236849   7.986   7.326   2.629
12203WAT      O36850   5.456   9.509   9.479
12203WAT     H136851   5.421   9.527   9.570
12203WAT     H236852   5.546   9.554   9.468
12204WAT      O36853   8.680   5.331   3.477
12204WAT     H136854   8.749   5.287   3.419
12204WAT     H236855   8.718   5.414   3.516
12205WAT      O36856   3.097   5.487   3.419
12205WAT     H136857   3.072   5.396   3.453
12205WAT     H236858   3.106   5.550   3.496
12206WAT      O36859   3.047   7.872   9.596
12206WAT     H136860   2.983   7.847   9.669
12206WAT     H236861   3.132   7.905   9.637
12207WAT      O36862   6.017   3.198   3.343
12207WAT     H136863   5.986   3.161   3.431
12207WAT     H236864   5.950   3.262   3.309
12208WAT      O36865   0.942   7.591   8.876
12208WAT     H136866   0.889   7.599   8.791
12208WAT     H236867   0.883   7.553   8.947
12209WAT      O36868   8.471   4.165   9.316
12209WAT     H136869   8.551   4.113   9.286
12209WAT     H236870   8.499   4.243   9.371
12210WAT      O36871   1.189   3.220   8.952
12210WAT     H136872   1.095   3.252   8.957
12210WAT     H236873   1.198   3.152   8.879
12211WAT      O36874   8.656   0.639   1.339
12211WAT     H136875   8.707   0.709   1.390
12211WAT     H236876   8.689   0.549   1.366
12212WAT      O36877   9.683   5.572   5.701
12212WAT     H136878   9.641   5.492   5.744
12212WAT     H236879   9.634   5.594   5.616
12213WAT      O36880   1.033   6.567   2.971
12213WAT     H136881   0.972   6.582   2.894
12213WAT     H236882   1.124   6.543   2.937
12214WAT      O36883   7.209   3.743   9.061
12214WAT     H136884   7.172   3.818   9.006
12214WAT     H236885   7.234   3.777   9.152
12215WAT      O36886   3.147   4.888   3.240
12215WAT     H136887   3.207   4.965   3.219
12215WAT     H236888   3.151   4.822   3.164
12216WAT      O36889   7.536   2.558   2.774
12216WAT     H136890   7.532   2.593   2.680
12216WAT     H236891   7.584   2.623   2.832
12217WAT      O36892   3.757   8.334   0.400
12217WAT     H136893   3.857   8.339   0.393
12217WAT     H236894   3.716   8.413   0.354
12218WAT      O36895   3.163   7.488   0.871
12218WAT     H136896   3.221   7.408   0.857
12218WAT     H236897   3.080   7.460   0.919
12219WAT      O36898   8.784   7.332   5.051
12219WAT     H136899   8.712   7.269   5.081
12219WAT     H236900   8.844   7.285   4.986
12220WAT      O36901   2.761   0.334   9.691
12220WAT     H136902   2.752   0.393   9.611
12220WAT     H236903   2.850   0.287   9.688
12221WAT      O36904   2.214   4.919   9.710
12221WAT     H136905   2.207   4.822   9.733
12221WAT     H236906   2.171   4.973   9.782
12222WAT      O36907   5.201   2.545   2.898
12222WAT     H136908   5.127   2.485   2.929
12222WAT     H236909   5.283   2.527   2.951
12223WAT      O36910   3.335   9.790   1.106
12223WAT     H136911   3.364   9.698   1.132
12223WAT     H236912   3.268   9.824   1.173
12224WAT      O36913   2.048   8.588   6.348
12224WAT     H136914   2.086   8.680   6.351
12224WAT     H236915   1.951   8.591   6.372
12225WAT      O36916   1.906   4.330   0.442
12225WAT     H136917   1.879   4.256   0.504
12225WAT     H236918   1.827   4.358   0.387
12226WAT      O36919   2.942   9.139   4.899
12226WAT     H136920   2.880   9.189   4.960
12226WAT     H236921   2.918   9.042   4.898
12227WAT      O36922   6.871   9.621   5.285
12227WAT     H136923   6.953   9.584   5.328
12227WAT     H236924   6.828   9.687   5.346
12228WAT      O36925   9.602   7.080   9.312
12228WAT     H136926   9.669   7.006   9.298
12228WAT     H236927   9.616   7.150   9.242
12229WAT      O36928   4.450   6.286   2.094
12229WAT     H136929   4.382   6.359   2.104
12229WAT     H236930   4.471   6.247   2.183
12230WAT      O36931   0.435   9.436   1.882
12230WAT     H136932   0.364   9.369   1.906
12230WAT     H236933   0.488   9.459   1.963
12231WAT      O36934   4.858   8.598   2.552
12231WAT     H136935   4.814   8.640   2.631
12231WAT     H236936   4.941   8.551   2.582
12232WAT      O36937   1.339   0.901   4.981
12232WAT     H136938   1.325   0.813   4.936
12232WAT     H236939   1.272   0.967   4.947
12233WAT      O36940   8.290   1.993   5.093
12233WAT     H136941   8.297   1.978   5.191
12233WAT     H236942   8.271   2.089   5.075
12234WAT      O36943   2.824   8.767   4.284
12234WAT     H136944   2.838   8.674   4.319
12234WAT     H236945   2.859   8.773   4.190
12235WAT      O36946   2.807   4.495   9.761
12235WAT     H136947   2.872   4.570   9.763
12235WAT     H236948   2.793   4.466   9.666
12236WAT      O36949   6.369   2.268   4.643
12236WAT     H136950   6.450   2.264   4.584
12236WAT     H236951   6.297   2.321   4.598
12237WAT      O36952   4.304   1.154   4.841
12237WAT     H136953   4.218   1.202   4.822
12237WAT     H236954   4.344   1.190   4.925
12238WAT      O36955   2.163   7.172   3.866
12238WAT     H136956   2.180   7.073   3.872
12238WAT     H236957   2.081   7.189   3.811
12239WAT      O36958   4.918   0.225   7.258
12239WAT     H136959   4.824   0.201   7.233
12239WAT     H236960   4.951   0.296   7.197
12240WAT      O36961   5.381   7.449   9.409
12240WAT     H136962   5.471   7.422   9.376
12240WAT     H236963   5.325   7.479   9.332
12241WAT      O36964   6.395   4.432   0.269
12241WAT     H136965   6.377   4.366   0.342
12241WAT     H236966   6.310   4.475   0.241
12242WAT      O36967   7.696   1.737   0.467
12242WAT     H136968   7.674   1.824   0.511
12242WAT     H236969   7.748   1.755   0.383
12243WAT      O36970   9.762   2.959   1.153
12243WAT     H136971   9.781   3.057   1.149
12243WAT     H236972   9.704   2.933   1.076
12244WAT      O36973   3.024   9.624   7.187
12244WAT     H136974   3.103   9.573   7.219
12244WAT     H236975   3.046   9.671   7.102
12245WAT      O36976   1.962   6.471   3.325
12245WAT     H136977   2.022   6.398   3.359
12245WAT     H236978   1.911   6.437   3.246
12246WAT      O36979   3.454   0.883   2.093
12246WAT     H136980   3.463   0.790   2.128
12246WAT     H236981   3.414   0.880   2.001
12247WAT      O36982   4.915   0.882   1.948
12247WAT     H136983   4.929   0.973   1.908
12247WAT     H236984   4.960   0.813   1.892
12248WAT      O36985   3.371   5.194   7.828
12248WAT     H136986   3.333   5.165   7.740
12248WAT     H236987   3.299   5.233   7.884
12249WAT      O36988   9.828   6.630   5.513
12249WAT     H136989   9.816   6.691   5.434
12249WAT     H236990   9.841   6.684   5.596
12250WAT      O36991   5.953   2.381   1.639
12250WAT     H136992   5.967   2.408   1.734
12250WAT     H236993   5.900   2.452   1.591
12251WAT      O36994   3.467   1.059   6.411
12251WAT     H136995   3.452   0.964   6.382
12251WAT     H236996   3.380   1.107   6.413
12252WAT      O36997   7.924   6.246   4.306
12252WAT     H136998   7.995   6.313   4.285
12252WAT     H236999   7.907   6.188   4.227
12253WAT      O37000   9.757   7.200   3.212
12253WAT     H137001   9.701   7.263   3.265
12253WAT     H237002   9.840   7.247   3.182
12254WAT      O37003   5.677   0.089   6.979
12254WAT     H137004   5.747   0.159   6.966
12254WAT     H237005   5.610   0.120   7.046
12255WAT      O37006   7.075   9.762   7.807
12255WAT     H137007   7.173   9.754   7.787
12255WAT     H237008   7.062   9.771   7.906
12256WAT      O37009   0.371   1.483   1.907
12256WAT     H137010   0.467   1.508   1.924
12256WAT     H237011   0.357   1.387   1.932
12257WAT      O37012   3.046   5.494   8.585
12257WAT     H137013   2.982   5.499   8.508
12257WAT     H237014   3.138   5.517   8.554
12258WAT      O37015   6.705   3.703   6.605
12258WAT     H137016   6.762   3.651   6.541
12258WAT     H237017   6.694   3.797   6.571
12259WAT      O37018   9.280   2.376   7.182
12259WAT     H137019   9.205   2.347   7.123
12259WAT     H237020   9.323   2.297   7.224
12260WAT      O37021   2.118   1.421   6.413
12260WAT     H137022   2.153   1.330   6.435
12260WAT     H237023   2.018   1.420   6.413
12261WAT      O37024   8.549   1.128   4.111
12261WAT     H137025   8.596   1.195   4.168
12261WAT     H237026   8.468   1.170   4.070
12262WAT      O37027   8.754   3.840   1.082
12262WAT     H137028   8.737   3.742   1.085
12262WAT     H237029   8.809   3.862   1.001
12263WAT      O37030   5.460   3.930   5.924
12263WAT     H137031   5.404   3.995   5.873
12263WAT     H237032   5.513   3.874   5.861
12264WAT      O37033   1.187   0.758   6.233
12264WAT     H137034   1.134   0.675   6.218
12264WAT     H237035   1.174   0.820   6.155
12265WAT      O37036   1.835   1.226   2.931
12265WAT     H137037   1.789   1.146   2.893
12265WAT     H237038   1.825   1.227   3.031
12266WAT      O37039   2.410   0.105   8.662
12266WAT     H137040   2.355   0.183   8.691
12266WAT     H237041   2.483   0.088   8.729
12267WAT      O37042   1.134   4.224   6.690
12267WAT     H137043   1.221   4.272   6.678
12267WAT     H237044   1.118   4.164   6.612
12268WAT      O37045   4.696   4.278   1.322
12268WAT     H137046   4.748   4.246   1.401
12268WAT     H237047   4.712   4.218   1.244
12269WAT      O37048   7.591   7.193   2.251
12269WAT     H137049   7.511   7.178   2.193
12269WAT     H237050   7.622   7.105   2.288
12270WAT      O37051   7.633   0.359   6.985
12270WAT     H137052   7.659   0.330   7.077
12270WAT     H237053   7.703   0.331   6.919
12271WAT      O37054   2.409   9.264   7.579
12271WAT     H137055   2.501   9.263   7.618
12271WAT     H237056   2.404   9.334   7.508
12272WAT      O37057   9.039   3.873   5.450
12272WAT     H137058   9.120   3.914   5.408
12272WAT     H237059   8.990   3.943   5.501
12273WAT      O37060   8.978   7.390   8.456
12273WAT     H137061   9.072   7.360   8.438
12273WAT     H237062   8.980   7.479   8.501
12274WAT      O37063   7.048   8.310   5.596
12274WAT     H137064   6.964   8.303   5.543
12274WAT     H237065   7.122   8.265   5.545
12275WAT      O37066   7.997   7.404   6.064
12275WAT     H137067   7.923   7.466   6.090
12275WAT     H237068   7.958   7.323   6.018
12276WAT      O37069   0.835   0.533   7.080
12276WAT     H137070   0.806   0.495   6.992
12276WAT     H237071   0.851   0.459   7.145
12277WAT      O37072   6.941   0.315   8.432
12277WAT     H137073   6.902   0.247   8.370
12277WAT     H237074   7.007   0.271   8.493
12278WAT      O37075   1.608   9.295   0.854
12278WAT     H137076   1.705   9.316   0.845
12278WAT     H237077   1.556   9.351   0.789
12279WAT      O37078   1.255   1.739   5.453
12279WAT     H137079   1.322   1.690   5.509
12279WAT     H237080   1.168   1.744   5.503
12280WAT      O37081   0.429   2.280   4.531
12280WAT     H137082   0.452   2.206   4.467
12280WAT     H237083   0.332   2.301   4.524
12281WAT      O37084   3.076   2.545   0.518
12281WAT     H137085   3.115   2.558   0.609
12281WAT     H237086   3.039   2.452   0.511
12282WAT      O37087   7.986   6.514   8.160
12282WAT     H137088   7.990   6.614   8.165
12282WAT     H237089   8.078   6.478   8.142
12283WAT      O37090   2.228   0.913   5.626
12283WAT     H137091   2.318   0.923   5.583
12283WAT     H237092   2.164   0.978   5.585
12284WAT      O37093   0.144   3.820   2.675
12284WAT     H137094   0.187   3.892   2.620
12284WAT     H237095   0.063   3.785   2.628
12285WAT      O37096   7.893   3.544   7.377
12285WAT     H137097   7.849   3.478   7.316
12285WAT     H237098   7.831   3.568   7.451
12286WAT      O37099   5.046   9.116   4.850
12286WAT     H137100   5.030   9.030   4.803
12286WAT     H237101   5.099   9.177   4.791
12287WAT      O37102   5.730   3.104   1.149
12287WAT     H137103   5.701   3.010   1.131
12287WAT     H237104   5.807   3.127   1.090
12288WAT      O37105   2.060   3.715   7.177
12288WAT     H137106   2.116   3.787   7.218
12288WAT     H237107   2.059   3.635   7.237
12289WAT      O37108   0.982   2.492   6.859
12289WAT     H137109   0.964   2.590   6.850
12289WAT     H237110   0.939   2.443   6.782
12290WAT      O37111   0.154   2.880   1.127
12290WAT     H137112   0.064   2.923   1.141
12290WAT     H237113   0.200   2.870   1.215
12291WAT      O37114   3.225   6.545   2.371
12291WAT     H137115   3.193   6.512   2.460
12291WAT     H237116   3.256   6.640   2.380
12292WAT      O37117   5.920   8.877   6.662
12292WAT     H137118   5.887   8.917   6.747
12292WAT     H237119   5.845   8.870   6.596
12293WAT      O37120   0.002   1.467   1.776
12293WAT     H137121   0.087   1.422   1.749
12293WAT     H237122   0.020   1.529   1.853
12294WAT      O37123   6.463   7.667   2.111
12294WAT     H137124   6.482   7.761   2.083
12294WAT     H237125   6.514   7.647   2.195
12295WAT      O37126   6.895   6.926   6.893
12295WAT     H137127   6.855   7.015   6.917
12295WAT     H237128   6.984   6.917   6.939
12296WAT      O37129   5.012   3.952   7.228
12296WAT     H137130   5.089   4.007   7.195
12296WAT     H237131   5.040   3.899   7.308
12297WAT      O37132   8.960   4.280   2.575
12297WAT     H137133   8.875   4.310   2.617
12297WAT     H237134   9.027   4.259   2.647
12298WAT      O37135   1.757   3.240   0.819
12298WAT     H137136   1.661   3.213   0.830
12298WAT     H237137   1.769   3.334   0.851
12299WAT      O37138   4.737   8.198   0.276
12299WAT     H137139   4.700   8.276   0.226
12299WAT     H237140   4.803   8.150   0.219
12300WAT      O37141   3.445   4.359   8.690
12300WAT     H137142   3.510   4.312   8.631
12300WAT     H237143   3.357   4.369   8.642
12301WAT      O37144   5.219   4.292   7.315
12301WAT     H137145   5.251   4.383   7.341
12301WAT     H237146   5.120   4.287   7.328
12302WAT      O37147   0.997   6.085   4.939
12302WAT     H137148   1.030   6.010   4.995
12302WAT     H237149   1.063   6.103   4.866
12303WAT      O37150   3.604   3.765   3.680
12303WAT     H137151   3.560   3.776   3.592
12303WAT     H237152   3.655   3.679   3.682
12304WAT      O37153   3.355   7.268   8.757
12304WAT     H137154   3.282   7.277   8.689
12304WAT     H237155   3.323   7.210   8.832
12305WAT      O37156   0.104   7.147   1.662
12305WAT     H137157   0.104   7.122   1.565
12305WAT     H237158   0.136   7.070   1.717
12306WAT      O37159   5.128   6.838   4.053
12306WAT     H137160   5.145   6.778   4.131
12306WAT     H237161   5.029   6.844   4.037
12307WAT      O37162   5.636   1.615   3.477
12307WAT     H137163   5.709   1.617   3.408
12307WAT     H237164   5.611   1.708   3.502
12308WAT      O37165   2.205   9.102   5.666
12308WAT     H137166   2.249   9.190   5.683
12308WAT     H237167   2.185   9.057   5.753
12309WAT      O37168   0.248   1.507   5.706
12309WAT     H137169   0.233   1.580   5.640
12309WAT     H237170   0.286   1.427   5.660
12310WAT      O37171   7.515   9.003   7.206
12310WAT     H137172   7.452   8.963   7.139
12310WAT     H237173   7.609   8.979   7.181
12311WAT      O37174   6.609   5.797   1.506
12311WAT     H137175   6.620   5.713   1.560
12311WAT     H237176   6.621   5.777   1.409
12312WAT      O37177   6.119   8.487   7.829
12312WAT     H137178   6.211   8.504   7.794
12312WAT     H237179   6.124   8.429   7.910
12313WAT      O37180   9.623   7.956   0.681
12313WAT     H137181   9.620   7.857   0.698
12313WAT     H237182   9.655   8.003   0.764
12314WAT      O37183   4.042   5.562   2.042
12314WAT     H137184   4.090   5.567   2.129
12314WAT     H237185   4.104   5.531   1.971
12315WAT      O37186   7.100   0.810   8.065
12315WAT     H137187   7.192   0.779   8.090
12315WAT     H237188   7.049   0.833   8.148
12316WAT      O37189   9.434   7.501   0.241
12316WAT     H137190   9.456   7.441   0.319
12316WAT     H237191   9.408   7.591   0.275
12317WAT      O37192   4.835   5.076   0.192
12317WAT     H137193   4.803   5.004   0.253
12317WAT     H237194   4.864   5.155   0.246
12318WAT      O37195   2.120   3.404   6.095
12318WAT     H137196   2.071   3.469   6.037
12318WAT     H237197   2.080   3.405   6.187
12319WAT      O37198   6.623   4.925   0.479
12319WAT     H137199   6.565   4.847   0.456
12319WAT     H237200   6.568   4.996   0.523
12320WAT      O37201   6.911   8.802   4.644
12320WAT     H137202   6.844   8.875   4.629
12320WAT     H237203   6.946   8.771   4.556
12321WAT      O37204   3.911   5.682   8.170
12321WAT     H137205   3.851   5.684   8.089
12321WAT     H237206   3.925   5.587   8.199
12322WAT      O37207   8.914   6.745   2.576
12322WAT     H137208   8.881   6.673   2.638
12322WAT     H237209   8.985   6.799   2.623
12323WAT      O37210   7.496   5.913   0.292
12323WAT     H137211   7.498   5.818   0.324
12323WAT     H237212   7.508   5.974   0.370
12324WAT      O37213   3.595   0.113   1.998
12324WAT     H137214   3.594   0.013   1.993
12324WAT     H237215   3.517   0.145   2.052
12325WAT      O37216   8.382   7.357   3.282
12325WAT     H137217   8.343   7.444   3.310
12325WAT     H237218   8.452   7.329   3.347
12326WAT      O37219   0.821   4.349   0.272
12326WAT     H137220   0.799   4.424   0.335
12326WAT     H237221   0.912   4.314   0.294
12327WAT      O37222   1.270   3.074   3.050
12327WAT     H137223   1.325   3.147   3.008
12327WAT     H237224   1.236   3.013   2.978
12328WAT      O37225   3.024   6.196   8.731
12328WAT     H137226   2.951   6.264   8.726
12328WAT     H237227   3.100   6.223   8.672
12329WAT      O37228   2.697   1.024   9.110
12329WAT     H137229   2.762   0.959   9.148
12329WAT     H237230   2.733   1.117   9.120
12330WAT      O37231   2.527   3.426   2.489
12330WAT     H137232   2.498   3.467   2.575
12330WAT     H237233   2.505   3.328   2.489
12331WAT      O37234   4.258   3.746   6.840
12331WAT     H137235   4.344   3.704   6.810
12331WAT     H237236   4.243   3.726   6.937
12332WAT      O37237   2.365   4.422   4.704
12332WAT     H137238   2.388   4.412   4.800
12332WAT     H237239   2.284   4.480   4.695
12333WAT      O37240   3.788   9.313   2.039
12333WAT     H137241   3.802   9.218   2.066
12333WAT     H237242   3.694   9.341   2.063
12334WAT      O37243   8.237   6.848   6.455
12334WAT     H137244   8.240   6.936   6.408
12334WAT     H237245   8.212   6.863   6.551
12335WAT      O37246   4.214   2.022   8.049
12335WAT     H137247   4.265   2.104   8.075
12335WAT     H237248   4.208   2.017   7.950
12336WAT      O37249   7.963   1.908   0.514
12336WAT     H137250   7.946   1.976   0.586
12336WAT     H237251   7.941   1.948   0.425
12337WAT      O37252   3.073   6.022   2.790
12337WAT     H137253   3.103   5.976   2.873
12337WAT     H237254   2.973   6.029   2.790
12338WAT      O37255   7.444   8.873   2.229
12338WAT     H137256   7.444   8.796   2.165
12338WAT     H237257   7.539   8.901   2.247
12339WAT      O37258   3.460   6.794   0.824
12339WAT     H137259   3.374   6.809   0.872
12339WAT     H237260   3.478   6.696   0.818
12340WAT      O37261   0.176   8.351   5.456
12340WAT     H137262   0.093   8.295   5.468
12340WAT     H237263   0.249   8.314   5.513
12341WAT      O37264   6.670   3.717   5.870
12341WAT     H137265   6.724   3.668   5.802
12341WAT     H237266   6.726   3.732   5.952
12342WAT      O37267   3.522   6.747   7.664
12342WAT     H137268   3.506   6.685   7.586
12342WAT     H237269   3.617   6.777   7.663
12343WAT      O37270   9.857   9.100   9.808
12343WAT     H137271   9.943   9.061   9.841
12343WAT     H237272   9.870   9.137   9.716
12344WAT      O37273   9.250   4.992   3.390
12344WAT     H137274   9.320   5.053   3.354
12344WAT     H237275   9.160   5.020   3.355
12345WAT      O37276   7.229   1.045   0.033
12345WAT     H137277   7.180   1.020  -0.051
12345WAT     H237278   7.165   1.044   0.110
12346WAT      O37279   9.592   6.773   8.949
12346WAT     H137280   9.513   6.779   9.009
12346WAT     H237281   9.640   6.687   8.966
12347WAT      O37282   9.009   0.318   6.008
12347WAT     H137283   9.100   0.277   6.005
12347WAT     H237284   8.942   0.255   5.969
12348WAT      O37285   2.912   1.699   6.028
12348WAT     H137286   2.907   1.777   5.966
12348WAT     H237287   2.981   1.715   6.098
12349WAT      O37288   5.490   2.392   8.738
12349WAT     H137289   5.557   2.351   8.677
12349WAT     H237290   5.451   2.322   8.798
12350WAT      O37291   7.923   6.906   9.478
12350WAT     H137292   7.971   6.873   9.397
12350WAT     H237293   7.986   6.908   9.555
12351WAT      O37294   5.244   0.932   6.494
12351WAT     H137295   5.311   0.949   6.566
12351WAT     H237296   5.160   0.896   6.534
12352WAT      O37297   6.990   8.955   2.734
12352WAT     H137298   7.084   8.963   2.767
12352WAT     H237299   6.988   8.900   2.651
12353WAT      O37300   8.256   4.170   8.024
12353WAT     H137301   8.283   4.217   8.108
12353WAT     H237302   8.167   4.128   8.036
12354WAT      O37303   1.224   5.052   0.517
12354WAT     H137304   1.128   5.076   0.505
12354WAT     H237305   1.250   4.982   0.451
12355WAT      O37306   3.027   8.825   0.381
12355WAT     H137307   2.961   8.827   0.456
12355WAT     H237308   2.978   8.825   0.293
12356WAT      O37309   1.527   8.746   2.858
12356WAT     H137310   1.474   8.831   2.864
12356WAT     H237311   1.553   8.717   2.950
12357WAT      O37312   3.631   6.558   1.706
12357WAT     H137313   3.590   6.631   1.760
12357WAT     H237314   3.613   6.574   1.609
12358WAT      O37315   5.260   5.710   8.737
12358WAT     H137316   5.332   5.696   8.805
12358WAT     H237317   5.296   5.693   8.646
12359WAT      O37318   8.841   9.701   6.533
12359WAT     H137319   8.930   9.655   6.522
12359WAT     H237320   8.776   9.638   6.576
12360WAT      O37321   7.593   9.731   7.907
12360WAT     H137322   7.557   9.822   7.930
12360WAT     H237323   7.692   9.736   7.894
12361WAT      O37324   7.057   5.394   6.107
12361WAT     H137325   6.974   5.395   6.162
12361WAT     H237326   7.082   5.488   6.082
12362WAT      O37327   1.914   2.207   6.084
12362WAT     H137328   1.831   2.227   6.136
12362WAT     H237329   1.965   2.292   6.070
12363WAT      O37330   5.549   2.200   7.314
12363WAT     H137331   5.562   2.170   7.220
12363WAT     H237332   5.453   2.226   7.327
12364WAT      O37333   0.196   1.340   0.577
12364WAT     H137334   0.134   1.418   0.584
12364WAT     H237335   0.267   1.347   0.647
12365WAT      O37336   3.416   6.351   1.895
12365WAT     H137337   3.380   6.381   1.807
12365WAT     H237338   3.511   6.320   1.883
12366WAT      O37339   7.828   1.339   8.528
12366WAT     H137340   7.844   1.433   8.558
12366WAT     H237341   7.839   1.333   8.429
12367WAT      O37342   0.125   8.618   3.437
12367WAT     H137343   0.057   8.689   3.417
12367WAT     H237344   0.125   8.599   3.535
12368WAT      O37345   0.859   8.605   9.823
12368WAT     H137346   0.808   8.612   9.909
12368WAT     H237347   0.957   8.605   9.843
12369WAT      O37348   0.429   3.995   7.592
12369WAT     H137349   0.432   3.966   7.496
12369WAT     H237350   0.481   3.931   7.648
12370WAT      O37351   9.334   7.422   7.072
12370WAT     H137352   9.299   7.514   7.052
12370WAT     H237353   9.388   7.389   6.994
12371WAT      O37354   8.199   8.584   5.313
12371WAT     H137355   8.181   8.643   5.234
12371WAT     H237356   8.114   8.542   5.343
12372WAT      O37357   6.110   9.216   9.512
12372WAT     H137358   6.111   9.192   9.415
12372WAT     H237359   6.066   9.305   9.523
12373WAT      O37360   3.464   1.964   7.397
12373WAT     H137361   3.486   1.883   7.452
12373WAT     H237362   3.373   1.997   7.422
12374WAT      O37363   7.940   8.569   7.076
12374WAT     H137364   7.953   8.507   6.998
12374WAT     H237365   7.858   8.625   7.060
12375WAT      O37366   6.482   5.116   3.548
12375WAT     H137367   6.570   5.164   3.548
12375WAT     H237368   6.448   5.110   3.642
12376WAT      O37369   6.428   4.022   1.778
12376WAT     H137370   6.382   3.939   1.749
12376WAT     H237371   6.475   4.006   1.865
12377WAT      O37372   6.237   0.635   6.697
12377WAT     H137373   6.307   0.685   6.748
12377WAT     H237374   6.250   0.537   6.709
12378WAT      O37375   4.537   7.892   9.258
12378WAT     H137376   4.568   7.797   9.257
12378WAT     H237377   4.470   7.907   9.186
12379WAT      O37378   5.551   5.977   9.703
12379WAT     H137379   5.499   6.023   9.630
12379WAT     H237380   5.522   5.881   9.709
12380WAT      O37381   0.165   9.293   7.802
12380WAT     H137382   0.150   9.380   7.850
12380WAT     H237383   0.117   9.295   7.715
12381WAT      O37384   3.432   1.034   0.693
12381WAT     H137385   3.362   1.101   0.718
12381WAT     H237386   3.515   1.051   0.745
12382WAT      O37387   8.742   8.563   7.983
12382WAT     H137388   8.787   8.475   8.000
12382WAT     H237389   8.710   8.566   7.889
12383WAT      O37390   8.377   6.284   5.708
12383WAT     H137391   8.357   6.282   5.806
12383WAT     H237392   8.470   6.251   5.693
12384WAT      O37393   3.049   5.194   4.192
12384WAT     H137394   3.129   5.175   4.135
12384WAT     H237395   2.969   5.209   4.134
12385WAT      O37396   0.037   7.753   3.430
12385WAT     H137397   0.095   7.674   3.414
12385WAT     H237398   0.093   7.831   3.458
12386WAT      O37399   1.524   6.907   1.975
12386WAT     H137400   1.541   6.917   2.074
12386WAT     H237401   1.611   6.893   1.928
12387WAT      O37402   2.684   0.807   5.362
12387WAT     H137403   2.621   0.777   5.290
12387WAT     H237404   2.700   0.732   5.426
12388WAT      O37405   7.504   5.899   6.308
12388WAT     H137406   7.522   5.827   6.375
12388WAT     H237407   7.438   5.866   6.240
12389WAT      O37408   3.802   3.715   5.538
12389WAT     H137409   3.892   3.714   5.493
12389WAT     H237410   3.736   3.665   5.482
12390WAT      O37411   8.436   5.450   5.099
12390WAT     H137412   8.501   5.408   5.036
12390WAT     H237413   8.343   5.425   5.073
12391WAT      O37414   4.809   4.061   9.422
12391WAT     H137415   4.829   4.129   9.351
12391WAT     H237416   4.785   3.974   9.379
12392WAT      O37417   1.482   9.079   4.097
12392WAT     H137418   1.451   9.037   4.011
12392WAT     H237419   1.407   9.134   4.135
12393WAT      O37420   8.470   4.131   0.482
12393WAT     H137421   8.391   4.131   0.422
12393WAT     H237422   8.516   4.220   0.477
12394WAT      O37423   4.996   3.504   9.796
12394WAT     H137424   5.043   3.491   9.884
12394WAT     H237425   4.898   3.515   9.813
12395WAT      O37426   7.522   6.329   6.279
12395WAT     H137427   7.618   6.316   6.305
12395WAT     H237428   7.514   6.328   6.180
12396WAT      O37429   8.803   9.382   7.174
12396WAT     H137430   8.784   9.480   7.171
12396WAT     H237431   8.726   9.334   7.215
12397WAT      O37432   8.729   5.989   2.188
12397WAT     H137433   8.788   5.915   2.218
12397WAT     H237434   8.713   5.981   2.089
12398WAT      O37435   7.725   2.842   3.559
12398WAT     H137436   7.645   2.877   3.607
12398WAT     H237437   7.714   2.858   3.460
12399WAT      O37438   6.942   6.740   8.715
12399WAT     H137439   6.966   6.816   8.655
12399WAT     H237440   6.985   6.754   8.804
12400WAT      O37441   1.670   6.310   6.534
12400WAT     H137442   1.718   6.358   6.460
12400WAT     H237443   1.650   6.375   6.608
12401WAT      O37444   1.061   3.688   2.913
12401WAT     H137445   1.055   3.700   2.814
12401WAT     H237446   1.072   3.777   2.957
12402WAT      O37447   5.447   5.343   0.008
12402WAT     H137448   5.385   5.300  -0.057
12402WAT     H237449   5.399   5.418   0.054
12403WAT      O37450   6.859   9.066   5.299
12403WAT     H137451   6.919   9.004   5.351
12403WAT     H237452   6.874   9.160   5.330
12404WAT      O37453   8.553  -0.001   9.726
12404WAT     H137454   8.529  -0.054   9.645
12404WAT     H237455   8.592   0.087   9.698
12405WAT      O37456   5.294   8.799   9.715
12405WAT     H137457   5.362   8.781   9.786
12405WAT     H237458   5.336   8.851   9.640
12406WAT      O37459   0.777   9.286   5.894
12406WAT     H137460   0.779   9.262   5.797
12406WAT     H237461   0.810   9.208   5.948
12407WAT      O37462   7.468   7.278   8.983
12407WAT     H137463   7.487   7.300   8.887
12407WAT     H237464   7.422   7.189   8.989
12408WAT      O37465   4.520   8.862   7.804
12408WAT     H137466   4.550   8.840   7.897
12408WAT     H237467   4.427   8.828   7.790
12409WAT      O37468   1.588   3.021   2.173
12409WAT     H137469   1.681   3.020   2.209
12409WAT     H237470   1.591   3.035   2.074
12410WAT      O37471   5.773   6.863   5.882
12410WAT     H137472   5.688   6.813   5.865
12410WAT     H237473   5.847   6.799   5.901
12411WAT      O37474   7.068   7.140   8.047
12411WAT     H137475   7.067   7.171   8.142
12411WAT     H237476   6.975   7.143   8.010
12412WAT      O37477   7.817   3.244   6.229
12412WAT     H137478   7.757   3.226   6.307
12412WAT     H237479   7.785   3.193   6.150
12413WAT      O37480   6.624   4.904   3.434
12413WAT     H137481   6.607   4.937   3.341
12413WAT     H237482   6.569   4.957   3.498
12414WAT      O37483   9.199   7.308   2.969
12414WAT     H137484   9.271   7.367   3.006
12414WAT     H237485   9.126   7.365   2.931
12415WAT      O37486   7.631   7.431   0.842
12415WAT     H137487   7.669   7.417   0.750
12415WAT     H237488   7.678   7.371   0.907
12416WAT      O37489   4.298   5.535   6.562
12416WAT     H137490   4.358   5.577   6.631
12416WAT     H237491   4.349   5.525   6.476
12417WAT      O37492   8.986   9.019   1.587
12417WAT     H137493   9.055   9.092   1.590
12417WAT     H237494   8.988   8.968   1.673
12418WAT      O37495   5.442   7.296   7.277
12418WAT     H137496   5.495   7.305   7.361
12418WAT     H237497   5.376   7.371   7.271
12419WAT      O37498   1.522   2.115   5.091
12419WAT     H137499   1.450   2.052   5.122
12419WAT     H237500   1.570   2.151   5.171
12420WAT      O37501   3.591   1.658   1.808
12420WAT     H137502   3.508   1.707   1.834
12420WAT     H237503   3.622   1.690   1.718
12421WAT      O37504   8.010   2.615   5.410
12421WAT     H137505   8.092   2.587   5.460
12421WAT     H237506   8.002   2.560   5.326
12422WAT      O37507   1.227   0.639   7.074
12422WAT     H137508   1.203   0.678   7.162
12422WAT     H237509   1.325   0.651   7.057
12423WAT      O37510   7.663   9.101   1.742
12423WAT     H137511   7.709   9.087   1.655
12423WAT     H237512   7.719   9.160   1.801
12424WAT      O37513   6.106   6.284   1.127
12424WAT     H137514   6.012   6.305   1.098
12424WAT     H237515   6.113   6.186   1.148
12425WAT      O37516   4.844   1.246   3.485
12425WAT     H137517   4.789   1.163   3.492
12425WAT     H237518   4.895   1.259   3.570
12426WAT      O37519   3.071   2.435   1.036
12426WAT     H137520   3.068   2.485   0.950
12426WAT     H237521   3.115   2.490   1.106
12427WAT      O37522   6.803   2.441   0.618
12427WAT     H137523   6.704   2.446   0.607
12427WAT     H237524   6.841   2.380   0.549
12428WAT      O37525   8.742   2.295   0.833
12428WAT     H137526   8.703   2.313   0.923
12428WAT     H237527   8.750   2.197   0.818
12429WAT      O37528   8.185   8.828   7.415
12429WAT     H137529   8.189   8.882   7.499
12429WAT     H237530   8.267   8.770   7.409
12430WAT      O37531   6.564   3.857   3.084
12430WAT     H137532   6.503   3.921   3.037
12430WAT     H237533   6.583   3.891   3.176
12431WAT      O37534   7.597   8.335   3.305
12431WAT     H137535   7.691   8.370   3.299
12431WAT     H237536   7.599   8.241   3.337
12432WAT      O37537   5.281   5.021   2.913
12432WAT     H137538   5.247   5.108   2.950
12432WAT     H237539   5.206   4.955   2.909
12433WAT      O37540   1.087   8.584   4.677
12433WAT     H137541   1.157   8.604   4.609
12433WAT     H237542   1.120   8.609   4.768
12434WAT      O37543   0.281   7.466   5.956
12434WAT     H137544   0.351   7.402   5.926
12434WAT     H237545   0.317   7.559   5.952
12435WAT      O37546   8.829   7.957   2.756
12435WAT     H137547   8.796   7.993   2.844
12435WAT     H237548   8.882   8.028   2.710
12436WAT      O37549   0.980   3.421   8.625
12436WAT     H137550   1.067   3.409   8.673
12436WAT     H237551   0.959   3.339   8.572
12437WAT      O37552   0.697   2.120   8.040
12437WAT     H137553   0.659   2.096   7.950
12437WAT     H237554   0.737   2.211   8.036
12438WAT      O37555   1.613   5.968   2.098
12438WAT     H137556   1.594   5.986   2.195
12438WAT     H237557   1.585   6.047   2.044
12439WAT      O37558   0.761   2.489   4.932
12439WAT     H137559   0.802   2.580   4.948
12439WAT     H237560   0.662   2.496   4.936
12440WAT      O37561   1.286   2.645   1.765
12440WAT     H137562   1.196   2.635   1.725
12440WAT     H237563   1.328   2.730   1.732
12441WAT      O37564   9.787   4.546   3.918
12441WAT     H137565   9.824   4.453   3.916
12441WAT     H237566   9.722   4.558   3.843
12442WAT      O37567   3.536   9.650   0.762
12442WAT     H137568   3.455   9.697   0.797
12442WAT     H237569   3.517   9.552   0.755
12443WAT      O37570   1.561   6.194   9.834
12443WAT     H137571   1.637   6.222   9.891
12443WAT     H237572   1.579   6.102   9.799
12444WAT      O37573   6.748   5.388   2.675
12444WAT     H137574   6.677   5.392   2.745
12444WAT     H237575   6.829   5.342   2.713
12445WAT      O37576   3.325   7.744   6.330
12445WAT     H137577   3.330   7.830   6.280
12445WAT     H237578   3.384   7.677   6.286
12446WAT      O37579   6.757   2.689   0.794
12446WAT     H137580   6.674   2.740   0.773
12446WAT     H237581   6.793   2.648   0.710
12447WAT      O37582   6.671   1.771   6.998
12447WAT     H137583   6.726   1.805   7.074
12447WAT     H237584   6.728   1.716   6.937
12448WAT      O37585   6.191   9.263   6.388
12448WAT     H137586   6.097   9.266   6.354
12448WAT     H237587   6.196   9.310   6.476
12449WAT      O37588   4.602   0.040   3.811
12449WAT     H137589   4.548   0.118   3.839
12449WAT     H237590   4.542  -0.038   3.793
12450WAT      O37591   3.705   8.898   5.942
12450WAT     H137592   3.755   8.938   5.865
12450WAT     H237593   3.674   8.971   6.003
12451WAT      O37594   1.711   9.701   8.516
12451WAT     H137595   1.751   9.766   8.581
12451WAT     H237596   1.611   9.702   8.525
12452WAT      O37597   3.010   5.942   5.888
12452WAT     H137598   3.097   5.981   5.919
12452WAT     H237599   3.028   5.873   5.817
12453WAT      O37600   5.911   9.554   2.173
12453WAT     H137601   5.929   9.536   2.269
12453WAT     H237602   5.816   9.529   2.152
12454WAT      O37603   8.675   2.355   6.170
12454WAT     H137604   8.636   2.274   6.213
12454WAT     H237605   8.655   2.354   6.072
12455WAT      O37606   8.793   2.959   6.315
12455WAT     H137607   8.870   2.896   6.322
12455WAT     H237608   8.727   2.924   6.248
12456WAT      O37609   6.738   8.970   3.088
12456WAT     H137610   6.716   9.051   3.143
12456WAT     H237611   6.760   8.998   2.995
12457WAT      O37612   4.081   8.452   6.259
12457WAT     H137613   4.058   8.519   6.330
12457WAT     H237614   4.145   8.384   6.296
12458WAT      O37615   4.644   4.796   7.614
12458WAT     H137616   4.633   4.741   7.531
12458WAT     H237617   4.554   4.826   7.646
12459WAT      O37618   6.673   4.077   2.626
12459WAT     H137619   6.718   4.060   2.714
12459WAT     H237620   6.610   4.002   2.606
12460WAT      O37621   1.353   3.327   8.405
12460WAT     H137622   1.445   3.343   8.371
12460WAT     H237623   1.289   3.387   8.357
12461WAT      O37624   8.789   7.984   4.118
12461WAT     H137625   8.838   7.896   4.112
12461WAT     H237626   8.803   8.035   4.033
12462WAT      O37627   0.551   7.100   8.406
12462WAT     H137628   0.573   7.006   8.433
12462WAT     H237629   0.471   7.099   8.346
12463WAT      O37630   2.007   8.620   0.261
12463WAT     H137631   2.045   8.707   0.229
12463WAT     H237632   2.002   8.556   0.184
12464WAT      O37633   1.701   4.121   5.741
12464WAT     H137634   1.693   4.219   5.762
12464WAT     H237635   1.646   4.100   5.661
12465WAT      O37636   7.936   5.627   7.592
12465WAT     H137637   7.984   5.709   7.622
12465WAT     H237638   7.989   5.546   7.617
12466WAT      O37639   2.104   1.270   0.829
12466WAT     H137640   2.123   1.256   0.926
12466WAT     H237641   2.083   1.182   0.786
12467WAT      O37642   0.879   1.121   0.188
12467WAT     H137643   0.795   1.147   0.139
12467WAT     H237644   0.951   1.101   0.121
12468WAT      O37645   2.641   9.805   2.625
12468WAT     H137646   2.659   9.865   2.547
12468WAT     H237647   2.563   9.746   2.604
12469WAT      O37648   2.147   7.208   4.350
12469WAT     H137649   2.133   7.241   4.257
12469WAT     H237650   2.064   7.162   4.382
12470WAT      O37651   2.965   5.812   2.137
12470WAT     H137652   2.963   5.873   2.216
12470WAT     H237653   2.872   5.777   2.121
12471WAT      O37654   0.419   4.235   2.653
12471WAT     H137655   0.325   4.212   2.675
12471WAT     H237656   0.481   4.166   2.691
12472WAT      O37657   0.454   1.852   5.623
12472WAT     H137658   0.389   1.827   5.552
12472WAT     H237659   0.481   1.948   5.612
12473WAT      O37660   8.652   2.125   8.679
12473WAT     H137661   8.727   2.063   8.658
12473WAT     H237662   8.575   2.108   8.617
12474WAT      O37663   0.438   9.358   8.899
12474WAT     H137664   0.350   9.320   8.928
12474WAT     H237665   0.465   9.430   8.963
12475WAT      O37666   5.171   0.025   2.539
12475WAT     H137667   5.122   0.098   2.586
12475WAT     H237668   5.266   0.022   2.571
12476WAT      O37669   8.190   3.110   8.224
12476WAT     H137670   8.263   3.126   8.291
12476WAT     H237671   8.108   3.078   8.271
12477WAT      O37672   7.628   0.821   4.774
12477WAT     H137673   7.581   0.784   4.695
12477WAT     H237674   7.629   0.753   4.847
12478WAT      O37675   4.322   4.024   4.875
12478WAT     H137676   4.293   3.931   4.850
12478WAT     H237677   4.370   4.022   4.963
12479WAT      O37678   7.214   8.770   1.408
12479WAT     H137679   7.250   8.677   1.415
12479WAT     H237680   7.190   8.804   1.499
12480WAT      O37681   4.214   7.739   5.939
12480WAT     H137682   4.180   7.673   5.872
12480WAT     H237683   4.309   7.717   5.962
12481WAT      O37684   0.810   0.370   4.493
12481WAT     H137685   0.756   0.397   4.573
12481WAT     H237686   0.826   0.450   4.435
12482WAT      O37687   4.468   1.141   6.493
12482WAT     H137688   4.402   1.084   6.543
12482WAT     H237689   4.429   1.232   6.479
12483WAT      O37690   4.844   7.270   3.082
12483WAT     H137691   4.847   7.363   3.043
12483WAT     H237692   4.828   7.204   3.008
12484WAT      O37693   7.511   8.440   1.276
12484WAT     H137694   7.437   8.480   1.330
12484WAT     H237695   7.499   8.466   1.180
12485WAT      O37696   0.281   0.564   7.832
12485WAT     H137697   0.235   0.485   7.791
12485WAT     H237698   0.292   0.636   7.764
12486WAT      O37699   0.732   5.464   1.769
12486WAT     H137700   0.657   5.403   1.744
12486WAT     H237701   0.696   5.545   1.814
12487WAT      O37702   7.971   2.110   2.944
12487WAT     H137703   7.914   2.118   2.862
12487WAT     H237704   8.030   2.191   2.951
12488WAT      O37705   8.659   9.018   2.758
12488WAT     H137706   8.573   8.993   2.712
12488WAT     H237707   8.667   8.966   2.843
12489WAT      O37708   9.303   1.135   9.120
12489WAT     H137709   9.400   1.130   9.143
12489WAT     H237710   9.266   1.042   9.110
12490WAT      O37711   8.626   4.825   7.134
12490WAT     H137712   8.532   4.826   7.169
12490WAT     H237713   8.630   4.769   7.051
12491WAT      O37714   9.266   5.994   6.988
12491WAT     H137715   9.265   6.024   7.083
12491WAT     H237716   9.343   6.037   6.941
12492WAT      O37717   2.115   3.307   7.559
12492WAT     H137718   2.138   3.355   7.474
12492WAT     H237719   2.111   3.209   7.540
12493WAT      O37720   1.071   3.216   1.260
12493WAT     H137721   1.077   3.271   1.343
12493WAT     H237722   0.979   3.221   1.222
12494WAT      O37723   8.841   7.744   1.671
12494WAT     H137724   8.914   7.796   1.626
12494WAT     H237725   8.765   7.730   1.607
12495WAT      O37726   7.112   7.504   4.435
12495WAT     H137727   7.190   7.509   4.373
12495WAT     H237728   7.049   7.432   4.404
12496WAT      O37729   3.346   8.303   4.715
12496WAT     H137730   3.257   8.260   4.720
12496WAT     H237731   3.347   8.385   4.773
12497WAT      O37732   0.222   5.081   7.129
12497WAT     H137733   0.180   5.157   7.079
12497WAT     H237734   0.322   5.088   7.122
12498WAT      O37735   7.852   2.166   5.946
12498WAT     H137736   7.937   2.170   5.895
12498WAT     H237737   7.860   2.098   6.019
12499WAT      O37738   7.356   0.343   2.274
12499WAT     H137739   7.317   0.298   2.355
12499WAT     H237740   7.283   0.390   2.224
12500WAT      O37741   3.276   3.721   1.811
12500WAT     H137742   3.262   3.735   1.713
12500WAT     H237743   3.310   3.628   1.826
12501WAT      O37744   6.450   4.291   9.392
12501WAT     H137745   6.413   4.243   9.471
12501WAT     H237746   6.526   4.349   9.422
12502WAT      O37747   9.391   9.726   7.841
12502WAT     H137748   9.303   9.683   7.826
12502WAT     H237749   9.449   9.667   7.898
12503WAT      O37750   5.437   2.870   8.696
12503WAT     H137751   5.412   2.937   8.626
12503WAT     H237752   5.528   2.833   8.675
12504WAT      O37753   4.181   5.956   2.833
12504WAT     H137754   4.219   6.025   2.895
12504WAT     H237755   4.100   5.915   2.874
12505WAT      O37756   3.304   4.450   2.513
12505WAT     H137757   3.352   4.519   2.460
12505WAT     H237758   3.207   4.475   2.522
12506WAT      O37759   0.588   6.743   8.011
12506WAT     H137760   0.544   6.675   7.953
12506WAT     H237761   0.614   6.823   7.957
12507WAT      O37762   5.101   0.066   4.701
12507WAT     H137763   5.068   0.152   4.739
12507WAT     H237764   5.151   0.015   4.771
12508WAT      O37765   5.532   5.074   8.617
12508WAT     H137766   5.625   5.106   8.637
12508WAT     H237767   5.509   5.094   8.522
12509WAT      O37768   9.053   9.576   8.502
12509WAT     H137769   9.058   9.533   8.592
12509WAT     H237770   8.968   9.549   8.457
12510WAT      O37771   8.761   0.021   8.438
12510WAT     H137772   8.794   0.090   8.374
12510WAT     H237773   8.745  -0.065   8.389
12511WAT      O37774   6.631   3.924   8.585
12511WAT     H137775   6.578   3.847   8.619
12511WAT     H237776   6.609   4.006   8.638
12512WAT      O37777   1.058   5.159   6.416
12512WAT     H137778   1.050   5.257   6.436
12512WAT     H237779   1.047   5.107   6.500
12513WAT      O37780   1.050   0.196   5.466
12513WAT     H137781   1.053   0.097   5.483
12513WAT     H237782   0.963   0.219   5.422
12514WAT      O37783   3.052   4.380   5.476
12514WAT     H137784   3.071   4.412   5.569
12514WAT     H237785   3.086   4.287   5.465
12515WAT      O37786   8.679   0.434   6.125
12515WAT     H137787   8.672   0.358   6.189
12515WAT     H237788   8.630   0.413   6.041
12516WAT      O37789   4.463   2.845   1.908
12516WAT     H137790   4.458   2.828   1.809
12516WAT     H237791   4.528   2.780   1.949
12517WAT      O37792   7.505   8.143   6.021
12517WAT     H137793   7.462   8.214   6.077
12517WAT     H237794   7.434   8.084   5.982
12518WAT      O37795   8.489   9.781   2.840
12518WAT     H137796   8.418   9.751   2.777
12518WAT     H237797   8.495   9.716   2.916
12519WAT      O37798   7.810   1.707   4.758
12519WAT     H137799   7.777   1.630   4.812
12519WAT     H237800   7.860   1.771   4.817
12520WAT      O37801   0.669   2.706   2.061
12520WAT     H137802   0.570   2.707   2.072
12520WAT     H237803   0.709   2.644   2.129
12521WAT      O37804   9.361   9.303   0.100
12521WAT     H137805   9.437   9.368   0.099
12521WAT     H237806   9.396   9.210   0.098
12522WAT      O37807   9.406   5.437   3.132
12522WAT     H137808   9.429   5.481   3.044
12522WAT     H237809   9.396   5.507   3.202
12523WAT      O37810   8.879   9.092   7.887
12523WAT     H137811   8.970   9.122   7.857
12523WAT     H237812   8.809   9.133   7.828
12524WAT      O37813   1.819   6.573   6.964
12524WAT     H137814   1.756   6.650   6.958
12524WAT     H237815   1.911   6.607   6.987
12525WAT      O37816   7.186   1.570   0.539
12525WAT     H137817   7.257   1.615   0.484
12525WAT     H237818   7.118   1.638   0.568
12526WAT      O37819   4.262   8.271   0.288
12526WAT     H137820   4.316   8.274   0.203
12526WAT     H237821   4.323   8.280   0.366
12527WAT      O37822   9.778   1.822   2.035
12527WAT     H137823   9.697   1.839   1.979
12527WAT     H237824   9.757   1.755   2.106
12528WAT      O37825   0.992   7.802   0.118
12528WAT     H137826   1.069   7.769   0.064
12528WAT     H237827   1.001   7.901   0.133
12529WAT      O37828   6.210   9.740   3.750
12529WAT     H137829   6.297   9.724   3.703
12529WAT     H237830   6.222   9.727   3.848
12530WAT      O37831   7.197   5.401   3.956
12530WAT     H137832   7.163   5.479   3.905
12530WAT     H237833   7.277   5.428   4.010
12531WAT      O37834   1.386   0.781   7.871
12531WAT     H137835   1.358   0.691   7.904
12531WAT     H237836   1.466   0.772   7.812
12532WAT      O37837   3.752   7.122   2.411
12532WAT     H137838   3.795   7.187   2.474
12532WAT     H237839   3.686   7.169   2.354
12533WAT      O37840   5.517   5.377   8.547
12533WAT     H137841   5.503   5.395   8.449
12533WAT     H237842   5.615   5.367   8.565
12534WAT      O37843   5.628   4.585   4.553
12534WAT     H137844   5.664   4.658   4.612
12534WAT     H237845   5.674   4.589   4.464
12535WAT      O37846   1.998   6.046   6.455
12535WAT     H137847   2.005   5.964   6.512
12535WAT     H237848   1.978   6.019   6.360
12536WAT      O37849   8.033   3.746   2.183
12536WAT     H137850   8.115   3.781   2.139
12536WAT     H237851   8.024   3.787   2.274
12537WAT      O37852   5.194   2.078   4.502
12537WAT     H137853   5.194   2.017   4.581
12537WAT     H237854   5.144   2.162   4.525
12538WAT      O37855   0.251   1.133   7.562
12538WAT     H137856   0.196   1.215   7.549
12538WAT     H237857   0.207   1.056   7.516
12539WAT      O37858   9.864   0.022   5.384
12539WAT     H137859   9.927  -0.055   5.393
12539WAT     H237860   9.844   0.060   5.474
12540WAT      O37861   6.863   6.187   4.863
12540WAT     H137862   6.771   6.150   4.855
12540WAT     H237863   6.886   6.199   4.960
12541WAT      O37864   7.888   2.700   2.141
12541WAT     H137865   7.923   2.621   2.190
12541WAT     H237866   7.852   2.671   2.052
12542WAT      O37867   5.520   8.326   3.071
12542WAT     H137868   5.523   8.255   3.001
12542WAT     H237869   5.614   8.354   3.093
12543WAT      O37870   3.645   1.629   8.322
12543WAT     H137871   3.649   1.632   8.421
12543WAT     H237872   3.554   1.657   8.291
12544WAT      O37873   5.149   2.153   0.726
12544WAT     H137874   5.151   2.071   0.669
12544WAT     H237875   5.060   2.159   0.773
12545WAT      O37876   4.606   8.603   7.797
12545WAT     H137877   4.576   8.514   7.763
12545WAT     H237878   4.551   8.675   7.755
12546WAT      O37879   0.978   3.547   7.583
12546WAT     H137880   1.071   3.545   7.547
12546WAT     H237881   0.937   3.456   7.577
12547WAT      O37882   4.429   6.482   3.315
12547WAT     H137883   4.487   6.555   3.278
12547WAT     H237884   4.472   6.443   3.396
12548WAT      O37885   0.659   4.941   9.379
12548WAT     H137886   0.679   5.022   9.433
12548WAT     H237887   0.560   4.930   9.368
12549WAT      O37888   9.589   0.106   3.440
12549WAT     H137889   9.544   0.043   3.377
12549WAT     H237890   9.681   0.127   3.407
12550WAT      O37891   4.836   1.463   2.293
12550WAT     H137892   4.780   1.511   2.360
12550WAT     H237893   4.797   1.473   2.202
12551WAT      O37894   6.004   2.928   3.843
12551WAT     H137895   6.010   2.836   3.882
12551WAT     H237896   6.061   2.934   3.762
12552WAT      O37897   5.311   1.283   6.892
12552WAT     H137898   5.258   1.199   6.878
12552WAT     H237899   5.373   1.297   6.815
12553WAT      O37900   4.300   7.794   3.205
12553WAT     H137901   4.264   7.705   3.234
12553WAT     H237902   4.352   7.783   3.120
12554WAT      O37903   5.717   1.894   1.263
12554WAT     H137904   5.759   1.821   1.208
12554WAT     H237905   5.683   1.856   1.349
12555WAT      O37906   5.671   0.666   9.569
12555WAT     H137907   5.681   0.636   9.664
12555WAT     H237908   5.596   0.615   9.526
12556WAT      O37909   9.817   1.095   1.435
12556WAT     H137910   9.901   1.083   1.382
12556WAT     H237911   9.738   1.066   1.380
12557WAT      O37912   1.214   1.605   2.760
12557WAT     H137913   1.135   1.558   2.799
12557WAT     H237914   1.294   1.545   2.763
12558WAT      O37915   6.131   1.161   9.631
12558WAT     H137916   6.105   1.101   9.555
12558WAT     H237917   6.059   1.229   9.647
12559WAT      O37918   6.591   8.433   4.957
12559WAT     H137919   6.578   8.500   5.030
12559WAT     H237920   6.675   8.454   4.907
12560WAT      O37921   1.460   1.215   7.548
12560WAT     H137922   1.528   1.180   7.612
12560WAT     H237923   1.504   1.238   7.461
12561WAT      O37924   5.360   9.041   2.441
12561WAT     H137925   5.401   8.950   2.431
12561WAT     H237926   5.370   9.071   2.536
12562WAT      O37927   7.628   2.807   0.432
12562WAT     H137928   7.643   2.906   0.434
12562WAT     H237929   7.535   2.787   0.462
12563WAT      O37930   2.670   5.404   3.226
12563WAT     H137931   2.636   5.316   3.259
12563WAT     H237932   2.663   5.472   3.299
12564WAT      O37933   6.419   5.973   1.251
12564WAT     H137934   6.469   6.060   1.251
12564WAT     H237935   6.355   5.971   1.328
12565WAT      O37936   5.313   2.222   0.381
12565WAT     H137937   5.218   2.214   0.352
12565WAT     H237938   5.349   2.131   0.403
12566WAT      O37939   5.608   4.159   4.920
12566WAT     H137940   5.569   4.070   4.944
12566WAT     H237941   5.614   4.216   5.002
12567WAT      O37942   2.412   9.316   2.030
12567WAT     H137943   2.325   9.359   2.007
12567WAT     H237944   2.477   9.331   1.955
12568WAT      O37945   3.119   2.939   4.437
12568WAT     H137946   3.106   3.031   4.475
12568WAT     H237947   3.099   2.871   4.508
12569WAT      O37948   5.413   0.555   6.285
12569WAT     H137949   5.395   0.582   6.190
12569WAT     H237950   5.468   0.472   6.286
12570WAT      O37951   5.784   5.015   3.926
12570WAT     H137952   5.729   5.075   3.867
12570WAT     H237953   5.797   4.927   3.881
12571WAT      O37954   7.544   1.305   8.556
12571WAT     H137955   7.639   1.337   8.551
12571WAT     H237956   7.520   1.286   8.651
12572WAT      O37957   4.879   2.874   1.724
12572WAT     H137958   4.945   2.940   1.759
12572WAT     H237959   4.826   2.836   1.800
12573WAT      O37960   8.435   0.673   2.663
12573WAT     H137961   8.413   0.585   2.706
12573WAT     H237962   8.390   0.678   2.574
12574WAT      O37963   8.695   2.482   4.333
12574WAT     H137964   8.677   2.465   4.236
12574WAT     H237965   8.738   2.401   4.374
12575WAT      O37966   1.901   2.342   1.524
12575WAT     H137967   1.912   2.319   1.427
12575WAT     H237968   1.939   2.433   1.541
12576WAT      O37969   3.859   4.740   5.711
12576WAT     H137970   3.903   4.652   5.724
12576WAT     H237971   3.814   4.742   5.621
12577WAT      O37972   1.407   0.295   9.811
12577WAT     H137973   1.382   0.389   9.786
12577WAT     H237974   1.396   0.284   9.910
12578WAT      O37975   3.541   2.504   2.136
12578WAT     H137976   3.463   2.452   2.170
12578WAT     H237977   3.536   2.598   2.170
12579WAT      O37978   6.708   6.422   8.170
12579WAT     H137979   6.669   6.349   8.226
12579WAT     H237980   6.708   6.393   8.074
12580WAT      O37981   2.059   8.065   6.887
12580WAT     H137982   2.061   8.147   6.944
12580WAT     H237983   2.112   7.992   6.931
12581WAT      O37984   3.040   2.716   6.622
12581WAT     H137985   2.962   2.763   6.582
12581WAT     H237986   3.124   2.748   6.578
12582WAT      O37987   3.101   8.121   3.899
12582WAT     H137988   3.026   8.188   3.899
12582WAT     H237989   3.126   8.099   3.994
12583WAT      O37990   8.693   3.796   4.554
12583WAT     H137991   8.690   3.733   4.476
12583WAT     H237992   8.604   3.840   4.564
12584WAT      O37993   5.705   9.332   2.396
12584WAT     H137994   5.693   9.397   2.321
12584WAT     H237995   5.722   9.241   2.358
12585WAT      O37996   8.598   5.093   8.408
12585WAT     H137997   8.530   5.101   8.482
12585WAT     H237998   8.683   5.136   8.437
12586WAT      O37999   4.865   1.576   1.840
12586WAT     H138000   4.842   1.647   1.775
12586WAT     H238001   4.940   1.606   1.899
12587WAT      O38002   7.992   1.520   2.700
12587WAT     H138003   7.959   1.449   2.637
12587WAT     H238004   8.006   1.480   2.791
12588WAT      O38005   8.177   7.178   7.508
12588WAT     H138006   8.216   7.268   7.527
12588WAT     H238007   8.156   7.133   7.595
12589WAT      O38008   6.573   3.078   4.269
12589WAT     H138009   6.477   3.063   4.246
12589WAT     H238010   6.582   3.090   4.368
12590WAT      O38011   0.291   3.854   0.742
12590WAT     H138012   0.244   3.928   0.694
12590WAT     H238013   0.338   3.796   0.675
12591WAT      O38014   2.377   1.761   7.024
12591WAT     H138015   2.327   1.741   6.940
12591WAT     H238016   2.373   1.859   7.042
12592WAT      O38017   2.762   9.246   5.062
12592WAT     H138018   2.692   9.197   5.011
12592WAT     H238019   2.737   9.343   5.069
12593WAT      O38020   5.472   1.202   8.025
12593WAT     H138021   5.447   1.288   7.980
12593WAT     H238022   5.393   1.166   8.076
12594WAT      O38023   1.815   4.999   1.333
12594WAT     H138024   1.741   4.944   1.295
12594WAT     H238025   1.903   4.962   1.303
12595WAT      O38026   9.016   2.652   7.703
12595WAT     H138027   9.054   2.607   7.622
12595WAT     H238028   8.927   2.612   7.725
12596WAT      O38029   2.127   3.453   1.150
12596WAT     H138030   2.094   3.540   1.185
12596WAT     H238031   2.098   3.442   1.054
12597WAT      O38032   7.077   8.582   9.821
12597WAT     H138033   7.163   8.538   9.845
12597WAT     H238034   7.083   8.620   9.729
12598WAT      O38035   6.305   3.669   7.975
12598WAT     H138036   6.311   3.681   7.876
12598WAT     H238037   6.271   3.752   8.017
12599WAT      O38038   1.128   3.356   7.377
12599WAT     H138039   1.163   3.266   7.402
12599WAT     H238040   1.164   3.425   7.440
12600WAT      O38041   3.674   1.387   8.219
12600WAT     H138042   3.658   1.472   8.270
12600WAT     H238043   3.764   1.352   8.241
12601WAT      O38044   2.132   4.099   3.626
12601WAT     H138045   2.106   4.149   3.544
12601WAT     H238046   2.104   4.003   3.617
12602WAT      O38047   7.712   5.670   8.968
12602WAT     H138048   7.802   5.663   8.925
12602WAT     H238049   7.643   5.688   8.897
12603WAT      O38050   0.993   1.752   5.548
12603WAT     H138051   0.913   1.771   5.492
12603WAT     H238052   0.995   1.813   5.627
12604WAT      O38053   1.346   0.616   0.426
12604WAT     H138054   1.263   0.638   0.374
12604WAT     H238055   1.425   0.655   0.379
12605WAT      O38056   7.142   2.117   9.135
12605WAT     H138057   7.053   2.161   9.149
12605WAT     H238058   7.132   2.018   9.144
12606WAT      O38059   6.906   8.324   3.298
12606WAT     H138060   6.808   8.348   3.295
12606WAT     H238061   6.946   8.339   3.207
12607WAT      O38062   1.005   2.570  -0.003
12607WAT     H138063   1.080   2.545   0.059
12607WAT     H238064   0.918   2.561   0.044
12608WAT      O38065   0.534   3.605   1.135
12608WAT     H138066   0.603   3.637   1.199
12608WAT     H238067   0.575   3.593   1.045
12609WAT      O38068   4.683   4.036   0.775
12609WAT     H138069   4.645   4.092   0.701
12609WAT     H238070   4.666   4.081   0.863
12610WAT      O38071   1.541   6.329   8.468
12610WAT     H138072   1.463   6.350   8.527
12610WAT     H238073   1.624   6.371   8.504
12611WAT      O38074   5.514   8.229   0.514
12611WAT     H138075   5.565   8.149   0.484
12611WAT     H238076   5.433   8.199   0.565
12612WAT      O38077   5.386   4.501   3.272
12612WAT     H138078   5.413   4.500   3.368
12612WAT     H238079   5.316   4.432   3.256
12613WAT      O38080   3.489   2.944   3.699
12613WAT     H138081   3.572   2.946   3.642
12613WAT     H238082   3.483   3.027   3.753
12614WAT      O38083   7.471   4.805   5.502
12614WAT     H138084   7.505   4.896   5.476
12614WAT     H238085   7.373   4.811   5.521
12615WAT      O38086   0.053   9.176   4.760
12615WAT     H138087   0.046   9.189   4.661
12615WAT     H238088   0.072   9.264   4.803
12616WAT      O38089   0.401   9.474   9.171
12616WAT     H138090   0.407   9.406   9.244
12616WAT     H238091   0.482   9.532   9.172
12617WAT      O38092   3.661   7.428   9.466
12617WAT     H138093   3.619   7.350   9.420
12617WAT     H238094   3.590   7.492   9.495
12618WAT      O38095   4.278   5.243   1.554
12618WAT     H138096   4.282   5.143   1.565
12618WAT     H238097   4.328   5.286   1.629
12619WAT      O38098   0.950   8.228   2.033
12619WAT     H138099   1.034   8.183   2.001
12619WAT     H238100   0.906   8.170   2.101
12620WAT      O38101   3.096   8.475   8.390
12620WAT     H138102   3.062   8.419   8.465
12620WAT     H238103   3.038   8.556   8.379
12621WAT      O38104   4.767   4.049   2.027
12621WAT     H138105   4.860   4.027   2.059
12621WAT     H238106   4.723   3.965   1.995
12622WAT      O38107   1.291   6.926   0.067
12622WAT     H138108   1.302   6.999   0.134
12622WAT     H238109   1.194   6.905   0.057
12623WAT      O38110   2.672   6.700   9.546
12623WAT     H138111   2.765   6.729   9.524
12623WAT     H238112   2.606   6.759   9.499
12624WAT      O38113   8.630   3.940   7.909
12624WAT     H138114   8.720   3.918   7.946
12624WAT     H238115   8.562   3.937   7.983
12625WAT      O38116   1.810   4.539   8.962
12625WAT     H138117   1.712   4.550   8.946
12625WAT     H238118   1.837   4.445   8.940
12626WAT      O38119   7.127   0.292   0.177
12626WAT     H138120   7.103   0.212   0.231
12626WAT     H238121   7.052   0.313   0.114
12627WAT      O38122   1.696   7.762   2.477
12627WAT     H138123   1.715   7.669   2.505
12627WAT     H238124   1.599   7.770   2.453
12628WAT      O38125   9.558   5.478   0.575
12628WAT     H138126   9.575   5.417   0.653
12628WAT     H238127   9.599   5.439   0.493
12629WAT      O38128   3.754   5.867   2.107
12629WAT     H138129   3.655   5.871   2.095
12629WAT     H238130   3.784   5.772   2.102
12630WAT      O38131   7.641   7.113   3.482
12630WAT     H138132   7.665   7.017   3.471
12630WAT     H238133   7.641   7.158   3.392
12631WAT      O38134   6.429   1.625   6.729
12631WAT     H138135   6.470   1.709   6.694
12631WAT     H238136   6.362   1.591   6.663
12632WAT      O38137   0.101   4.710   4.466
12632WAT     H138138   0.001   4.715   4.465
12632WAT     H238139   0.133   4.683   4.375
12633WAT      O38140   4.899   9.539   3.006
12633WAT     H138141   4.829   9.596   2.963
12633WAT     H238142   4.913   9.569   3.100
12634WAT      O38143   5.236   1.916   4.725
12634WAT     H138144   5.253   1.994   4.785
12634WAT     H238145   5.178   1.850   4.772
12635WAT      O38146   3.627   2.855   4.264
12635WAT     H138147   3.537   2.861   4.308
12635WAT     H238148   3.668   2.766   4.284
12636WAT      O38149   5.876   1.343   3.232
12636WAT     H138150   5.853   1.419   3.292
12636WAT     H238151   5.943   1.374   3.164
12637WAT      O38152   1.965   1.220   0.342
12637WAT     H138153   1.947   1.132   0.385
12637WAT     H238154   1.995   1.286   0.410
12638WAT      O38155   2.427   3.006   4.883
12638WAT     H138156   2.429   2.945   4.804
12638WAT     H238157   2.379   3.090   4.859
12639WAT      O38158   7.063   3.290   0.285
12639WAT     H138159   7.023   3.235   0.359
12639WAT     H238160   7.152   3.324   0.314
12640WAT      O38161   7.111   0.346   9.725
12640WAT     H138162   7.199   0.317   9.763
12640WAT     H238163   7.037   0.301   9.773
12641WAT      O38164   1.589   7.132   8.647
12641WAT     H138165   1.674   7.147   8.597
12641WAT     H238166   1.577   7.034   8.664
12642WAT      O38167   5.257   3.337   6.887
12642WAT     H138168   5.293   3.338   6.981
12642WAT     H238169   5.272   3.427   6.846
12643WAT      O38170   2.108   9.181   1.367
12643WAT     H138171   2.051   9.135   1.435
12643WAT     H238172   2.199   9.139   1.366
12644WAT      O38173   3.269   1.928   6.090
12644WAT     H138174   3.204   1.876   6.145
12644WAT     H238175   3.267   2.024   6.117
12645WAT      O38176   6.373   3.417   6.743
12645WAT     H138177   6.328   3.380   6.661
12645WAT     H238178   6.392   3.514   6.729
12646WAT      O38179   3.409   9.507   3.059
12646WAT     H138180   3.381   9.595   3.022
12646WAT     H238181   3.488   9.473   3.008
12647WAT      O38182   9.776   4.458   0.599
12647WAT     H138183   9.689   4.462   0.649
12647WAT     H238184   9.758   4.467   0.501
12648WAT      O38185   8.603   0.640   3.148
12648WAT     H138186   8.698   0.612   3.163
12648WAT     H238187   8.587   0.729   3.192
12649WAT      O38188   4.147   1.356   9.499
12649WAT     H138189   4.181   1.369   9.406
12649WAT     H238190   4.052   1.324   9.496
12650WAT      O38191   4.362   8.394   6.973
12650WAT     H138192   4.302   8.459   7.020
12650WAT     H238193   4.380   8.317   7.033
12651WAT      O38194   8.739   0.238   6.764
12651WAT     H138195   8.807   0.170   6.737
12651WAT     H238196   8.784   0.325   6.784
12652WAT      O38197   8.009   0.986   2.662
12652WAT     H138198   8.055   0.900   2.683
12652WAT     H238199   8.066   1.040   2.600
12653WAT      O38200   9.525   3.350   3.730
12653WAT     H138201   9.441   3.359   3.784
12653WAT     H238202   9.535   3.256   3.698
12654WAT      O38203   9.475   8.251   9.631
12654WAT     H138204   9.489   8.349   9.640
12654WAT     H238205   9.439   8.231   9.540
12655WAT      O38206   9.055   1.756   1.526
12655WAT     H138207   9.135   1.812   1.547
12655WAT     H238208   9.083   1.675   1.475
12656WAT      O38209   5.237   6.157   2.160
12656WAT     H138210   5.205   6.239   2.113
12656WAT     H238211   5.266   6.088   2.093
12657WAT      O38212   2.568   7.511   2.152
12657WAT     H138213   2.583   7.413   2.140
12657WAT     H238214   2.620   7.543   2.232
12658WAT      O38215   7.024   4.214   1.103
12658WAT     H138216   6.963   4.279   1.058
12658WAT     H238217   7.062   4.151   1.035
12659WAT      O38218   2.123   5.045   9.149
12659WAT     H138219   2.177   5.026   9.231
12659WAT     H238220   2.058   4.971   9.133
12660WAT      O38221   4.682   9.006   1.637
12660WAT     H138222   4.677   9.046   1.728
12660WAT     H238223   4.732   8.919   1.641
12661WAT      O38224   7.215   9.352   4.409
12661WAT     H138225   7.207   9.359   4.509
12661WAT     H238226   7.305   9.385   4.381
12662WAT      O38227   9.296   4.160   0.399
12662WAT     H138228   9.323   4.256   0.388
12662WAT     H238229   9.374   4.101   0.380
12663WAT      O38230   8.748   1.905   1.772
12663WAT     H138231   8.693   1.989   1.771
12663WAT     H238232   8.695   1.831   1.814
12664WAT      O38233   2.175   0.217   1.720
12664WAT     H138234   2.176   0.153   1.796
12664WAT     H238235   2.147   0.170   1.636
12665WAT      O38236   3.360   2.338   2.285
12665WAT     H138237   3.306   2.254   2.292
12665WAT     H238238   3.299   2.417   2.294
12666WAT      O38239   7.609   7.950   7.421
12666WAT     H138240   7.543   7.893   7.372
12666WAT     H238241   7.586   8.047   7.408
12667WAT      O38242   5.706   4.239   6.391
12667WAT     H138243   5.716   4.338   6.401
12667WAT     H238244   5.734   4.212   6.298
12668WAT      O38245   2.609   5.049   2.817
12668WAT     H138246   2.587   4.982   2.887
12668WAT     H238247   2.542   5.123   2.820
12669WAT      O38248   6.587   2.758   4.376
12669WAT     H138249   6.627   2.790   4.290
12669WAT     H238250   6.585   2.658   4.377
12670WAT      O38251   5.956   2.804   2.404
12670WAT     H138252   5.914   2.892   2.384
12670WAT     H238253   5.885   2.735   2.417
12671WAT      O38254   9.004   2.886   1.562
12671WAT     H138255   8.956   2.898   1.475
12671WAT     H238256   9.070   2.811   1.554
12672WAT      O38257   3.136   9.130   9.539
12672WAT     H138258   3.139   9.151   9.637
12672WAT     H238259   3.113   9.212   9.488
12673WAT      O38260   8.679   8.863   7.386
12673WAT     H138261   8.680   8.850   7.486
12673WAT     H238262   8.764   8.907   7.357
12674WAT      O38263   1.368   5.134   9.349
12674WAT     H138264   1.359   5.097   9.442
12674WAT     H238265   1.449   5.095   9.306
12675WAT      O38266   9.884   6.625   8.806
12675WAT     H138267   9.836   6.581   8.881
12675WAT     H238268   9.858   6.581   8.719
12676WAT      O38269   0.705   6.051   9.664
12676WAT     H138270   0.707   5.987   9.741
12676WAT     H238271   0.794   6.051   9.618
12677WAT      O38272   8.738   6.472   8.948
12677WAT     H138273   8.656   6.458   8.894
12677WAT     H238274   8.727   6.427   9.037
12678WAT      O38275   4.946   8.944   6.817
12678WAT     H138276   4.935   8.945   6.917
12678WAT     H238277   5.014   8.874   6.792
12679WAT      O38278   8.595   1.963   3.772
12679WAT     H138279   8.568   2.026   3.845
12679WAT     H238280   8.654   2.011   3.707
12680WAT      O38281   1.041   4.021   9.342
12680WAT     H138282   1.067   4.083   9.417
12680WAT     H238283   0.943   4.002   9.348
12681WAT      O38284   5.505   9.285   5.389
12681WAT     H138285   5.439   9.355   5.414
12681WAT     H238286   5.497   9.264   5.292
12682WAT      O38287   1.189   7.630   7.072
12682WAT     H138288   1.153   7.717   7.037
12682WAT     H238289   1.258   7.595   7.009
12683WAT      O38290   1.178   8.446   0.511
12683WAT     H138291   1.195   8.544   0.523
12683WAT     H238292   1.240   8.394   0.570
12684WAT      O38293   8.937   3.964   6.740
12684WAT     H138294   8.896   3.876   6.765
12684WAT     H238295   8.928   4.027   6.817
12685WAT      O38296   4.890   5.286   0.916
12685WAT     H138297   4.867   5.360   0.979
12685WAT     H238298   4.886   5.319   0.822
12686WAT      O38299   2.531   2.396   4.106
12686WAT     H138300   2.614   2.341   4.102
12686WAT     H238301   2.461   2.355   4.047
12687WAT      O38302   2.438   9.598   0.880
12687WAT     H138303   2.398   9.671   0.825
12687WAT     H238304   2.409   9.509   0.843
12688WAT      O38305   0.593   7.054   5.603
12688WAT     H138306   0.660   7.070   5.675
12688WAT     H238307   0.549   6.965   5.617
12689WAT      O38308   6.697   5.334   1.277
12689WAT     H138309   6.658   5.396   1.208
12689WAT     H238310   6.778   5.376   1.317
12690WAT      O38311   3.213   6.759   1.606
12690WAT     H138312   3.230   6.855   1.628
12690WAT     H238313   3.281   6.727   1.540
12691WAT      O38314   8.544   5.386   0.857
12691WAT     H138315   8.444   5.390   0.857
12691WAT     H238316   8.579   5.429   0.940
12692WAT      O38317   1.454   1.343   0.850
12692WAT     H138318   1.553   1.355   0.841
12692WAT     H238319   1.428   1.348   0.946
12693WAT      O38320   7.090   9.660   6.394
12693WAT     H138321   7.133   9.721   6.461
12693WAT     H238322   7.004   9.701   6.362
12694WAT      O38323   3.307   2.576   0.175
12694WAT     H138324   3.244   2.648   0.205
12694WAT     H238325   3.311   2.504   0.244
12695WAT      O38326   3.960   0.806   3.595
12695WAT     H138327   3.921   0.728   3.645
12695WAT     H238328   3.918   0.812   3.505
12696WAT      O38329   4.629   5.982   1.560
12696WAT     H138330   4.703   6.014   1.500
12696WAT     H238331   4.661   5.980   1.655
12697WAT      O38332   5.309   1.182   2.856
12697WAT     H138333   5.362   1.147   2.779
12697WAT     H238334   5.228   1.126   2.870
12698WAT      O38335   4.593   3.241   4.822
12698WAT     H138336   4.507   3.286   4.798
12698WAT     H238337   4.621   3.270   4.913
12699WAT      O38338   9.379   7.125   5.034
12699WAT     H138339   9.392   7.035   5.076
12699WAT     H238340   9.356   7.191   5.104
12700WAT      O38341   0.918   5.184   3.934
12700WAT     H138342   0.966   5.104   3.971
12700WAT     H238343   0.952   5.204   3.843
12701WAT      O38344   7.499   0.115   4.734
12701WAT     H138345   7.463   0.079   4.821
12701WAT     H238346   7.484   0.047   4.662
12702WAT      O38347   3.912   6.351   9.757
12702WAT     H138348   3.952   6.381   9.843
12702WAT     H238349   3.932   6.418   9.685
12703WAT      O38350   5.213   5.438   8.535
12703WAT     H138351   5.300   5.390   8.527
12703WAT     H238352   5.139   5.371   8.548
12704WAT      O38353   4.416   5.478   2.402
12704WAT     H138354   4.414   5.502   2.499
12704WAT     H238355   4.404   5.561   2.347
12705WAT      O38356   1.065   8.041   9.584
12705WAT     H138357   1.104   8.074   9.497
12705WAT     H238358   1.138   8.033   9.652
12706WAT      O38359   9.056   9.385   5.573
12706WAT     H138360   9.035   9.287   5.581
12706WAT     H238361   9.022   9.420   5.486
12707WAT      O38362   6.642   9.391   5.265
12707WAT     H138363   6.706   9.416   5.193
12707WAT     H238364   6.570   9.332   5.226
12708WAT      O38365   3.938   3.109   8.203
12708WAT     H138366   4.007   3.080   8.269
12708WAT     H238367   3.967   3.195   8.161
12709WAT      O38368   9.721   3.346   2.230
12709WAT     H138369   9.792   3.391   2.175
12709WAT     H238370   9.760   3.323   2.320
12710WAT      O38371   7.722   5.701   5.336
12710WAT     H138372   7.802   5.759   5.352
12710WAT     H238373   7.751   5.608   5.316
12711WAT      O38374   0.293   2.194   7.560
12711WAT     H138375   0.206   2.180   7.608
12711WAT     H238376   0.274   2.219   7.465
12712WAT      O38377   5.190   7.380   6.088
12712WAT     H138378   5.280   7.422   6.075
12712WAT     H238379   5.122   7.451   6.105
12713WAT      O38380   4.683   4.647   2.358
12713WAT     H138381   4.684   4.604   2.449
12713WAT     H238382   4.591   4.682   2.339
12714WAT      O38383   8.401   3.188   5.732
12714WAT     H138384   8.417   3.094   5.762
12714WAT     H238385   8.330   3.189   5.661
12715WAT      O38386   6.344   9.613   2.842
12715WAT     H138387   6.355   9.682   2.771
12715WAT     H238388   6.248   9.583   2.845
12716WAT      O38389   8.602   2.798   1.507
12716WAT     H138390   8.557   2.747   1.433
12716WAT     H238391   8.662   2.736   1.558
12717WAT      O38392   7.445   3.151   2.055
12717WAT     H138393   7.519   3.107   2.005
12717WAT     H238394   7.364   3.159   1.997
12718WAT      O38395   2.382   3.782   4.058
12718WAT     H138396   2.401   3.747   4.150
12718WAT     H238397   2.356   3.878   4.064
12719WAT      O38398   4.280   3.882   7.456
12719WAT     H138399   4.308   3.966   7.503
12719WAT     H238400   4.189   3.855   7.487
12720WAT      O38401   8.164   6.267   3.187
12720WAT     H138402   8.180   6.174   3.219
12720WAT     H238403   8.196   6.275   3.093
12721WAT      O38404   5.450   5.501   8.802
12721WAT     H138405   5.516   5.576   8.814
12721WAT     H238406   5.448   5.474   8.706
12722WAT      O38407   8.198   9.444   2.575
12722WAT     H138408   8.198   9.481   2.668
12722WAT     H238409   8.287   9.463   2.532
12723WAT      O38410   5.679   4.237   6.009
12723WAT     H138411   5.723   4.226   5.919
12723WAT     H238412   5.678   4.149   6.056
12724WAT      O38413   4.958   5.646   1.037
12724WAT     H138414   4.984   5.638   0.941
12724WAT     H238415   4.909   5.564   1.066
12725WAT      O38416   4.631   3.318   9.538
12725WAT     H138417   4.581   3.248   9.486
12725WAT     H238418   4.716   3.340   9.489
12726WAT      O38419   9.480   0.914   7.383
12726WAT     H138420   9.388   0.941   7.354
12726WAT     H238421   9.495   0.943   7.478
12727WAT      O38422   2.600   7.469   1.000
12727WAT     H138423   2.616   7.407   1.077
12727WAT     H238424   2.592   7.416   0.915
12728WAT      O38425   4.198   1.976   2.166
12728WAT     H138426   4.116   1.977   2.222
12728WAT     H238427   4.237   1.884   2.165
12729WAT      O38428   5.276   6.763   6.708
12729WAT     H138429   5.366   6.741   6.745
12729WAT     H238430   5.271   6.861   6.689
12730WAT      O38431   4.839   1.781   1.111
12730WAT     H138432   4.786   1.834   1.177
12730WAT     H238433   4.903   1.721   1.160
12731WAT      O38434   1.280   5.890   2.420
12731WAT     H138435   1.218   5.963   2.446
12731WAT     H238436   1.323   5.851   2.501
12732WAT      O38437   3.035   7.354   6.249
12732WAT     H138438   2.951   7.368   6.196
12732WAT     H238439   3.024   7.394   6.340
12733WAT      O38440   7.637   3.104   4.461
12733WAT     H138441   7.578   3.036   4.417
12733WAT     H238442   7.593   3.138   4.544
12734WAT      O38443   6.504   7.246   2.060
12734WAT     H138444   6.471   7.181   1.991
12734WAT     H238445   6.541   7.327   2.014
12735WAT      O38446   9.384   9.280   5.190
12735WAT     H138447   9.452   9.351   5.175
12735WAT     H238448   9.351   9.285   5.285
12736WAT      O38449   1.038   1.543   6.536
12736WAT     H138450   1.029   1.618   6.471
12736WAT     H238451   1.123   1.553   6.587
12737WAT      O38452   2.954   9.486   8.649
12737WAT     H138453   3.036   9.428   8.649
12737WAT     H238454   2.892   9.456   8.577
12738WAT      O38455   5.307   5.968   7.981
12738WAT     H138456   5.362   6.051   7.975
12738WAT     H238457   5.363   5.893   8.015
12739WAT      O38458   1.406   4.696   4.179
12739WAT     H138459   1.350   4.626   4.133
12739WAT     H238460   1.420   4.670   4.274
12740WAT      O38461   2.612   5.016   8.134
12740WAT     H138462   2.524   4.997   8.091
12740WAT     H238463   2.628   5.115   8.134
12741WAT      O38464   7.754   6.576   2.307
12741WAT     H138465   7.670   6.604   2.261
12741WAT     H238466   7.777   6.643   2.378
12742WAT      O38467   8.890   1.510   7.353
12742WAT     H138468   8.816   1.444   7.359
12742WAT     H238469   8.950   1.486   7.277
12743WAT      O38470   8.405   8.786   1.162
12743WAT     H138471   8.491   8.833   1.140
12743WAT     H238472   8.421   8.688   1.167
12744WAT      O38473   2.953   8.379   8.589
12744WAT     H138474   2.913   8.438   8.658
12744WAT     H238475   2.950   8.284   8.620
12745WAT      O38476   6.604   2.545   6.892
12745WAT     H138477   6.694   2.504   6.874
12745WAT     H238478   6.615   2.639   6.922
12746WAT      O38479   1.141   5.568   4.822
12746WAT     H138480   1.128   5.523   4.910
12746WAT     H238481   1.062   5.551   4.763
12747WAT      O38482   8.234   3.277   1.345
12747WAT     H138483   8.304   3.207   1.330
12747WAT     H238484   8.257   3.359   1.292
12748WAT      O38485   6.663   3.064   9.280
12748WAT     H138486   6.564   3.053   9.291
12748WAT     H238487   6.709   2.982   9.313
12749WAT      O38488   7.983   5.711   1.093
12749WAT     H138489   7.993   5.613   1.082
12749WAT     H238490   8.021   5.740   1.181
12750WAT      O38491   2.250   3.652   6.421
12750WAT     H138492   2.314   3.596   6.475
12750WAT     H238493   2.280   3.747   6.423
12751WAT      O38494   7.038   4.585   8.468
12751WAT     H138495   6.993   4.669   8.439
12751WAT     H238496   6.995   4.550   8.551
12752WAT      O38497   9.504   2.637   5.996
12752WAT     H138498   9.427   2.574   5.987
12752WAT     H238499   9.589   2.587   5.977
12753WAT      O38500   1.164   2.572   4.164
12753WAT     H138501   1.192   2.636   4.235
12753WAT     H238502   1.067   2.587   4.142
12754WAT      O38503   2.838   0.054   7.398
12754WAT     H138504   2.857   0.112   7.478
12754WAT     H238505   2.895   0.083   7.322
12755WAT      O38506   4.708   8.082   9.129
12755WAT     H138507   4.702   8.023   9.049
12755WAT     H238508   4.664   8.036   9.207
12756WAT      O38509   5.857   6.740   3.550
12756WAT     H138510   5.900   6.650   3.560
12756WAT     H238511   5.800   6.740   3.469
12757WAT      O38512   0.259   6.311   8.688
12757WAT     H138513   0.336   6.249   8.702
12757WAT     H238514   0.232   6.310   8.592
12758WAT      O38515   0.536   4.934   4.437
12758WAT     H138516   0.515   4.874   4.360
12758WAT     H238517   0.525   4.883   4.523
12759WAT      O38518   8.355   5.684   4.352
12759WAT     H138519   8.272   5.714   4.399
12759WAT     H238520   8.435   5.722   4.398
12760WAT      O38521   9.830   8.189   7.183
12760WAT     H138522   9.767   8.146   7.247
12760WAT     H238523   9.809   8.160   7.090
12761WAT      O38524   3.069   7.515   6.976
12761WAT     H138525   2.993   7.459   7.010
12761WAT     H238526   3.040   7.564   6.894
12762WAT      O38527   1.859   6.998   7.353
12762WAT     H138528   1.886   6.911   7.313
12762WAT     H238529   1.935   7.035   7.407
12763WAT      O38530   0.210   5.764   3.475
12763WAT     H138531   0.223   5.709   3.393
12763WAT     H238532   0.125   5.816   3.467
12764WAT      O38533   5.627   7.874   1.406
12764WAT     H138534   5.613   7.784   1.447
12764WAT     H238535   5.565   7.885   1.328
12765WAT      O38536   0.594   1.208   3.193
12765WAT     H138537   0.673   1.149   3.176
12765WAT     H238538   0.619   1.279   3.258
12766WAT      O38539   7.970   8.917   3.554
12766WAT     H138540   8.015   8.830   3.574
12766WAT     H238541   7.937   8.958   3.639
12767WAT      O38542   0.582   4.982   4.071
12767WAT     H138543   0.667   4.942   4.105
12767WAT     H238544   0.506   4.956   4.131
12768WAT      O38545   2.089   1.554   2.667
12768WAT     H138546   2.049   1.469   2.635
12768WAT     H238547   2.050   1.631   2.616
12769WAT      O38548   5.273   0.268   7.056
12769WAT     H138549   5.350   0.224   7.102
12769WAT     H238550   5.305   0.350   7.009
12770WAT      O38551   3.423   5.880   6.441
12770WAT     H138552   3.519   5.909   6.449
12770WAT     H238553   3.379   5.931   6.368
12771WAT      O38554   3.115   2.795   8.128
12771WAT     H138555   3.076   2.844   8.206
12771WAT     H238556   3.131   2.700   8.154
12772WAT      O38557   0.268   6.476   6.902
12772WAT     H138558   0.191   6.423   6.866
12772WAT     H238559   0.289   6.551   6.841
12773WAT      O38560   3.863   3.593   0.297
12773WAT     H138561   3.771   3.555   0.300
12773WAT     H238562   3.924   3.537   0.353
12774WAT      O38563   0.439   5.123   5.782
12774WAT     H138564   0.383   5.070   5.846
12774WAT     H238565   0.411   5.219   5.784
12775WAT      O38566   1.001   0.811   2.229
12775WAT     H138567   1.063   0.745   2.185
12775WAT     H238568   0.907   0.793   2.201
12776WAT      O38569   9.038   5.494   0.597
12776WAT     H138570   8.976   5.446   0.658
12776WAT     H238571   9.068   5.579   0.639
12777WAT      O38572   1.542   3.081   7.330
12777WAT     H138573   1.445   3.087   7.349
12777WAT     H238574   1.587   3.166   7.360
12778WAT      O38575   8.037   3.072   2.106
12778WAT     H138576   8.065   3.166   2.125
12778WAT     H238577   8.075   3.042   2.019
12779WAT      O38578   3.771   7.114   7.214
12779WAT     H138579   3.672   7.112   7.200
12779WAT     H238580   3.816   7.068   7.137
12780WAT      O38581   1.826   8.251   7.438
12780WAT     H138582   1.877   8.335   7.457
12780WAT     H238583   1.819   8.238   7.339
12781WAT      O38584   1.011   4.995   3.589
12781WAT     H138585   0.973   5.081   3.625
12781WAT     H238586   0.939   4.946   3.539
12782WAT      O38587   3.396   0.044   3.210
12782WAT     H138588   3.313  -0.011   3.221
12782WAT     H238589   3.476  -0.015   3.216
12783WAT      O38590   7.298   3.968   5.303
12783WAT     H138591   7.214   4.022   5.311
12783WAT     H238592   7.358   3.990   5.379
12784WAT      O38593   6.982   3.029   7.228
12784WAT     H138594   7.042   3.090   7.279
12784WAT     H238595   6.893   3.025   7.273
12785WAT      O38596   2.848   3.065   3.804
12785WAT     H138597   2.847   3.164   3.819
12785WAT     H238598   2.941   3.030   3.816
12786WAT      O38599   3.893   6.676   9.870
12786WAT     H138600   3.957   6.602   9.892
12786WAT     H238601   3.944   6.758   9.846
12787WAT      O38602   8.861   6.901   3.498
12787WAT     H138603   8.853   6.902   3.398
12787WAT     H238604   8.944   6.853   3.524
12788WAT      O38605   0.302   6.841   9.178
12788WAT     H138606   0.224   6.785   9.149
12788WAT     H238607   0.381   6.783   9.193
12789WAT      O38608   2.906   6.168   9.639
12789WAT     H138609   2.902   6.068   9.643
12789WAT     H238610   2.909   6.198   9.544
12790WAT      O38611   9.677   5.308   3.274
12790WAT     H138612   9.659   5.261   3.360
12790WAT     H238613   9.596   5.302   3.215
12791WAT      O38614   5.461   6.118   1.128
12791WAT     H138615   5.386   6.079   1.074
12791WAT     H238616   5.544   6.066   1.113
12792WAT      O38617   8.144   9.058   2.160
12792WAT     H138618   8.150   8.959   2.148
12792WAT     H238619   8.113   9.100   2.075
12793WAT      O38620   2.581   9.265   2.259
12793WAT     H138621   2.512   9.281   2.189
12793WAT     H238622   2.550   9.191   2.320
12794WAT      O38623   3.213   0.372   5.958
12794WAT     H138624   3.275   0.448   5.936
12794WAT     H238625   3.162   0.395   6.040
12795WAT      O38626   7.225   8.489   6.090
12795WAT     H138627   7.156   8.521   6.025
12795WAT     H238628   7.285   8.565   6.115
12796WAT      O38629   6.947   5.910   9.298
12796WAT     H138630   6.999   5.825   9.302
12796WAT     H238631   6.987   5.969   9.227
12797WAT      O38632   5.366   8.375   9.474
12797WAT     H138633   5.294   8.444   9.478
12797WAT     H238634   5.415   8.371   9.561
12798WAT      O38635   5.497   6.937   8.720
12798WAT     H138636   5.460   6.920   8.629
12798WAT     H238637   5.448   7.014   8.762
12799WAT      O38638   3.906   4.391   6.948
12799WAT     H138639   3.963   4.458   6.899
12799WAT     H238640   3.868   4.434   7.030
12800WAT      O38641   8.243   8.005   2.284
12800WAT     H138642   8.266   7.916   2.245
12800WAT     H238643   8.143   8.017   2.281
12801WAT      O38644   3.527   3.186   3.796
12801WAT     H138645   3.480   3.250   3.735
12801WAT     H238646   3.504   3.207   3.891
12802WAT      O38647   6.917   3.088   1.322
12802WAT     H138648   6.918   3.105   1.420
12802WAT     H238649   6.861   3.157   1.276
12803WAT      O38650   9.871   1.304   3.846
12803WAT     H138651   9.898   1.261   3.932
12803WAT     H238652   9.837   1.397   3.864
12804WAT      O38653   6.190   6.005   2.146
12804WAT     H138654   6.259   5.985   2.076
12804WAT     H238655   6.155   5.919   2.183
12805WAT      O38656   6.538   2.062   6.241
12805WAT     H138657   6.474   2.079   6.166
12805WAT     H238658   6.629   2.093   6.215
12806WAT      O38659   1.011   4.095   2.404
12806WAT     H138660   1.086   4.089   2.470
12806WAT     H238661   1.032   4.038   2.325
12807WAT      O38662   2.572   8.092   0.099
12807WAT     H138663   2.632   8.145   0.039
12807WAT     H238664   2.567   7.998   0.066
12808WAT      O38665   4.014   4.538   6.724
12808WAT     H138666   4.077   4.609   6.691
12808WAT     H238667   3.954   4.510   6.649
12809WAT      O38668   5.330   0.759   8.658
12809WAT     H138669   5.264   0.685   8.644
12809WAT     H238670   5.419   0.731   8.623
12810WAT      O38671   0.820   2.635   3.447
12810WAT     H138672   0.890   2.697   3.411
12810WAT     H238673   0.760   2.606   3.373
12811WAT      O38674   0.186   6.189   3.530
12811WAT     H138675   0.092   6.195   3.495
12811WAT     H238676   0.250   6.221   3.460
12812WAT      O38677   4.885   8.578   7.779
12812WAT     H138678   4.923   8.637   7.707
12812WAT     H238679   4.791   8.605   7.798
12813WAT      O38680   3.811   1.394   4.292
12813WAT     H138681   3.907   1.406   4.268
12813WAT     H238682   3.780   1.304   4.260
12814WAT      O38683   0.943   5.073   0.401
12814WAT     H138684   0.888   5.003   0.356
12814WAT     H238685   0.883   5.139   0.446
12815WAT      O38686   8.648   0.719   7.116
12815WAT     H138687   8.556   0.707   7.154
12815WAT     H238688   8.663   0.816   7.095
12816WAT      O38689   8.279   8.535   8.506
12816WAT     H138690   8.355   8.572   8.452
12816WAT     H238691   8.271   8.585   8.592
12817WAT      O38692   7.899   4.469   3.467
12817WAT     H138693   7.981   4.471   3.410
12817WAT     H238694   7.847   4.386   3.449
12818WAT      O38695   9.441   8.304   7.784
12818WAT     H138696   9.440   8.403   7.800
12818WAT     H238697   9.512   8.262   7.840
12819WAT      O38698   0.631   7.758   1.076
12819WAT     H138699   0.643   7.763   1.175
12819WAT     H238700   0.719   7.741   1.032
12820WAT      O38701   4.652   1.128   2.987
12820WAT     H138702   4.598   1.198   3.034
12820WAT     H238703   4.608   1.103   2.901
12821WAT      O38704   0.933   5.699   6.714
12821WAT     H138705   0.939   5.599   6.710
12821WAT     H238706   0.892   5.726   6.801
12822WAT      O38707   8.832   7.729   9.003
12822WAT     H138708   8.882   7.757   9.086
12822WAT     H238709   8.741   7.698   9.029
12823WAT      O38710   7.646   6.999   8.669
12823WAT     H138711   7.691   6.919   8.628
12823WAT     H238712   7.556   6.973   8.704
12824WAT      O38713   1.330   1.113   6.011
12824WAT     H138714   1.429   1.100   6.014
12824WAT     H238715   1.298   1.147   6.099
12825WAT      O38716   1.202   3.975   0.863
12825WAT     H138717   1.102   3.977   0.864
12825WAT     H238718   1.235   3.949   0.953
12826WAT      O38719   7.725   2.864   6.152
12826WAT     H138720   7.696   2.960   6.155
12826WAT     H238721   7.648   2.808   6.121
12827WAT      O38722   1.514   7.179   8.314
12827WAT     H138723   1.604   7.207   8.348
12827WAT     H238724   1.515   7.175   8.215
12828WAT      O38725   1.790   4.865   5.361
12828WAT     H138726   1.887   4.842   5.368
12828WAT     H238727   1.737   4.803   5.417
12829WAT      O38728   7.680   2.984   2.448
12829WAT     H138729   7.725   2.981   2.537
12829WAT     H238730   7.746   2.963   2.377
12830WAT      O38731   8.759   1.148   7.479
12830WAT     H138732   8.730   1.236   7.440
12830WAT     H238733   8.715   1.134   7.567
12831WAT      O38734   1.041   0.186   9.223
12831WAT     H138735   1.020   0.185   9.321
12831WAT     H238736   1.060   0.092   9.193
12832WAT      O38737   6.356   5.332   1.496
12832WAT     H138738   6.410   5.332   1.581
12832WAT     H238739   6.407   5.284   1.424
12833WAT      O38740   1.612   1.721   3.872
12833WAT     H138741   1.525   1.701   3.916
12833WAT     H238742   1.678   1.751   3.940
12834WAT      O38743   8.328   9.728   9.266
12834WAT     H138744   8.279   9.656   9.218
12834WAT     H238745   8.413   9.749   9.217
12835WAT      O38746   8.258   2.257   5.353
12835WAT     H138747   8.260   2.258   5.253
12835WAT     H238748   8.290   2.168   5.386
12836WAT      O38749   9.626   4.070   9.598
12836WAT     H138750   9.550   4.018   9.637
12836WAT     H238751   9.609   4.168   9.610
12837WAT      O38752   8.865   6.209   1.816
12837WAT     H138753   8.895   6.304   1.802
12837WAT     H238754   8.784   6.192   1.759
12838WAT      O38755   7.486   1.764   3.717
12838WAT     H138756   7.420   1.701   3.676
12838WAT     H238757   7.438   1.833   3.771
12839WAT      O38758   1.432   4.358   2.111
12839WAT     H138759   1.380   4.350   2.196
12839WAT     H238760   1.496   4.435   2.118
12840WAT      O38761   4.298   4.450   2.938
12840WAT     H138762   4.226   4.519   2.941
12840WAT     H238763   4.328   4.428   3.031
12841WAT      O38764   3.771   3.242   0.716
12841WAT     H138765   3.859   3.261   0.760
12841WAT     H238766   3.702   3.306   0.750
12842WAT      O38767   8.084   4.454   8.009
12842WAT     H138768   8.135   4.445   7.924
12842WAT     H238769   7.989   4.478   7.989
12843WAT      O38770   5.987   7.141   0.175
12843WAT     H138771   5.963   7.161   0.080
12843WAT     H238772   5.926   7.069   0.210
12844WAT      O38773   9.412   1.401   1.059
12844WAT     H138774   9.365   1.487   1.041
12844WAT     H238775   9.353   1.342   1.114
12845WAT      O38776   8.518   4.916   9.341
12845WAT     H138777   8.481   4.850   9.406
12845WAT     H238778   8.482   4.897   9.250
12846WAT      O38779   8.961   5.568   5.841
12846WAT     H138780   8.956   5.539   5.745
12846WAT     H238781   8.891   5.637   5.858
12847WAT      O38782   7.846   4.822   6.498
12847WAT     H138783   7.819   4.798   6.405
12847WAT     H238784   7.804   4.909   6.525
12848WAT      O38785   2.677   6.209   1.991
12848WAT     H138786   2.734   6.227   1.911
12848WAT     H238787   2.582   6.230   1.970
12849WAT      O38788   5.686   8.303   3.767
12849WAT     H138789   5.618   8.231   3.746
12849WAT     H238790   5.769   8.261   3.803
12850WAT      O38791   4.107   9.021   5.768
12850WAT     H138792   4.073   9.050   5.678
12850WAT     H238793   4.114   9.101   5.828
12851WAT      O38794   2.470   6.446   9.839
12851WAT     H138795   2.514   6.361   9.810
12851WAT     H238796   2.431   6.493   9.760
12852WAT      O38797   2.298   6.165   6.248
12852WAT     H138798   2.311   6.140   6.152
12852WAT     H238799   2.365   6.236   6.272
12853WAT      O38800   4.624   1.588   5.783
12853WAT     H138801   4.550   1.584   5.716
12853WAT     H238802   4.680   1.506   5.776
12854WAT      O38803   4.502   7.404   7.900
12854WAT     H138804   4.583   7.449   7.934
12854WAT     H238805   4.528   7.335   7.832
12855WAT      O38806   0.433   2.219   3.367
12855WAT     H138807   0.500   2.166   3.314
12855WAT     H238808   0.474   2.246   3.454
12856WAT      O38809   0.055   1.582   3.465
12856WAT     H138810   0.030   1.503   3.521
12856WAT     H238811  -0.027   1.632   3.439
12857WAT      O38812   2.262   8.180   4.706
12857WAT     H138813   2.358   8.185   4.681
12857WAT     H238814   2.230   8.269   4.738
12858WAT      O38815   6.418   0.782   6.859
12858WAT     H138816   6.373   0.764   6.947
12858WAT     H238817   6.433   0.880   6.849
12859WAT      O38818   1.923   0.321   4.916
12859WAT     H138819   1.893   0.416   4.905
12859WAT     H238820   1.903   0.291   5.009
12860WAT      O38821   1.334   6.634   0.548
12860WAT     H138822   1.357   6.632   0.646
12860WAT     H238823   1.405   6.587   0.496
12861WAT      O38824   4.196   3.149   8.031
12861WAT     H138825   4.174   3.193   7.944
12861WAT     H238826   4.246   3.213   8.089
12862WAT      O38827   2.076   3.702   1.309
12862WAT     H138828   2.006   3.670   1.373
12862WAT     H238829   2.052   3.794   1.278
12863WAT      O38830   1.061   6.527   0.466
12863WAT     H138831   1.160   6.535   0.477
12863WAT     H238832   1.020   6.503   0.554
12864WAT      O38833   5.998   0.439   2.526
12864WAT     H138834   6.040   0.529   2.532
12864WAT     H238835   6.023   0.396   2.439
12865WAT      O38836   1.557   2.633   3.880
12865WAT     H138837   1.500   2.682   3.814
12865WAT     H238838   1.499   2.589   3.949
12866WAT      O38839   8.190   5.704   3.407
12866WAT     H138840   8.103   5.677   3.365
12866WAT     H238841   8.257   5.631   3.393
12867WAT      O38842   1.520   6.608   2.272
12867WAT     H138843   1.472   6.521   2.262
12867WAT     H238844   1.614   6.599   2.238
12868WAT      O38845   9.047   2.932   2.339
12868WAT     H138846   9.071   3.002   2.406
12868WAT     H238847   9.097   2.848   2.360
12869WAT      O38848   0.485   7.069   4.891
12869WAT     H138849   0.550   7.144   4.882
12869WAT     H238850   0.467   7.050   4.987
12870WAT      O38851   3.448   5.745   9.500
12870WAT     H138852   3.454   5.685   9.420
12870WAT     H238853   3.352   5.768   9.516
12871WAT      O38854   3.457   2.430   0.433
12871WAT     H138855   3.366   2.390   0.426
12871WAT     H238856   3.451   2.520   0.477
12872WAT      O38857   2.141   0.790   3.927
12872WAT     H138858   2.074   0.739   3.873
12872WAT     H238859   2.225   0.800   3.873
12873WAT      O38860   5.079   3.480   2.773
12873WAT     H138861   5.166   3.514   2.740
12873WAT     H238862   5.005   3.513   2.714
12874WAT      O38863   8.581   5.646   3.732
12874WAT     H138864   8.522   5.688   3.664
12874WAT     H238865   8.632   5.717   3.781
12875WAT      O38866   1.960   1.570   3.157
12875WAT     H138867   1.886   1.569   3.091
12875WAT     H238868   1.938   1.509   3.234
12876WAT      O38869   3.385   2.228   2.694
12876WAT     H138870   3.363   2.131   2.705
12876WAT     H238871   3.302   2.278   2.666
12877WAT      O38872   7.058   5.175   8.260
12877WAT     H138873   7.057   5.160   8.161
12877WAT     H238874   7.138   5.129   8.299
12878WAT      O38875   7.818   1.075   9.475
12878WAT     H138876   7.901   1.128   9.459
12878WAT     H238877   7.778   1.103   9.563
12879WAT      O38878   7.060   7.189   6.777
12879WAT     H138879   7.053   7.157   6.683
12879WAT     H238880   7.125   7.132   6.827
12880WAT      O38881   8.879   1.010   4.395
12880WAT     H138882   8.931   0.952   4.458
12880WAT     H238883   8.882   1.105   4.428
12881WAT      O38884   5.163   1.199   4.041
12881WAT     H138885   5.261   1.201   4.059
12881WAT     H238886   5.114   1.235   4.121
12882WAT      O38887   1.151   3.187   0.848
12882WAT     H138888   1.214   3.262   0.869
12882WAT     H238889   1.057   3.222   0.850
12883WAT      O38890   0.400   7.854   2.653
12883WAT     H138891   0.329   7.876   2.719
12883WAT     H238892   0.413   7.755   2.650
12884WAT      O38893   8.477   4.239   1.913
12884WAT     H138894   8.534   4.183   1.852
12884WAT     H238895   8.515   4.332   1.918
12885WAT      O38896   2.837   5.832   4.936
12885WAT     H138897   2.881   5.765   4.876
12885WAT     H238898   2.739   5.834   4.916
12886WAT      O38899   2.320   9.023   6.693
12886WAT     H138900   2.245   9.073   6.649
12886WAT     H238901   2.308   8.925   6.678
12887WAT      O38902   2.861   4.059   7.958
12887WAT     H138903   2.780   4.015   7.996
12887WAT     H238904   2.846   4.158   7.954
12888WAT      O38905   3.970   1.368   8.313
12888WAT     H138906   4.021   1.301   8.259
12888WAT     H238907   3.965   1.454   8.263
12889WAT      O38908   0.907   9.188   8.707
12889WAT     H138909   0.838   9.122   8.736
12889WAT     H238910   0.960   9.219   8.786
12890WAT      O38911   0.602   3.048   4.834
12890WAT     H138912   0.617   3.134   4.884
12890WAT     H238913   0.685   2.992   4.841
12891WAT      O38914   3.329   4.376   7.002
12891WAT     H138915   3.308   4.290   6.956
12891WAT     H238916   3.325   4.451   6.936
12892WAT      O38917   5.243   6.366   8.147
12892WAT     H138918   5.249   6.445   8.208
12892WAT     H238919   5.221   6.284   8.201
12893WAT      O38920   8.078   8.166   7.470
12893WAT     H138921   8.002   8.121   7.424
12893WAT     H238922   8.125   8.227   7.405
12894WAT      O38923   0.582   6.850   8.511
12894WAT     H138924   0.600   6.903   8.594
12894WAT     H238925   0.619   6.757   8.521
12895WAT      O38926   6.430   2.643   0.256
12895WAT     H138927   6.486   2.703   0.313
12895WAT     H238928   6.477   2.556   0.242
12896WAT      O38929   9.067   1.712   4.480
12896WAT     H138930   9.116   1.685   4.397
12896WAT     H238931   8.990   1.771   4.456
12897WAT      O38932   8.975   8.151   1.198
12897WAT     H138933   9.054   8.171   1.255
12897WAT     H238934   8.939   8.237   1.160
12898WAT      O38935   8.341   7.817   4.208
12898WAT     H138936   8.324   7.914   4.189
12898WAT     H238937   8.364   7.805   4.304
12899WAT      O38938   6.503   8.872   3.210
12899WAT     H138939   6.571   8.876   3.137
12899WAT     H238940   6.548   8.883   3.298
12900WAT      O38941   1.774   5.382   2.988
12900WAT     H138942   1.730   5.295   2.967
12900WAT     H238943   1.845   5.367   3.058
12901WAT      O38944   3.509   0.160   2.991
12901WAT     H138945   3.519   0.255   3.018
12901WAT     H238946   3.456   0.111   3.060
12902WAT      O38947   6.169   3.490   8.732
12902WAT     H138948   6.200   3.428   8.803
12902WAT     H238949   6.090   3.451   8.685
12903WAT      O38950   1.172   3.882   0.068
12903WAT     H138951   1.171   3.793   0.113
12903WAT     H238952   1.259   3.927   0.085
12904WAT      O38953   7.330   6.008   8.040
12904WAT     H138954   7.375   5.919   8.033
12904WAT     H238955   7.243   5.997   8.087
12905WAT      O38956   4.605   0.651   0.826
12905WAT     H138957   4.512   0.678   0.852
12905WAT     H238958   4.623   0.559   0.859
12906WAT      O38959   1.814   3.550   9.615
12906WAT     H138960   1.835   3.454   9.592
12906WAT     H238961   1.736   3.581   9.561
12907WAT      O38962   3.369   1.635   1.118
12907WAT     H138963   3.387   1.731   1.139
12907WAT     H238964   3.455   1.588   1.100
12908WAT      O38965   2.035   3.439   0.880
12908WAT     H138966   2.081   3.422   0.793
12908WAT     H238967   1.998   3.532   0.880
12909WAT      O38968   6.908   8.621   7.494
12909WAT     H138969   6.955   8.677   7.563
12909WAT     H238970   6.819   8.593   7.530
12910WAT      O38971   5.468   7.192   2.192
12910WAT     H138972   5.509   7.184   2.101
12910WAT     H238973   5.538   7.219   2.258
12911WAT      O38974   9.082   9.787   5.563
12911WAT     H138975   9.044   9.751   5.648
12911WAT     H238976   9.169   9.832   5.583
12912WAT      O38977   4.981   0.479   3.318
12912WAT     H138978   4.991   0.546   3.245
12912WAT     H238979   5.016   0.391   3.287
12913WAT      O38980   1.497   8.394   1.823
12913WAT     H138981   1.585   8.363   1.788
12913WAT     H238982   1.511   8.442   1.910
12914WAT      O38983   8.489   9.311   4.165
12914WAT     H138984   8.589   9.311   4.175
12914WAT     H238985   8.452   9.223   4.196
12915WAT      O38986   2.887   1.865   8.135
12915WAT     H138987   2.946   1.789   8.108
12915WAT     H238988   2.913   1.896   8.227
12916WAT      O38989   6.516   5.163   7.882
12916WAT     H138990   6.554   5.224   7.813
12916WAT     H238991   6.575   5.083   7.892
12917WAT      O38992   2.338   9.573   9.320
12917WAT     H138993   2.356   9.544   9.226
12917WAT     H238994   2.295   9.663   9.320
12918WAT      O38995   0.803   0.203   3.865
12918WAT     H138996   0.768   0.123   3.914
12918WAT     H238997   0.736   0.277   3.868
12919WAT      O38998   4.676   4.882   2.618
12919WAT     H138999   4.645   4.792   2.586
12919WAT     H239000   4.604   4.949   2.603
12920WAT      O39001   1.687   3.761   3.296
12920WAT     H139002   1.655   3.674   3.333
12920WAT     H239003   1.609   3.818   3.270
12921WAT      O39004   8.122   5.610   7.193
12921WAT     H139005   8.124   5.574   7.100
12921WAT     H239006   8.028   5.609   7.227
12922WAT      O39007   9.310   7.763   1.801
12922WAT     H139008   9.380   7.736   1.867
12922WAT     H239009   9.311   7.699   1.724
12923WAT      O39010   9.366   4.979   3.052
12923WAT     H139011   9.458   4.960   3.021
12923WAT     H239012   9.305   4.905   3.024
12924WAT      O39013   1.468   5.619   0.166
12924WAT     H139014   1.398   5.663   0.110
12924WAT     H239015   1.429   5.542   0.216
12925WAT      O39016   5.568   2.127   9.681
12925WAT     H139017   5.470   2.131   9.662
12925WAT     H239018   5.618   2.134   9.595
12926WAT      O39019   3.570   0.070   4.325
12926WAT     H139020   3.601  -0.025   4.329
12926WAT     H239021   3.555   0.104   4.418
12927WAT      O39022   4.656   5.678   2.110
12927WAT     H139023   4.743   5.724   2.090
12927WAT     H239024   4.671   5.579   2.114
12928WAT      O39025   4.735   5.723   9.362
12928WAT     H139026   4.729   5.822   9.376
12928WAT     H239027   4.787   5.705   9.278
12929WAT      O39028   3.605   1.180   9.393
12929WAT     H139029   3.565   1.113   9.456
12929WAT     H239030   3.579   1.157   9.299
12930WAT      O39031   8.030   4.626   6.579
12930WAT     H139032   8.066   4.666   6.664
12930WAT     H239033   7.972   4.694   6.533
12931WAT      O39034   0.303   0.223   2.285
12931WAT     H139035   0.359   0.286   2.340
12931WAT     H239036   0.230   0.275   2.240
12932WAT      O39037   3.797   2.186   4.254
12932WAT     H139038   3.865   2.164   4.323
12932WAT     H239039   3.742   2.105   4.233
12933WAT      O39040   1.831   9.435   4.227
12933WAT     H139041   1.752   9.375   4.217
12933WAT     H239042   1.854   9.444   4.324
12934WAT      O39043   8.432   2.570   6.516
12934WAT     H139044   8.521   2.613   6.525
12934WAT     H239045   8.362   2.629   6.558
12935WAT      O39046   1.567   4.349   3.476
12935WAT     H139047   1.495   4.282   3.459
12935WAT     H239048   1.547   4.434   3.427
12936WAT      O39049   1.741   4.913   6.182
12936WAT     H139050   1.835   4.899   6.214
12936WAT     H239051   1.677   4.871   6.247
12937WAT      O39052   2.374   6.383   7.037
12937WAT     H139053   2.397   6.428   6.950
12937WAT     H239054   2.440   6.409   7.107
12938WAT      O39055   3.898   8.089   3.232
12938WAT     H139056   3.994   8.062   3.228
12938WAT     H239057   3.891   8.186   3.259
12939WAT      O39058   6.422   6.075   4.289
12939WAT     H139059   6.485   6.099   4.363
12939WAT     H239060   6.330   6.065   4.325
12940WAT      O39061   5.736   1.467   0.903
12940WAT     H139062   5.811   1.509   0.852
12940WAT     H239063   5.773   1.395   0.962
12941WAT      O39064   9.763   9.801   4.669
12941WAT     H139065   9.756   9.857   4.752
12941WAT     H239066   9.828   9.842   4.606
12942WAT      O39067   9.179   6.050   6.760
12942WAT     H139068   9.131   6.135   6.783
12942WAT     H239069   9.210   6.006   6.844
12943WAT      O39070   3.466   4.254   1.679
12943WAT     H139071   3.391   4.189   1.670
12943WAT     H239072   3.481   4.301   1.593
12944WAT      O39073   2.190   5.451   5.094
12944WAT     H139074   2.253   5.419   5.023
12944WAT     H239075   2.103   5.403   5.085
12945WAT      O39076   8.153   3.285   9.510
12945WAT     H139077   8.190   3.310   9.420
12945WAT     H239078   8.149   3.367   9.568
12946WAT      O39079   1.742   5.913   5.770
12946WAT     H139080   1.841   5.914   5.756
12946WAT     H239081   1.721   5.869   5.857
12947WAT      O39082   1.652   0.177   2.711
12947WAT     H139083   1.637   0.109   2.640
12947WAT     H239084   1.633   0.268   2.674
12948WAT      O39085   3.536   9.545   0.220
12948WAT     H139086   3.591   9.532   0.302
12948WAT     H239087   3.478   9.625   0.232
12949WAT      O39088   5.717   3.030   8.510
12949WAT     H139089   5.700   2.932   8.507
12949WAT     H239090   5.676   3.074   8.431
12950WAT      O39091   0.882   5.662   1.548
12950WAT     H139092   0.835   5.614   1.623
12950WAT     H239093   0.933   5.739   1.584
12951WAT      O39094   9.795   9.250   6.076
12951WAT     H139095   9.847   9.335   6.087
12951WAT     H239096   9.706   9.259   6.121
12952WAT      O39097   9.781   1.452   9.795
12952WAT     H139098   9.790   1.443   9.894
12952WAT     H239099   9.865   1.420   9.750
12953WAT      O39100   6.530   6.717   4.811
12953WAT     H139101   6.588   6.655   4.759
12953WAT     H239102   6.442   6.728   4.763
12954WAT      O39103   2.308   2.597   4.933
12954WAT     H139104   2.407   2.594   4.939
12954WAT     H239105   2.267   2.542   5.006
12955WAT      O39106   1.417   6.363   1.401
12955WAT     H139107   1.404   6.454   1.440
12955WAT     H239108   1.490   6.316   1.448
12956WAT      O39109   8.201   3.296   4.926
12956WAT     H139110   8.293   3.331   4.909
12956WAT     H239111   8.198   3.256   5.018
12957WAT      O39112   0.874   0.494   5.396
12957WAT     H139113   0.900   0.573   5.340
12957WAT     H239114   0.844   0.526   5.486
12958WAT      O39115   0.309   8.025   6.265
12958WAT     H139116   0.231   8.020   6.203
12958WAT     H239117   0.341   8.120   6.272
12959WAT      O39118   1.638   8.163   2.698
12959WAT     H139119   1.578   8.090   2.730
12959WAT     H239120   1.624   8.178   2.600
12960WAT      O39121   3.093   2.479   5.297
12960WAT     H139122   3.184   2.461   5.262
12960WAT     H239123   3.076   2.422   5.378
12961WAT      O39124   8.753   1.404   8.317
12961WAT     H139125   8.800   1.492   8.321
12961WAT     H239126   8.780   1.356   8.234
12962WAT      O39127   6.302   8.821   5.804
12962WAT     H139128   6.322   8.728   5.777
12962WAT     H239129   6.203   8.835   5.804
12963WAT      O39130   9.817   9.262   3.350
12963WAT     H139131   9.762   9.345   3.347
12963WAT     H239132   9.761   9.183   3.329
12964WAT      O39133   0.501   7.943   3.518
12964WAT     H139134   0.431   7.913   3.453
12964WAT     H239135   0.485   8.039   3.543
12965WAT      O39136   9.030   3.640   5.559
12965WAT     H139137   8.958   3.578   5.526
12965WAT     H239138   9.021   3.728   5.512
12966WAT      O39139   0.739   2.343   1.527
12966WAT     H139140   0.741   2.271   1.458
12966WAT     H239141   0.644   2.366   1.548
12967WAT      O39142   0.571   9.515   1.318
12967WAT     H139143   0.485   9.466   1.333
12967WAT     H239144   0.622   9.473   1.243
12968WAT      O39145   1.123   7.201   4.778
12968WAT     H139146   1.096   7.152   4.696
12968WAT     H239147   1.194   7.267   4.756
12969WAT      O39148   4.647   3.466   6.198
12969WAT     H139149   4.568   3.451   6.139
12969WAT     H239150   4.706   3.536   6.158
12970WAT      O39151   2.242   2.848   5.058
12970WAT     H139152   2.270   2.756   5.031
12970WAT     H239153   2.307   2.915   5.021
12971WAT      O39154   8.758   2.568   7.771
12971WAT     H139155   8.712   2.538   7.688
12971WAT     H239156   8.696   2.628   7.823
12972WAT      O39157   7.027   9.695   4.791
12972WAT     H139158   7.084   9.652   4.721
12972WAT     H239159   6.937   9.652   4.792
12973WAT      O39160   3.099   4.057   4.228
12973WAT     H139161   3.012   4.104   4.246
12973WAT     H239162   3.126   4.006   4.309
12974WAT      O39163   2.738   6.918   2.859
12974WAT     H139164   2.680   6.947   2.784
12974WAT     H239165   2.739   6.988   2.930
12975WAT      O39166   9.007   9.409   8.976
12975WAT     H139167   9.004   9.337   9.046
12975WAT     H239168   9.020   9.498   9.021
12976WAT      O39169   1.633   6.573   8.671
12976WAT     H139170   1.607   6.603   8.763
12976WAT     H239171   1.699   6.498   8.678
12977WAT      O39172   2.834   2.517   3.861
12977WAT     H139173   2.897   2.581   3.815
12977WAT     H239174   2.740   2.538   3.835
12978WAT      O39175   1.507   2.271   5.956
12978WAT     H139176   1.546   2.257   6.047
12978WAT     H239177   1.419   2.224   5.950
12979WAT      O39178   1.769   0.993   2.808
12979WAT     H139179   1.743   1.016   2.715
12979WAT     H239180   1.852   0.936   2.807
12980WAT      O39181   3.075   0.837   1.708
12980WAT     H139182   3.150   0.858   1.772
12980WAT     H239183   3.017   0.766   1.748
12981WAT      O39184   2.155   6.298   1.559
12981WAT     H139185   2.152   6.207   1.600
12981WAT     H239186   2.152   6.368   1.631
12982WAT      O39187   7.350   4.092   7.985
12982WAT     H139188   7.296   4.016   8.022
12982WAT     H239189   7.389   4.144   8.061
12983WAT      O39190   7.113   2.447   9.624
12983WAT     H139191   7.154   2.539   9.624
12983WAT     H239192   7.147   2.396   9.703
12984WAT      O39193   8.651   2.353   7.075
12984WAT     H139194   8.609   2.300   7.001
12984WAT     H239195   8.716   2.295   7.124
12985WAT      O39196   4.243   7.405   5.955
12985WAT     H139197   4.187   7.348   6.015
12985WAT     H239198   4.292   7.473   6.009
12986WAT      O39199   2.539   4.618   2.552
12986WAT     H139200   2.549   4.708   2.510
12986WAT     H239201   2.619   4.562   2.528
12987WAT      O39202   1.515   0.209   0.371
12987WAT     H139203   1.420   0.228   0.347
12987WAT     H239204   1.568   0.191   0.288
12988WAT      O39205   2.546   8.446   5.262
12988WAT     H139206   2.446   8.445   5.263
12988WAT     H239207   2.579   8.539   5.273
12989WAT      O39208   2.310   0.832   7.118
12989WAT     H139209   2.287   0.927   7.096
12989WAT     H239210   2.409   0.820   7.121
12990WAT      O39211   5.619   3.975   7.606
12990WAT     H139212   5.640   3.946   7.513
12990WAT     H239213   5.655   4.067   7.621
12991WAT      O39214   8.554   1.847   6.704
12991WAT     H139215   8.589   1.841   6.611
12991WAT     H239216   8.562   1.757   6.748
12992WAT      O39217   5.138   9.151   6.399
12992WAT     H139218   5.213   9.150   6.333
12992WAT     H239219   5.061   9.097   6.363
12993WAT      O39220   6.306   4.642   1.055
12993WAT     H139221   6.314   4.717   0.989
12993WAT     H239222   6.246   4.670   1.130
12994WAT      O39223   2.160   0.809   2.543
12994WAT     H139224   2.244   0.756   2.553
12994WAT     H239225   2.182   0.907   2.538
12995WAT      O39226   6.277   9.364   8.076
12995WAT     H139227   6.227   9.434   8.126
12995WAT     H239228   6.316   9.298   8.140
12996WAT      O39229   3.056   7.922   6.821
12996WAT     H139230   3.052   8.013   6.780
12996WAT     H239231   3.107   7.927   6.907
12997WAT      O39232   9.735   1.418   7.157
12997WAT     H139233   9.667   1.366   7.105
12997WAT     H239234   9.781   1.482   7.096
12998WAT      O39235   0.787   6.415   7.790
12998WAT     H139236   0.814   6.424   7.886
12998WAT     H239237   0.696   6.375   7.785
12999WAT      O39238   7.154   1.536   3.760
12999WAT     H139239   7.229   1.508   3.819
12999WAT     H239240   7.189   1.594   3.687
13000WAT      O39241   0.739   8.688   8.872
13000WAT     H139242   0.695   8.645   8.794
13000WAT     H239243   0.808   8.626   8.911
13001WAT      O39244   7.984   0.428   5.018
13001WAT     H139245   7.885   0.423   5.004
13001WAT     H239246   8.030   0.374   4.948
13002WAT      O39247   5.979   0.184   3.132
13002WAT     H139248   5.898   0.129   3.114
13002WAT     H239249   6.057   0.147   3.083
13003WAT      O39250   8.430   1.579   5.524
13003WAT     H139251   8.504   1.542   5.468
13003WAT     H239252   8.342   1.546   5.490
13004WAT      O39253   8.151   4.544   0.893
13004WAT     H139254   8.145   4.545   0.793
13004WAT     H239255   8.067   4.506   0.931
13005WAT      O39256   3.595   0.171   8.381
13005WAT     H139257   3.647   0.136   8.303
13005WAT     H239258   3.637   0.256   8.414
13006WAT      O39259   9.327   2.943   7.909
13006WAT     H139260   9.281   2.857   7.885
13006WAT     H239261   9.380   2.931   7.992
13007WAT      O39262   8.138   5.338   6.547
13007WAT     H139263   8.086   5.416   6.512
13007WAT     H239264   8.081   5.286   6.611
13008WAT      O39265   6.964   4.103   8.215
13008WAT     H139266   6.990   4.152   8.131
13008WAT     H239267   6.880   4.142   8.251
13009WAT      O39268   2.119   2.491   7.433
13009WAT     H139269   2.041   2.506   7.372
13009WAT     H239270   2.089   2.501   7.528
13010WAT      O39271   7.585   1.395   6.177
13010WAT     H139272   7.602   1.340   6.095
13010WAT     H239273   7.629   1.484   6.167
13011WAT      O39274   5.417   4.458   0.802
13011WAT     H139275   5.487   4.528   0.786
13011WAT     H239276   5.459   4.379   0.847
13012WAT      O39277   2.673   4.637   6.247
13012WAT     H139278   2.766   4.601   6.246
13012WAT     H239279   2.644   4.655   6.341
13013WAT      O39280   6.103   7.529   6.183
13013WAT     H139281   6.151   7.551   6.098
13013WAT     H239282   6.114   7.432   6.203
13014WAT      O39283   7.870   4.412   1.578
13014WAT     H139284   7.855   4.494   1.523
13014WAT     H239285   7.784   4.362   1.589
13015WAT      O39286   9.243   8.262   3.636
13015WAT     H139287   9.156   8.260   3.684
13015WAT     H239288   9.230   8.300   3.545
13016WAT      O39289   3.833   3.909   4.938
13016WAT     H139290   3.900   3.848   4.981
13016WAT     H239291   3.755   3.856   4.907
13017WAT      O39292   9.564   5.208   9.412
13017WAT     H139293   9.543   5.254   9.326
13017WAT     H239294   9.663   5.195   9.419
13018WAT      O39295   8.602   0.795   5.400
13018WAT     H139296   8.577   0.772   5.494
13018WAT     H239297   8.520   0.815   5.347
13019WAT      O39298   4.434   6.312   4.103
13019WAT     H139299   4.451   6.406   4.074
13019WAT     H239300   4.496   6.251   4.052
13020WAT      O39301   4.328   7.628   7.769
13020WAT     H139302   4.311   7.652   7.674
13020WAT     H239303   4.352   7.531   7.775
13021WAT      O39304   2.405   9.455   6.173
13021WAT     H139305   2.392   9.380   6.108
13021WAT     H239306   2.424   9.417   6.264
13022WAT      O39307   8.822   0.753   1.771
13022WAT     H139308   8.835   0.839   1.721
13022WAT     H239309   8.739   0.759   1.827
13023WAT      O39310   0.841   1.731   9.273
13023WAT     H139311   0.766   1.793   9.297
13023WAT     H239312   0.846   1.658   9.342
13024WAT      O39313   6.468   8.245   3.864
13024WAT     H139314   6.544   8.182   3.878
13024WAT     H239315   6.387   8.212   3.913
13025WAT      O39316   6.809   4.942   5.595
13025WAT     H139317   6.740   4.875   5.568
13025WAT     H239318   6.782   5.033   5.562
13026WAT      O39319   8.872   3.771   7.258
13026WAT     H139320   8.832   3.855   7.220
13026WAT     H239321   8.799   3.706   7.279
13027WAT      O39322   6.631   5.040   3.185
13027WAT     H139323   6.566   5.115   3.200
13027WAT     H239324   6.686   5.060   3.103
13028WAT      O39325   7.644   4.725   5.261
13028WAT     H139326   7.659   4.816   5.221
13028WAT     H239327   7.612   4.735   5.355
13029WAT      O39328   2.154   5.776   9.675
13029WAT     H139329   2.059   5.806   9.677
13029WAT     H239330   2.166   5.707   9.603
13030WAT      O39331   1.565   0.962   6.718
13030WAT     H139332   1.597   0.912   6.638
13030WAT     H239333   1.643   1.010   6.760
13031WAT      O39334   3.704   5.283   1.995
13031WAT     H139335   3.724   5.230   1.913
13031WAT     H239336   3.657   5.226   2.062
13032WAT      O39337   8.860   1.578   5.806
13032WAT     H139338   8.781   1.595   5.747
13032WAT     H239339   8.859   1.483   5.838
13033WAT      O39340   4.273   9.593   8.223
13033WAT     H139341   4.315   9.509   8.257
13033WAT     H239342   4.304   9.611   8.130
13034WAT      O39343   5.469   1.328   7.709
13034WAT     H139344   5.528   1.405   7.685
13034WAT     H239345   5.516   1.242   7.686
13035WAT      O39346   9.766   5.043   4.086
13035WAT     H139347   9.741   4.978   4.015
13035WAT     H239348   9.862   5.067   4.077
13036WAT      O39349   6.680   3.897   0.541
13036WAT     H139350   6.716   3.897   0.448
13036WAT     H239351   6.754   3.877   0.605
13037WAT      O39352   1.856   5.942   4.179
13037WAT     H139353   1.805   5.945   4.093
13037WAT     H239354   1.954   5.941   4.160
13038WAT      O39355   8.729   7.712   7.462
13038WAT     H139356   8.738   7.671   7.371
13038WAT     H239357   8.755   7.644   7.532
13039WAT      O39358   3.949   5.551   9.107
13039WAT     H139359   3.920   5.532   9.013
13039WAT     H239360   4.020   5.621   9.106
13040WAT      O39361   2.328   8.472   0.013
13040WAT     H139362   2.360   8.566   0.028
13040WAT     H239363   2.358   8.414   0.089
13041WAT      O39364   6.279   6.185   8.093
13041WAT     H139365   6.215   6.208   8.019
13041WAT     H239366   6.250   6.229   8.177
13042WAT      O39367   1.381   0.892   5.609
13042WAT     H139368   1.479   0.909   5.604
13042WAT     H239369   1.355   0.826   5.538
13043WAT      O39370   9.511   3.143   4.179
13043WAT     H139371   9.446   3.085   4.129
13043WAT     H239372   9.501   3.127   4.277
13044WAT      O39373   8.950   7.563   3.301
13044WAT     H139374   8.866   7.550   3.354
13044WAT     H239375   8.927   7.589   3.207
13045WAT      O39376   5.015   9.116   2.663
13045WAT     H139377   4.921   9.103   2.697
13045WAT     H239378   5.039   9.212   2.668
13046WAT      O39379   2.900   6.147   4.383
13046WAT     H139380   2.947   6.142   4.471
13046WAT     H239381   2.819   6.206   4.391
13047WAT      O39382   6.233   3.246   2.037
13047WAT     H139383   6.231   3.344   2.057
13047WAT     H239384   6.196   3.195   2.115
13048WAT      O39385   8.231   9.716   9.603
13048WAT     H139386   8.199   9.724   9.698
13048WAT     H239387   8.213   9.801   9.555
13049WAT      O39388   6.501   8.677   5.548
13049WAT     H139389   6.522   8.730   5.630
13049WAT     H239390   6.568   8.603   5.538
13050WAT      O39391   3.786   2.881   5.038
13050WAT     H139392   3.751   2.869   5.131
13050WAT     H239393   3.771   2.975   5.009
13051WAT      O39394   1.707   9.233   2.145
13051WAT     H139395   1.803   9.255   2.132
13051WAT     H239396   1.686   9.146   2.100
13052WAT      O39397   2.721   8.464   6.641
13052WAT     H139398   2.806   8.449   6.590
13052WAT     H239399   2.659   8.519   6.586
13053WAT      O39400   2.806   1.821   0.825
13053WAT     H139401   2.716   1.777   0.832
13053WAT     H239402   2.860   1.774   0.755
13054WAT      O39403   0.630   4.778   7.001
13054WAT     H139404   0.679   4.809   6.919
13054WAT     H239405   0.533   4.797   6.991
13055WAT      O39406   9.588   0.832   3.767
13055WAT     H139407   9.648   0.912   3.772
13055WAT     H239408   9.574   0.807   3.671
13056WAT      O39409   2.046   0.806   2.027
13056WAT     H139410   2.127   0.850   1.988
13056WAT     H239411   2.051   0.808   2.127
13057WAT      O39412   7.419   8.654   3.967
13057WAT     H139413   7.437   8.752   3.972
13057WAT     H239414   7.428   8.614   4.058
13058WAT      O39415   2.508   2.660   2.135
13058WAT     H139416   2.571   2.584   2.153
13058WAT     H239417   2.552   2.746   2.160
13059WAT      O39418   5.225   7.537   9.606
13059WAT     H139419   5.260   7.513   9.697
13059WAT     H239420   5.291   7.508   9.536
13060WAT      O39421   8.229   6.415   8.041
13060WAT     H139422   8.195   6.429   7.949
13060WAT     H239423   8.327   6.393   8.038
13061WAT      O39424   6.194   5.085   5.693
13061WAT     H139425   6.096   5.083   5.676
13061WAT     H239426   6.236   5.157   5.636
13062WAT      O39427   8.177   0.478   1.493
13062WAT     H139428   8.092   0.527   1.514
13062WAT     H239429   8.184   0.398   1.552
13063WAT      O39430   2.281   0.390   5.574
13063WAT     H139431   2.265   0.466   5.511
13063WAT     H239432   2.294   0.426   5.667
13064WAT      O39433   3.558   9.126   7.928
13064WAT     H139434   3.584   9.218   7.899
13064WAT     H239435   3.523   9.129   8.021
13065WAT      O39436   7.927   3.873   7.035
13065WAT     H139437   7.939   3.968   7.008
13065WAT     H239438   7.927   3.866   7.135
13066WAT      O39439   5.858   0.671   4.970
13066WAT     H139440   5.819   0.761   4.990
13066WAT     H239441   5.822   0.604   5.035
13067WAT      O39442   0.613   2.783   6.025
13067WAT     H139443   0.563   2.869   6.021
13067WAT     H239444   0.549   2.707   6.040
13068WAT      O39445   2.617   6.152   7.056
13068WAT     H139446   2.539   6.104   7.016
13068WAT     H239447   2.624   6.243   7.015
13069WAT      O39448   1.184   1.916   3.558
13069WAT     H139449   1.279   1.947   3.566
13069WAT     H239450   1.136   1.977   3.495
13070WAT      O39451   1.616   7.574   6.300
13070WAT     H139452   1.583   7.571   6.394
13070WAT     H239453   1.552   7.526   6.240
13071WAT      O39454   4.666   0.354   6.180
13071WAT     H139455   4.617   0.389   6.100
13071WAT     H239456   4.753   0.315   6.151
13072WAT      O39457   1.604   9.055   7.323
13072WAT     H139458   1.547   8.987   7.371
13072WAT     H239459   1.655   9.109   7.390
13073WAT      O39460   9.419   2.862   8.158
13073WAT     H139461   9.442   2.783   8.215
13073WAT     H239462   9.366   2.927   8.213
13074WAT      O39463   8.282   0.512   6.950
13074WAT     H139464   8.184   0.530   6.945
13074WAT     H239465   8.305   0.473   7.039
13075WAT      O39466   7.727   5.900   1.448
13075WAT     H139467   7.675   5.943   1.522
13075WAT     H239468   7.665   5.876   1.373
13076WAT      O39469   3.560   8.317   8.541
13076WAT     H139470   3.508   8.233   8.530
13076WAT     H239471   3.507   8.382   8.596
13077WAT      O39472   1.980   7.702   0.368
13077WAT     H139473   2.077   7.707   0.393
13077WAT     H239474   1.967   7.743   0.278
13078WAT      O39475   7.053   7.757   4.548
13078WAT     H139476   7.028   7.804   4.463
13078WAT     H239477   7.068   7.660   4.530
13079WAT      O39478   4.423   5.457   1.127
13079WAT     H139479   4.375   5.443   1.214
13079WAT     H239480   4.394   5.388   1.061
13080WAT      O39481   0.851   3.877   6.725
13080WAT     H139482   0.847   3.797   6.665
13080WAT     H239483   0.934   3.872   6.781
13081WAT      O39484   2.722   9.481   0.150
13081WAT     H139485   2.786   9.406   0.137
13081WAT     H239486   2.634   9.458   0.109
13082WAT      O39487   0.962   5.809   6.143
13082WAT     H139488   0.952   5.710   6.132
13082WAT     H239489   1.048   5.838   6.101
13083WAT      O39490   0.543   2.701   1.510
13083WAT     H139491   0.568   2.621   1.564
13083WAT     H239492   0.547   2.782   1.568
13084WAT      O39493   1.131   0.622   2.806
13084WAT     H139494   1.040   0.662   2.803
13084WAT     H239495   1.185   0.667   2.877
13085WAT      O39496   7.413   1.079   1.568
13085WAT     H139497   7.363   1.164   1.585
13085WAT     H239498   7.450   1.080   1.475
13086WAT      O39499   3.620   2.028   2.315
13086WAT     H139500   3.587   2.115   2.353
13086WAT     H239501   3.639   1.964   2.390
13087WAT      O39502   0.677   3.779   1.337
13087WAT     H139503   0.686   3.782   1.437
13087WAT     H239504   0.732   3.703   1.301
13088WAT      O39505   4.690   1.900   4.817
13088WAT     H139506   4.647   1.990   4.809
13088WAT     H239507   4.621   1.829   4.799
13089WAT      O39508   5.902   2.152   7.168
13089WAT     H139509   5.913   2.060   7.206
13089WAT     H239510   5.983   2.207   7.191
13090WAT      O39511   2.236   1.690   4.866
13090WAT     H139512   2.266   1.668   4.773
13090WAT     H239513   2.313   1.724   4.919
13091WAT      O39514   4.058   2.505   9.160
13091WAT     H139515   4.037   2.595   9.197
13091WAT     H239516   3.979   2.469   9.110
13092WAT      O39517   7.151   4.391   3.932
13092WAT     H139518   7.103   4.462   3.880
13092WAT     H239519   7.223   4.351   3.875
13093WAT      O39520   0.325   0.139   7.497
13093WAT     H139521   0.396   0.200   7.532
13093WAT     H239522   0.267   0.189   7.433
13094WAT      O39523   9.213   4.734   3.300
13094WAT     H139524   9.182   4.669   3.370
13094WAT     H239525   9.242   4.819   3.343
13095WAT      O39526   5.024   8.678   7.191
13095WAT     H139527   4.927   8.684   7.166
13095WAT     H239528   5.034   8.697   7.289
13096WAT      O39529   6.471   2.902   0.114
13096WAT     H139530   6.413   2.952   0.050
13096WAT     H239531   6.505   2.818   0.070
13097WAT      O39532   5.313   1.378   4.336
13097WAT     H139533   5.213   1.376   4.338
13097WAT     H239534   5.348   1.291   4.301
13098WAT      O39535   8.978   1.842   9.307
13098WAT     H139536   9.053   1.789   9.346
13098WAT     H239537   8.999   1.867   9.213
13099WAT      O39538   5.486   7.662   6.814
13099WAT     H139539   5.450   7.654   6.907
13099WAT     H239540   5.530   7.576   6.787
13100WAT      O39541   5.846   7.513   6.764
13100WAT     H139542   5.848   7.513   6.664
13100WAT     H239543   5.762   7.469   6.796
13101WAT      O39544   7.091   7.030   9.611
13101WAT     H139545   7.138   6.942   9.623
13101WAT     H239546   7.071   7.044   9.514
13102WAT      O39547   8.806   9.490   1.848
13102WAT     H139548   8.786   9.570   1.905
13102WAT     H239549   8.773   9.407   1.893
13103WAT      O39550   1.230   2.646   3.834
13103WAT     H139551   1.209   2.637   3.736
13103WAT     H239552   1.230   2.555   3.876
13104WAT      O39553   8.567   6.983   1.687
13104WAT     H139554   8.529   6.911   1.629
13104WAT     H239555   8.650   6.950   1.731
13105WAT      O39556   9.440   8.477   4.897
13105WAT     H139557   9.377   8.441   4.828
13105WAT     H239558   9.509   8.408   4.919
13106WAT      O39559   1.214   7.020   3.773
13106WAT     H139560   1.234   6.953   3.845
13106WAT     H239561   1.139   7.079   3.803
13107WAT      O39562   6.119   3.199   6.112
13107WAT     H139563   6.055   3.199   6.034
13107WAT     H239564   6.093   3.128   6.177
13108WAT      O39565   7.050   9.269   8.350
13108WAT     H139566   7.006   9.231   8.431
13108WAT     H239567   7.093   9.195   8.298
13109WAT      O39568   1.488   5.198   4.748
13109WAT     H139569   1.581   5.213   4.781
13109WAT     H239570   1.448   5.285   4.718
13110WAT      O39571   9.092   6.077   5.113
13110WAT     H139572   9.137   6.165   5.102
13110WAT     H239573   9.122   6.015   5.040
13111WAT      O39574   9.431   7.052   7.706
13111WAT     H139575   9.489   6.988   7.655
13111WAT     H239576   9.480   7.082   7.788
13112WAT      O39577   1.736   6.177   1.285
13112WAT     H139578   1.710   6.200   1.379
13112WAT     H239579   1.694   6.089   1.259
13113WAT      O39580   2.113   2.960   0.273
13113WAT     H139581   2.081   3.048   0.237
13113WAT     H239582   2.159   2.975   0.361
13114WAT      O39583   2.305   7.460   3.649
13114WAT     H139584   2.235   7.433   3.582
13114WAT     H239585   2.302   7.559   3.662
13115WAT      O39586   7.919   0.980   4.880
13115WAT     H139587   7.837   1.029   4.849
13115WAT     H239588   7.895   0.887   4.906
13116WAT      O39589   3.684   5.129   0.781
13116WAT     H139590   3.679   5.047   0.724
13116WAT     H239591   3.612   5.193   0.753
13117WAT      O39592   9.271   1.694   4.260
13117WAT     H139593   9.276   1.681   4.161
13117WAT     H239594   9.330   1.627   4.305
13118WAT      O39595   4.434   0.022   6.856
13118WAT     H139596   4.420   0.000   6.760
13118WAT     H239597   4.356   0.074   6.891
13119WAT      O39598   8.522   8.978   9.684
13119WAT     H139599   8.462   9.003   9.608
13119WAT     H239600   8.492   9.025   9.767
13120WAT      O39601   8.357   5.198   1.740
13120WAT     H139602   8.296   5.122   1.718
13120WAT     H239603   8.344   5.225   1.835
13121WAT      O39604   8.878   7.464   1.726
13121WAT     H139605   8.909   7.412   1.646
13121WAT     H239606   8.869   7.560   1.702
13122WAT      O39607   3.244   5.402   8.240
13122WAT     H139608   3.213   5.412   8.145
13122WAT     H239609   3.341   5.375   8.240
13123WAT      O39610   0.094   4.930   4.841
13123WAT     H139611   0.118   4.844   4.887
13123WAT     H239612   0.146   4.937   4.755
13124WAT      O39613   2.048   3.544   4.306
13124WAT     H139614   2.108   3.484   4.359
13124WAT     H239615   1.988   3.488   4.248
13125WAT      O39616   9.883   0.996   5.841
13125WAT     H139617   9.974   0.989   5.799
13125WAT     H239618   9.892   1.034   5.933
13126WAT      O39619   1.485   8.368   6.932
13126WAT     H139620   1.400   8.414   6.955
13126WAT     H239621   1.470   8.269   6.928
13127WAT      O39622   2.380   7.211   4.938
13127WAT     H139623   2.356   7.195   5.034
13127WAT     H239624   2.297   7.210   4.882
13128WAT      O39625   1.439   4.975   8.302
13128WAT     H139626   1.428   4.880   8.274
13128WAT     H239627   1.418   4.984   8.399
13129WAT      O39628   2.249   3.916   6.567
13129WAT     H139629   2.302   4.001   6.559
13129WAT     H239630   2.160   3.929   6.525
13130WAT      O39631   8.914   0.110   7.412
13130WAT     H139632   8.977   0.162   7.354
13130WAT     H239633   8.941   0.014   7.413
13131WAT      O39634   2.236   8.017   5.766
13131WAT     H139635   2.177   8.018   5.846
13131WAT     H239636   2.268   8.110   5.748
13132WAT      O39637   3.679   5.519   2.342
13132WAT     H139638   3.678   5.517   2.242
13132WAT     H239639   3.606   5.461   2.378
13133WAT      O39640   1.308   3.359   5.969
13133WAT     H139641   1.343   3.266   5.976
13133WAT     H239642   1.384   3.424   5.970
13134WAT      O39643   0.874   2.351   7.497
13134WAT     H139644   0.965   2.387   7.480
13134WAT     H239645   0.833   2.397   7.576
13135WAT      O39646   5.506   7.622   8.137
13135WAT     H139647   5.443   7.680   8.190
13135WAT     H239648   5.548   7.555   8.197
13136WAT      O39649   2.787   5.678   9.408
13136WAT     H139650   2.823   5.631   9.327
13136WAT     H239651   2.722   5.619   9.455
13137WAT      O39652   1.641   6.738   9.146
13137WAT     H139653   1.563   6.780   9.191
13137WAT     H239654   1.684   6.671   9.207
13138WAT      O39655   3.105   5.072   8.003
13138WAT     H139656   3.116   5.171   8.012
13138WAT     H239657   3.023   5.052   7.950
13139WAT      O39658   6.910   8.699   1.409
13139WAT     H139659   6.940   8.746   1.492
13139WAT     H239660   6.981   8.636   1.379
13140WAT      O39661   5.162   8.756   2.572
13140WAT     H139662   5.191   8.690   2.504
13140WAT     H239663   5.114   8.832   2.528
13141WAT      O39664   2.206   0.756   4.912
13141WAT     H139665   2.135   0.770   4.842
13141WAT     H239666   2.220   0.658   4.925
13142WAT      O39667   1.582   5.359   4.441
13142WAT     H139668   1.511   5.308   4.391
13142WAT     H239669   1.554   5.454   4.450
13143WAT      O39670   4.360   3.104   1.635
13143WAT     H139671   4.347   3.172   1.708
13143WAT     H239672   4.457   3.082   1.627
13144WAT      O39673   6.260   0.115   1.203
13144WAT     H139674   6.336   0.050   1.208
13144WAT     H239675   6.216   0.122   1.292
13145WAT      O39676   5.180   3.385   3.911
13145WAT     H139677   5.182   3.364   4.009
13145WAT     H239678   5.087   3.413   3.885
13146WAT      O39679   5.131   7.682   7.398
13146WAT     H139680   5.054   7.733   7.361
13146WAT     H239681   5.208   7.744   7.412
13147WAT      O39682   8.207   6.835   7.517
13147WAT     H139683   8.232   6.766   7.449
13147WAT     H239684   8.108   6.830   7.534
13148WAT      O39685   6.492   2.979   6.316
13148WAT     H139686   6.586   3.003   6.293
13148WAT     H239687   6.464   2.899   6.261
13149WAT      O39688   5.256   8.167   0.572
13149WAT     H139689   5.236   8.076   0.609
13149WAT     H239690   5.188   8.232   0.604
13150WAT      O39691   9.326   8.878   8.304
13150WAT     H139692   9.307   8.809   8.234
13150WAT     H239693   9.292   8.845   8.392
13151WAT      O39694   2.014   9.819   4.974
13151WAT     H139695   1.959   9.860   5.047
13151WAT     H239696   2.052   9.891   4.916
13152WAT      O39697   2.977   6.963   4.907
13152WAT     H139698   3.041   7.038   4.889
13152WAT     H239699   3.024   6.875   4.894
13153WAT      O39700   0.795   4.094   0.513
13153WAT     H139701   0.750   4.017   0.468
13153WAT     H239702   0.894   4.077   0.517
13154WAT      O39703   4.136   1.303   5.287
13154WAT     H139704   4.054   1.299   5.345
13154WAT     H239705   4.111   1.340   5.197
13155WAT      O39706   3.086   1.365   7.773
13155WAT     H139707   3.122   1.457   7.758
13155WAT     H239708   3.031   1.337   7.694
13156WAT      O39709   2.902   4.817   2.909
13156WAT     H139710   2.811   4.789   2.878
13156WAT     H239711   2.907   4.917   2.911
13157WAT      O39712   0.915   9.738   3.740
13157WAT     H139713   0.974   9.815   3.763
13157WAT     H239714   0.970   9.656   3.725
13158WAT      O39715   6.100   1.970   5.706
13158WAT     H139716   6.010   1.928   5.710
13158WAT     H239717   6.153   1.945   5.787
13159WAT      O39718   3.995   5.991   7.059
13159WAT     H139719   3.964   6.006   6.965
13159WAT     H239720   4.028   5.897   7.069
13160WAT      O39721   1.569   4.769   5.493
13160WAT     H139722   1.581   4.820   5.579
13160WAT     H239723   1.553   4.833   5.418
13161WAT      O39724   1.959   4.423   0.122
13161WAT     H139725   2.016   4.499   0.091
13161WAT     H239726   2.007   4.337   0.104
13162WAT      O39727   5.118   3.309   4.601
13162WAT     H139728   5.171   3.364   4.536
13162WAT     H239729   5.039   3.270   4.553
13163WAT      O39730   3.195   8.371   6.659
13163WAT     H139731   3.158   8.464   6.651
13163WAT     H239732   3.274   8.372   6.720
13164WAT      O39733   9.012   2.888   7.130
13164WAT     H139734   8.922   2.865   7.095
13164WAT     H239735   9.078   2.817   7.104
13165WAT      O39736   3.316   9.629   9.416
13165WAT     H139737   3.382   9.559   9.385
13165WAT     H239738   3.337   9.653   9.510
13166WAT      O39739   8.610   7.516   9.520
13166WAT     H139740   8.518   7.482   9.537
13166WAT     H239741   8.609   7.616   9.517
13167WAT      O39742   3.709   6.566   1.407
13167WAT     H139743   3.713   6.474   1.445
13167WAT     H239744   3.616   6.588   1.379
13168WAT      O39745   7.779   6.106   0.614
13168WAT     H139746   7.824   6.116   0.525
13168WAT     H239747   7.843   6.066   0.679
13169WAT      O39748   8.464   8.015   1.920
13169WAT     H139749   8.412   8.029   2.004
13169WAT     H239750   8.554   7.977   1.943
13170WAT      O39751   5.175   8.748   5.793
13170WAT     H139752   5.254   8.690   5.811
13170WAT     H239753   5.115   8.703   5.728
13171WAT      O39754   2.749   0.122   0.397
13171WAT     H139755   2.729   0.215   0.366
13171WAT     H239756   2.775   0.066   0.319
13172WAT      O39757   8.324   3.953   5.455
13172WAT     H139758   8.292   3.890   5.384
13172WAT     H239759   8.399   4.009   5.419
13173WAT      O39760   9.016   9.361   6.394
13173WAT     H139761   9.040   9.446   6.442
13173WAT     H239762   8.917   9.347   6.398
13174WAT      O39763   2.300   7.217   0.641
13174WAT     H139764   2.363   7.158   0.591
13174WAT     H239765   2.287   7.302   0.590
13175WAT      O39766   3.130   1.827   2.673
13175WAT     H139767   3.130   1.732   2.641
13175WAT     H239768   3.073   1.882   2.613
13176WAT      O39769   9.000   0.838   2.649
13176WAT     H139770   9.077   0.775   2.659
13176WAT     H239771   8.939   0.828   2.727
13177WAT      O39772   3.088   0.042   4.001
13177WAT     H139773   3.115   0.113   4.067
13177WAT     H239774   3.171  -0.000   3.963
13178WAT      O39775   7.690   9.325   6.958
13178WAT     H139776   7.652   9.308   6.867
13178WAT     H239777   7.730   9.241   6.994
13179WAT      O39778   2.888   5.538   8.360
13179WAT     H139779   2.901   5.460   8.299
13179WAT     H239780   2.900   5.623   8.309
13180WAT      O39781   7.446   5.769   0.676
13180WAT     H139782   7.392   5.823   0.611
13180WAT     H239783   7.502   5.831   0.732
13181WAT      O39784   3.737   8.105   7.319
13181WAT     H139785   3.682   8.105   7.236
13181WAT     H239786   3.750   8.010   7.350
13182WAT      O39787   8.652   7.349   5.700
13182WAT     H139788   8.606   7.323   5.615
13182WAT     H239789   8.655   7.271   5.762
13183WAT      O39790   0.657   4.464   9.739
13183WAT     H139791   0.719   4.476   9.662
13183WAT     H239792   0.643   4.551   9.785
13184WAT      O39793   5.262   3.602   6.854
13184WAT     H139794   5.315   3.645   6.782
13184WAT     H239795   5.208   3.671   6.902
13185WAT      O39796   6.288   6.355   5.147
13185WAT     H139797   6.199   6.393   5.122
13185WAT     H239798   6.354   6.429   5.158
13186WAT      O39799   6.249   0.050   8.602
13186WAT     H139800   6.287   0.039   8.510
13186WAT     H239801   6.292   0.128   8.647
13187WAT      O39802   7.900   0.656   1.643
13187WAT     H139803   7.871   0.655   1.739
13187WAT     H239804   7.928   0.749   1.618
13188WAT      O39805   5.134   6.209   7.807
13188WAT     H139806   5.094   6.192   7.897
13188WAT     H239807   5.170   6.123   7.770
13189WAT      O39808   4.068   2.963   8.588
13189WAT     H139809   4.121   3.043   8.618
13189WAT     H239810   3.984   2.994   8.543
13190WAT      O39811   6.326   8.978   4.342
13190WAT     H139812   6.389   9.025   4.405
13190WAT     H239813   6.294   8.893   4.385
13191WAT      O39814   1.117   3.648   4.479
13191WAT     H139815   1.113   3.670   4.381
13191WAT     H239816   1.204   3.603   4.499
13192WAT      O39817   7.127   8.667   9.060
13192WAT     H139818   7.045   8.672   9.003
13192WAT     H239819   7.178   8.752   9.052
13193WAT      O39820   5.302   4.912   8.621
13193WAT     H139821   5.368   4.987   8.618
13193WAT     H239822   5.259   4.909   8.711
13194WAT      O39823   7.600   0.462   8.056
13194WAT     H139824   7.685   0.449   8.106
13194WAT     H239825   7.620   0.474   7.959
13195WAT      O39826   8.500   2.501   8.037
13195WAT     H139827   8.535   2.585   7.996
13195WAT     H239828   8.460   2.444   7.965
13196WAT      O39829   6.374   5.142   0.163
13196WAT     H139830   6.422   5.120   0.079
13196WAT     H239831   6.440   5.156   0.237
13197WAT      O39832   8.481   9.126   4.912
13197WAT     H139833   8.566   9.172   4.885
13197WAT     H239834   8.403   9.174   4.871
13198WAT      O39835   7.386   2.675   4.796
13198WAT     H139836   7.483   2.694   4.781
13198WAT     H239837   7.346   2.749   4.852
13199WAT      O39838   6.588   7.427   5.119
13199WAT     H139839   6.554   7.336   5.095
13199WAT     H239840   6.535   7.496   5.070
13200WAT      O39841   6.402   7.633   2.512
13200WAT     H139842   6.480   7.693   2.490
13200WAT     H239843   6.416   7.591   2.602
13201WAT      O39844   0.414   4.616   8.396
13201WAT     H139845   0.510   4.593   8.413
13201WAT     H239846   0.366   4.535   8.362
13202WAT      O39847   3.943   6.204   5.007
13202WAT     H139848   3.851   6.217   4.969
13202WAT     H239849   4.006   6.179   4.933
13203WAT      O39850   0.710   3.836   1.586
13203WAT     H139851   0.659   3.795   1.662
13203WAT     H239852   0.807   3.839   1.609
13204WAT      O39853   8.971   3.699   4.503
13204WAT     H139854   8.887   3.753   4.506
13204WAT     H239855   9.023   3.712   4.587
13205WAT      O39856   0.981   6.957   2.893
13205WAT     H139857   0.952   7.053   2.899
13205WAT     H239858   1.069   6.946   2.939
13206WAT      O39859   2.320   3.302   7.851
13206WAT     H139860   2.298   3.211   7.885
13206WAT     H239861   2.301   3.307   7.753
13207WAT      O39862   9.663   4.756   2.071
13207WAT     H139863   9.657   4.840   2.017
13207WAT     H239864   9.747   4.756   2.124
13208WAT      O39865   0.595   9.559   6.171
13208WAT     H139866   0.672   9.510   6.213
13208WAT     H239867   0.532   9.589   6.243
13209WAT      O39868   0.511   1.310   6.614
13209WAT     H139869   0.477   1.327   6.706
13209WAT     H239870   0.494   1.391   6.557
13210WAT      O39871   7.984   3.852   3.693
13210WAT     H139872   8.021   3.912   3.765
13210WAT     H239873   7.952   3.767   3.735
13211WAT      O39874   2.519   3.691   2.699
13211WAT     H139875   2.519   3.757   2.775
13211WAT     H239876   2.610   3.651   2.690
13212WAT      O39877   5.118   1.929   1.793
13212WAT     H139878   5.099   2.027   1.788
13212WAT     H239879   5.147   1.895   1.703
13213WAT      O39880   5.126   8.530   0.785
13213WAT     H139881   5.092   8.451   0.734
13213WAT     H239882   5.055   8.599   0.791
13214WAT      O39883   8.546   2.412   3.200
13214WAT     H139884   8.475   2.358   3.155
13214WAT     H239885   8.626   2.354   3.217
13215WAT      O39886   0.578   1.745   7.097
13215WAT     H139887   0.572   1.745   6.998
13215WAT     H239888   0.633   1.668   7.127
13216WAT      O39889   0.463   2.323   2.863
13216WAT     H139890   0.544   2.329   2.921
13216WAT     H239891   0.383   2.301   2.920
13217WAT      O39892   8.052   8.264   1.778
13217WAT     H139893   8.111   8.233   1.703
13217WAT     H239894   8.085   8.352   1.812
13218WAT      O39895   0.805   0.913   1.662
13218WAT     H139896   0.848   0.937   1.574
13218WAT     H239897   0.710   0.942   1.662
13219WAT      O39898   0.286   0.183   1.367
13219WAT     H139899   0.292   0.083   1.367
13219WAT     H239900   0.347   0.220   1.437
13220WAT      O39901   1.612   8.074   7.161
13220WAT     H139902   1.548   8.097   7.088
13220WAT     H239903   1.685   8.143   7.164
13221WAT      O39904   0.579   8.927   4.576
13221WAT     H139905   0.609   8.846   4.626
13221WAT     H239906   0.492   8.907   4.530
13222WAT      O39907   1.017   5.856   1.694
13222WAT     H139908   1.095   5.830   1.751
13222WAT     H239909   1.029   5.950   1.662
13223WAT      O39910   9.532   4.630   3.779
13223WAT     H139911   9.562   4.631   3.683
13223WAT     H239912   9.453   4.691   3.789
13224WAT      O39913   2.935   4.072   5.192
13224WAT     H139914   2.979   4.028   5.114
13224WAT     H239915   2.874   4.145   5.159
13225WAT      O39916   9.472   7.335   2.086
13225WAT     H139917   9.401   7.326   2.156
13225WAT     H239918   9.524   7.250   2.080
13226WAT      O39919   0.859   0.152   6.679
13226WAT     H139920   0.952   0.115   6.688
13226WAT     H239921   0.858   0.224   6.610
13227WAT      O39922   8.258   3.605   5.716
13227WAT     H139923   8.190   3.567   5.779
13227WAT     H239924   8.259   3.550   5.632
13228WAT      O39925   9.177   1.555   3.411
13228WAT     H139926   9.077   1.561   3.412
13228WAT     H239927   9.216   1.647   3.409
13229WAT      O39928   7.429   7.046   1.295
13229WAT     H139929   7.509   6.995   1.326
13229WAT     H239930   7.421   7.130   1.349
13230WAT      O39931   6.142   1.913   1.303
13230WAT     H139932   6.176   1.957   1.387
13230WAT     H239933   6.129   1.815   1.319
13231WAT      O39934   8.350   7.516   6.729
13231WAT     H139935   8.266   7.562   6.700
13231WAT     H239936   8.355   7.426   6.685
13232WAT      O39937   1.915   5.959   9.061
13232WAT     H139938   1.852   5.960   9.138
13232WAT     H239939   2.004   5.925   9.090
13233WAT      O39940   5.063   4.351   9.339
13233WAT     H139941   5.149   4.399   9.327
13233WAT     H239942   5.018   4.383   9.423
13234WAT      O39943   3.008   1.189   0.981
13234WAT     H139944   3.063   1.169   0.900
13234WAT     H239945   2.977   1.284   0.977
13235WAT      O39946   4.470   4.588   5.490
13235WAT     H139947   4.395   4.547   5.543
13235WAT     H239948   4.480   4.539   5.404
13236WAT      O39949   0.747   0.284   2.949
13236WAT     H139950   0.835   0.302   2.994
13236WAT     H239951   0.690   0.227   3.009
13237WAT      O39952   7.556   6.381   2.870
13237WAT     H139953   7.586   6.473   2.894
13237WAT     H239954   7.527   6.333   2.953
13238WAT      O39955   8.727   5.354   6.259
13238WAT     H139956   8.705   5.411   6.180
13238WAT     H239957   8.652   5.290   6.276
13239WAT      O39958   3.958   8.696   1.203
13239WAT     H139959   3.944   8.777   1.145
13239WAT     H239960   3.981   8.618   1.146
13240WAT      O39961   2.337   5.100   5.592
13240WAT     H139962   2.360   5.191   5.628
13240WAT     H239963   2.410   5.036   5.616
13241WAT      O39964   0.443   2.393   5.595
13241WAT     H139965   0.484   2.480   5.622
13241WAT     H239966   0.350   2.388   5.630
13242WAT      O39967   7.891   5.682   3.761
13242WAT     H139968   7.954   5.639   3.825
13242WAT     H239969   7.856   5.614   3.697
13243WAT      O39970   3.396   5.916   5.926
13243WAT     H139971   3.342   5.984   5.875
13243WAT     H239972   3.462   5.873   5.865
13244WAT      O39973   6.955   3.338   4.325
13244WAT     H139974   6.930   3.271   4.395
13244WAT     H239975   7.002   3.415   4.368
13245WAT      O39976   5.600   7.409   6.817
13245WAT     H139977   5.635   7.400   6.911
13245WAT     H239978   5.512   7.362   6.810
13246WAT      O39979   5.361   8.099   3.147
13246WAT     H139980   5.430   8.098   3.219
13246WAT     H239981   5.371   8.181   3.092
13247WAT      O39982   9.192   3.790   6.901
13247WAT     H139983   9.175   3.873   6.954
13247WAT     H239984   9.248   3.812   6.821
13248WAT      O39985   3.121   6.841   2.394
13248WAT     H139986   3.194   6.905   2.371
13248WAT     H239987   3.082   6.803   2.310
13249WAT      O39988   0.582   0.620   5.434
13249WAT     H139989   0.649   0.615   5.508
13249WAT     H239990   0.603   0.697   5.374
13250WAT      O39991   0.273   8.518   8.532
13250WAT     H139992   0.196   8.461   8.559
13250WAT     H239993   0.246   8.578   8.456
13251WAT      O39994   9.247   0.193   9.144
13251WAT     H139995   9.307   0.126   9.187
13251WAT     H239996   9.177   0.222   9.210
13252WAT      O39997   9.176   8.288   0.257
13252WAT     H139998   9.227   8.227   0.318
13252WAT     H239999   9.086   8.307   0.297
13253WAT      O40000   2.937   9.834   0.903
13253WAT     H140001   2.876   9.786   0.966
13253WAT     H240002   2.887   9.855   0.819
13254WAT      O40003   4.526   0.725   6.079
13254WAT     H140004   4.454   0.793   6.064
13254WAT     H240005   4.581   0.751   6.159
13255WAT      O40006   4.228   3.087   0.517
13255WAT     H140007   4.302   3.033   0.478
13255WAT     H240008   4.219   3.065   0.614
13256WAT      O40009   4.565   5.552   7.885
13256WAT     H140010   4.617   5.485   7.832
13256WAT     H240011   4.474   5.562   7.845
13257WAT      O40012   8.860   0.513   3.890
13257WAT     H140013   8.780   0.471   3.847
13257WAT     H240014   8.943   0.473   3.852
13258WAT      O40015   3.196   6.190   1.935
13258WAT     H140016   3.289   6.225   1.925
13258WAT     H240017   3.138   6.260   1.977
13259WAT      O40018   7.203   5.147   7.298
13259WAT     H140019   7.112   5.139   7.341
13259WAT     H240020   7.219   5.242   7.271
13260WAT      O40021   4.172   0.409   7.881
13260WAT     H140022   4.166   0.352   7.800
13260WAT     H240023   4.084   0.455   7.896
13261WAT      O40024   0.804   7.372   0.237
13261WAT     H140025   0.856   7.429   0.300
13261WAT     H240026   0.811   7.410   0.145
13262WAT      O40027   2.096   7.288   5.231
13262WAT     H140028   2.076   7.372   5.280
13262WAT     H240029   2.038   7.281   5.150
13263WAT      O40030   2.677   0.538   7.923
13263WAT     H140031   2.661   0.475   8.000
13263WAT     H240032   2.606   0.524   7.854
13264WAT      O40033   0.598   1.756   3.612
13264WAT     H140034   0.629   1.814   3.688
13264WAT     H240035   0.675   1.702   3.578
13265WAT      O40036   4.627   8.636   4.962
13265WAT     H140037   4.630   8.681   4.872
13265WAT     H240038   4.651   8.703   5.033
13266WAT      O40039   7.798   9.122   4.633
13266WAT     H140040   7.701   9.147   4.632
13266WAT     H240041   7.851   9.189   4.581
13267WAT      O40042   2.245   7.743   3.623
13267WAT     H140043   2.150   7.728   3.652
13267WAT     H240044   2.283   7.821   3.672
13268WAT      O40045   5.422   1.975   0.376
13268WAT     H140046   5.511   1.998   0.338
13268WAT     H240047   5.433   1.945   0.471
13269WAT      O40048   2.823   5.016   9.443
13269WAT     H140049   2.840   5.108   9.408
13269WAT     H240050   2.782   4.960   9.371
13270WAT      O40051   3.070   8.699   3.143
13270WAT     H140052   3.141   8.683   3.211
13270WAT     H240053   2.980   8.700   3.187
13271WAT      O40054   2.534   6.033   4.197
13271WAT     H140055   2.599   5.956   4.201
13271WAT     H240056   2.565   6.099   4.129
13272WAT      O40057   1.326   4.320   2.871
13272WAT     H140058   1.273   4.352   2.793
13272WAT     H240059   1.384   4.395   2.904
13273WAT      O40060   9.881   6.821   6.850
13273WAT     H140061   9.886   6.814   6.751
13273WAT     H240062   9.973   6.841   6.886
13274WAT      O40063   3.804   7.260   1.541
13274WAT     H140064   3.871   7.314   1.490
13274WAT     H240065   3.820   7.163   1.526
13275WAT      O40066   2.548   6.109   9.392
13275WAT     H140067   2.581   6.020   9.361
13275WAT     H240068   2.449   6.112   9.387
13276WAT      O40069   9.682   5.947   4.586
13276WAT     H140070   9.600   5.978   4.634
13276WAT     H240071   9.748   6.022   4.580
13277WAT      O40072   5.651   8.525   5.156
13277WAT     H140073   5.689   8.475   5.078
13277WAT     H240074   5.569   8.478   5.189
13278WAT      O40075   7.265   0.916   5.746
13278WAT     H140076   7.307   0.950   5.830
13278WAT     H240077   7.232   0.993   5.691
13279WAT      O40078   6.193   6.832   0.663
13279WAT     H140079   6.236   6.800   0.747
13279WAT     H240080   6.261   6.878   0.606
13280WAT      O40081   5.925   5.409   4.683
13280WAT     H140082   5.852   5.341   4.687
13280WAT     H240083   6.012   5.367   4.708
13281WAT      O40084   9.800   8.854   3.484
13281WAT     H140085   9.718   8.805   3.513
13281WAT     H240086   9.774   8.929   3.423
13282WAT      O40087   0.889   6.155   8.801
13282WAT     H140088   0.941   6.240   8.800
13282WAT     H240089   0.874   6.124   8.707
13283WAT      O40090   2.659   8.045   0.348
13283WAT     H140091   2.613   8.121   0.394
13283WAT     H240092   2.636   8.046   0.251
13284WAT      O40093   4.657   2.397   7.082
13284WAT     H140094   4.608   2.353   7.007
13284WAT     H240095   4.593   2.419   7.155
13285WAT      O40096   4.285   8.100   1.591
13285WAT     H140097   4.348   8.174   1.569
13285WAT     H240098   4.221   8.130   1.661
13286WAT      O40099   8.571   8.118   6.326
13286WAT     H140100   8.663   8.144   6.295
13286WAT     H240101   8.535   8.190   6.385
13287WAT      O40102   3.048   8.314   2.938
13287WAT     H140103   3.109   8.290   2.863
13287WAT     H240104   3.002   8.401   2.918
13288WAT      O40105   8.085   1.044   4.689
13288WAT     H140106   8.182   1.019   4.693
13288WAT     H240107   8.035   0.997   4.762
13289WAT      O40108   3.011   2.930   9.139
13289WAT     H140109   3.037   2.904   9.233
13289WAT     H240110   2.996   3.029   9.135
13290WAT      O40111   4.400   1.195   6.833
13290WAT     H140112   4.495   1.166   6.847
13290WAT     H240113   4.392   1.293   6.850
13291WAT      O40114   7.651   2.744   5.203
13291WAT     H140115   7.580   2.809   5.232
13291WAT     H240116   7.690   2.774   5.116
13292WAT      O40117   1.305   7.972   0.037
13292WAT     H140118   1.335   8.001  -0.054
13292WAT     H240119   1.247   7.891   0.028
13293WAT      O40120   5.091   3.974   2.580
13293WAT     H140121   5.184   3.999   2.607
13293WAT     H240122   5.081   3.987   2.481
13294WAT      O40123   1.979   8.478   3.790
13294WAT     H140124   1.955   8.567   3.829
13294WAT     H240125   1.950   8.406   3.852
13295WAT      O40126   9.236   3.529   6.767
13295WAT     H140127   9.332   3.503   6.756
13295WAT     H240128   9.230   3.616   6.817
13296WAT      O40129   7.373   0.266   8.110
13296WAT     H140130   7.396   0.353   8.067
13296WAT     H240131   7.286   0.232   8.072
13297WAT      O40132   4.879   0.312   0.173
13297WAT     H140133   4.882   0.214   0.150
13297WAT     H240134   4.942   0.363   0.115
13298WAT      O40135   5.994   5.206   7.395
13298WAT     H140136   5.944   5.291   7.408
13298WAT     H240137   5.971   5.166   7.306
13299WAT      O40138   2.850   7.842   0.773
13299WAT     H140139   2.894   7.758   0.742
13299WAT     H240140   2.900   7.879   0.851
13300WAT      O40141   3.741   9.156   8.949
13300WAT     H140142   3.794   9.239   8.967
13300WAT     H240143   3.728   9.145   8.850
13301WAT      O40144   4.984   4.789   9.835
13301WAT     H140145   4.945   4.765   9.746
13301WAT     H240146   5.055   4.723   9.858
13302WAT      O40147   9.723   4.992   5.032
13302WAT     H140148   9.639   4.956   4.992
13302WAT     H240149   9.782   5.027   4.960
13303WAT      O40150   3.238   0.945   3.431
13303WAT     H140151   3.265   0.855   3.399
13303WAT     H240152   3.278   0.962   3.521
13304WAT      O40153   9.050   8.940   9.437
13304WAT     H140154   9.070   8.874   9.510
13304WAT     H240155   8.960   8.982   9.453
13305WAT      O40156   3.153   0.029   7.348
13305WAT     H140157   3.144   0.128   7.337
13305WAT     H240158   3.101  -0.017   7.276
13306WAT      O40159   9.811   3.401   1.031
13306WAT     H140160   9.721   3.426   1.067
13306WAT     H240161   9.799   3.347   0.948
13307WAT      O40162   6.188   4.194   5.420
13307WAT     H140163   6.121   4.121   5.429
13307WAT     H240164   6.266   4.163   5.365
13308WAT      O40165   2.458   5.866   8.216
13308WAT     H140166   2.497   5.774   8.224
13308WAT     H240167   2.425   5.879   8.123
13309WAT      O40168   3.094   7.383   3.751
13309WAT     H140169   3.096   7.453   3.822
13309WAT     H240170   3.144   7.415   3.670
13310WAT      O40171   4.420   5.288   2.678
13310WAT     H140172   4.465   5.260   2.592
13310WAT     H240173   4.466   5.370   2.713
13311WAT      O40174   9.608   6.498   4.189
13311WAT     H140175   9.517   6.519   4.225
13311WAT     H240176   9.637   6.573   4.130
13312WAT      O40177   3.172   1.729   3.664
13312WAT     H140178   3.174   1.780   3.750
13312WAT     H240179   3.143   1.789   3.590
13313WAT      O40180   2.797   9.762   2.226
13313WAT     H140181   2.863   9.824   2.184
13313WAT     H240182   2.826   9.668   2.214
13314WAT      O40183   4.954   2.758   5.561
13314WAT     H140184   4.996   2.819   5.627
13314WAT     H240185   5.021   2.731   5.492
13315WAT      O40186   1.286   5.838   3.707
13315WAT     H140187   1.222   5.764   3.725
13315WAT     H240188   1.236   5.924   3.698
13316WAT      O40189   8.352   3.683   6.368
13316WAT     H140190   8.338   3.732   6.454
13316WAT     H240191   8.320   3.589   6.377
13317WAT      O40192   6.835   3.206   5.193
13317WAT     H140193   6.823   3.291   5.244
13317WAT     H240194   6.932   3.191   5.175
13318WAT      O40195   7.235   9.777   1.824
13318WAT     H140196   7.222   9.683   1.856
13318WAT     H240197   7.184   9.790   1.739
13319WAT      O40198   1.850   2.952   5.316
13319WAT     H140199   1.765   2.912   5.281
13319WAT     H240200   1.831   3.045   5.349
13320WAT      O40201   4.470   4.719   0.431
13320WAT     H140202   4.565   4.690   0.437
13320WAT     H240203   4.410   4.646   0.463
13321WAT      O40204   8.303   9.750   4.416
13321WAT     H140205   8.352   9.663   4.409
13321WAT     H240206   8.279   9.766   4.512
13322WAT      O40207   0.677   8.509   2.257
13322WAT     H140208   0.597   8.564   2.281
13322WAT     H240209   0.685   8.432   2.321
13323WAT      O40210   5.643   3.706   7.910
13323WAT     H140211   5.738   3.694   7.879
13323WAT     H240212   5.586   3.734   7.834
13324WAT      O40213   8.441   2.466   2.456
13324WAT     H140214   8.459   2.527   2.379
13324WAT     H240215   8.358   2.494   2.503
13325WAT      O40216   4.868   5.982   9.103
13325WAT     H140217   4.880   6.061   9.163
13325WAT     H240218   4.780   5.989   9.056
13326WAT      O40219   2.383   9.755   3.064
13326WAT     H140220   2.390   9.855   3.072
13326WAT     H240221   2.310   9.731   3.001
13327WAT      O40222   2.822   1.234   1.771
13327WAT     H140223   2.797   1.245   1.867
13327WAT     H240224   2.749   1.270   1.713
13328WAT      O40225   5.960   2.144   1.539
13328WAT     H140226   5.952   2.234   1.583
13328WAT     H240227   6.026   2.088   1.590
13329WAT      O40228   9.638   1.341   7.498
13329WAT     H140229   9.627   1.405   7.422
13329WAT     H240230   9.560   1.278   7.500
13330WAT      O40231   8.129   3.511   6.927
13330WAT     H140232   8.173   3.553   7.006
13330WAT     H240233   8.116   3.580   6.856
13331WAT      O40234   9.843   7.445   4.695
13331WAT     H140235   9.840   7.433   4.596
13331WAT     H240236   9.774   7.386   4.738
13332WAT      O40237   3.764   6.727   7.401
13332WAT     H140238   3.691   6.672   7.442
13332WAT     H240239   3.742   6.745   7.305
13333WAT      O40240   2.415   6.479   8.233
13333WAT     H140241   2.419   6.501   8.330
13333WAT     H240242   2.422   6.564   8.180
13334WAT      O40243   3.012   1.178   8.192
13334WAT     H140244   3.031   1.216   8.282
13334WAT     H240245   2.936   1.227   8.150
13335WAT      O40246   9.553   6.953   1.186
13335WAT     H140247   9.599   6.908   1.262
13335WAT     H240248   9.506   6.885   1.129
13336WAT      O40249   8.076   4.951   7.078
13336WAT     H140250   7.991   4.942   7.130
13336WAT     H240251   8.120   4.861   7.071
13337WAT      O40252   3.094   3.688   4.889
13337WAT     H140253   3.019   3.657   4.947
13337WAT     H240254   3.142   3.763   4.934
13338WAT      O40255   4.933   5.698   5.087
13338WAT     H140256   4.929   5.648   5.173
13338WAT     H240257   4.868   5.773   5.088
13339WAT      O40258   2.355   1.380   3.783
13339WAT     H140259   2.402   1.293   3.763
13339WAT     H240260   2.290   1.400   3.709
13340WAT      O40261   5.800   8.346   9.790
13340WAT     H140262   5.723   8.375   9.733
13340WAT     H240263   5.794   8.247   9.806
13341WAT      O40264   5.266   9.439   7.286
13341WAT     H140265   5.253   9.435   7.385
13341WAT     H240266   5.282   9.346   7.251
13342WAT      O40267   6.349   4.297   0.558
13342WAT     H140268   6.257   4.266   0.536
13342WAT     H240269   6.346   4.390   0.594
13343WAT      O40270   4.477   5.014   5.792
13343WAT     H140271   4.515   4.926   5.821
13343WAT     H240272   4.386   5.024   5.832
13344WAT      O40273   2.995   2.726   0.795
13344WAT     H140274   2.922   2.666   0.762
13344WAT     H240275   3.020   2.791   0.723
13345WAT      O40276   5.838   0.427   7.681
13345WAT     H140277   5.806   0.446   7.588
13345WAT     H240278   5.928   0.469   7.694
13346WAT      O40279   8.326   3.184   7.656
13346WAT     H140280   8.424   3.184   7.679
13346WAT     H240281   8.295   3.278   7.640
13347WAT      O40282   9.743   4.692   5.904
13347WAT     H140283   9.713   4.767   5.963
13347WAT     H240284   9.839   4.670   5.925
13348WAT      O40285   7.895   6.618   9.554
13348WAT     H140286   7.838   6.684   9.504
13348WAT     H240287   7.983   6.659   9.575
13349WAT      O40288   2.078   0.714   4.671
13349WAT     H140289   2.143   0.786   4.644
13349WAT     H240290   2.104   0.628   4.629
13350WAT      O40291   3.482   8.029   3.190
13350WAT     H140292   3.507   8.087   3.268
13350WAT     H240293   3.386   8.045   3.166
13351WAT      O40294   3.085   1.038   4.517
13351WAT     H140295   3.125   1.128   4.500
13351WAT     H240296   3.080   0.987   4.432
13352WAT      O40297   9.201   6.280   4.578
13352WAT     H140298   9.105   6.255   4.567
13352WAT     H240299   9.240   6.300   4.488
13353WAT      O40300   8.340   0.529   4.392
13353WAT     H140301   8.323   0.579   4.476
13353WAT     H240302   8.373   0.437   4.414
13354WAT      O40303   0.348   0.181   3.867
13354WAT     H140304   0.339   0.156   3.771
13354WAT     H240305   0.260   0.216   3.900
13355WAT      O40306   5.270   8.287   6.036
13355WAT     H140307   5.248   8.285   6.133
13355WAT     H240308   5.208   8.351   5.989
13356WAT      O40309   3.221   7.158   6.538
13356WAT     H140310   3.208   7.132   6.634
13356WAT     H240311   3.263   7.248   6.532
13357WAT      O40312   3.425   3.213   6.100
13357WAT     H140313   3.369   3.234   6.020
13357WAT     H240314   3.473   3.126   6.085
13358WAT      O40315   7.752   2.903   3.977
13358WAT     H140316   7.812   2.899   3.898
13358WAT     H240317   7.714   2.812   3.994
13359WAT      O40318   3.875   8.361   3.306
13359WAT     H140319   3.810   8.434   3.282
13359WAT     H240320   3.898   8.367   3.403
13360WAT      O40321   6.492   5.928   3.840
13360WAT     H140322   6.541   5.930   3.927
13360WAT     H240323   6.516   5.844   3.790
13361WAT      O40324   4.307   2.560   4.397
13361WAT     H140325   4.235   2.629   4.405
13361WAT     H240326   4.280   2.479   4.449
13362WAT      O40327   3.899   0.249   7.980
13362WAT     H140328   3.915   0.347   7.991
13362WAT     H240329   3.977   0.207   7.933
13363WAT      O40330   5.097   8.975   0.923
13363WAT     H140331   5.004   9.005   0.941
13363WAT     H240332   5.109   8.959   0.825
13364WAT      O40333   0.610   3.151   2.313
13364WAT     H140334   0.649   3.080   2.254
13364WAT     H240335   0.558   3.109   2.386
13365WAT      O40336   6.849   9.100   1.314
13365WAT     H140337   6.877   9.009   1.282
13365WAT     H240338   6.763   9.125   1.270
13366WAT      O40339   0.816   3.813   4.795
13366WAT     H140340   0.853   3.855   4.712
13366WAT     H240341   0.774   3.725   4.773
13367WAT      O40342   4.688   4.771   4.269
13367WAT     H140343   4.646   4.764   4.360
13367WAT     H240344   4.618   4.791   4.201
13368WAT      O40345   1.961   2.788   1.134
13368WAT     H140346   1.865   2.765   1.150
13368WAT     H240347   1.977   2.883   1.160
13369WAT      O40348   6.176   5.559   4.915
13369WAT     H140349   6.215   5.637   4.866
13369WAT     H240350   6.078   5.573   4.928
13370WAT      O40351   1.120   0.004   5.161
13370WAT     H140352   1.099   0.102   5.160
13370WAT     H240353   1.196  -0.014   5.099
13371WAT      O40354   9.370   3.725   0.528
13371WAT     H140355   9.393   3.821   0.511
13371WAT     H240356   9.420   3.667   0.462
13372WAT      O40357   2.933   0.127   7.143
13372WAT     H140358   2.961   0.222   7.157
13372WAT     H240359   2.946   0.101   7.047
13373WAT      O40360   7.407   1.483   8.875
13373WAT     H140361   7.428   1.534   8.792
13373WAT     H240362   7.440   1.388   8.865
13374WAT      O40363   3.943   1.294   6.149
13374WAT     H140364   4.013   1.335   6.207
13374WAT     H240365   3.980   1.214   6.101
13375WAT      O40366   9.485   7.165   0.865
13375WAT     H140367   9.422   7.103   0.818
13375WAT     H240368   9.455   7.177   0.960
13376WAT      O40369   6.127   6.755   5.783
13376WAT     H140370   6.164   6.844   5.756
13376WAT     H240371   6.148   6.688   5.713
13377WAT      O40372   5.752   6.349   6.688
13377WAT     H140373   5.771   6.415   6.761
13377WAT     H240374   5.837   6.319   6.646
13378WAT      O40375   3.706   8.881   8.666
13378WAT     H140376   3.716   8.799   8.723
13378WAT     H240377   3.723   8.858   8.570
13379WAT      O40378   6.338   5.835   0.269
13379WAT     H140379   6.365   5.836   0.365
13379WAT     H240380   6.360   5.746   0.229
13380WAT      O40381   0.634   9.241   2.605
13380WAT     H140382   0.665   9.191   2.686
13380WAT     H240383   0.554   9.195   2.566
13381WAT      O40384   6.553   5.485   0.419
13381WAT     H140385   6.640   5.474   0.371
13381WAT     H240386   6.555   5.571   0.471
13382WAT      O40387   1.429   3.122   6.285
13382WAT     H140388   1.416   3.216   6.318
13382WAT     H240389   1.448   3.063   6.363
13383WAT      O40390   8.247   8.650   8.742
13383WAT     H140391   8.162   8.609   8.773
13383WAT     H240392   8.313   8.651   8.818
13384WAT      O40393   1.301   5.437   1.785
13384WAT     H140394   1.388   5.434   1.834
13384WAT     H240395   1.318   5.423   1.687
13385WAT      O40396   5.115   5.902   1.816
13385WAT     H140397   5.075   5.993   1.825
13385WAT     H240398   5.126   5.880   1.719
13386WAT      O40399   2.836   0.660   3.003
13386WAT     H140400   2.916   0.630   2.951
13386WAT     H240401   2.808   0.587   3.066
13387WAT      O40402   7.103   5.397   2.259
13387WAT     H140403   7.127   5.319   2.202
13387WAT     H240404   7.058   5.365   2.343
13388WAT      O40405   1.020   1.058   3.860
13388WAT     H140406   0.935   1.099   3.894
13388WAT     H240407   1.088   1.130   3.845
13389WAT      O40408   5.973   2.729   6.920
13389WAT     H140409   6.009   2.821   6.934
13389WAT     H240410   5.963   2.711   6.822
13390WAT      O40411   4.826   5.213   6.521
13390WAT     H140412   4.850   5.298   6.475
13390WAT     H240413   4.788   5.234   6.611
13391WAT      O40414   5.528   0.903   8.264
13391WAT     H140415   5.477   0.922   8.347
13391WAT     H240416   5.596   0.975   8.249
13392WAT      O40417   0.093   2.467   1.112
13392WAT     H140418   0.178   2.513   1.087
13392WAT     H240419   0.018   2.504   1.057
13393WAT      O40420   5.156   9.118   6.667
13393WAT     H140421   5.072   9.133   6.719
13393WAT     H240422   5.138   9.129   6.570
13394WAT      O40423   2.632   3.318   4.431
13394WAT     H140424   2.687   3.290   4.352
13394WAT     H240425   2.555   3.374   4.400
13395WAT      O40426   4.593   2.933   9.874
13395WAT     H140427   4.528   3.002   9.905
13395WAT     H240428   4.621   2.954   9.780
13396WAT      O40429   8.728   0.087   5.858
13396WAT     H140430   8.724   0.041   5.947
13396WAT     H240431   8.717   0.019   5.786
13397WAT      O40432   0.123   9.381   5.387
13397WAT     H140433   0.113   9.437   5.304
13397WAT     H240434   0.091   9.288   5.368
13398WAT      O40435   9.676   0.308   4.427
13398WAT     H140436   9.743   0.275   4.361
13398WAT     H240437   9.627   0.387   4.388
13399WAT      O40438   4.587   4.888   6.399
13399WAT     H140439   4.565   4.792   6.384
13399WAT     H240440   4.587   4.937   6.311
13400WAT      O40441   8.467   5.915   3.955
13400WAT     H140442   8.475   5.950   4.049
13400WAT     H240443   8.557   5.915   3.912
13401WAT      O40444   8.015   5.022   5.241
13401WAT     H140445   8.072   5.007   5.323
13401WAT     H240446   7.937   5.079   5.266
13402WAT      O40447   6.719   2.154   9.780
13402WAT     H140448   6.803   2.205   9.798
13402WAT     H240449   6.674   2.191   9.699
13403WAT      O40450   1.364   6.199   9.366
13403WAT     H140451   1.279   6.237   9.404
13403WAT     H240452   1.413   6.271   9.316
13404WAT      O40453   5.974   6.336   1.463
13404WAT     H140454   5.947   6.245   1.431
13404WAT     H240455   6.011   6.329   1.555
13405WAT      O40456   0.454   7.568   7.586
13405WAT     H140457   0.477   7.476   7.554
13405WAT     H240458   0.538   7.620   7.603
13406WAT      O40459   4.898   6.423   0.523
13406WAT     H140460   4.824   6.360   0.501
13406WAT     H240461   4.963   6.427   0.446
13407WAT      O40462   7.727   1.810   0.979
13407WAT     H140463   7.779   1.730   0.948
13407WAT     H240464   7.669   1.783   1.057
13408WAT      O40465   7.970   1.694   2.483
13408WAT     H140466   7.984   1.668   2.578
13408WAT     H240467   8.040   1.650   2.426
13409WAT      O40468   9.316   0.294   6.939
13409WAT     H140469   9.382   0.219   6.950
13409WAT     H240470   9.257   0.275   6.861
13410WAT      O40471   7.570   5.809   4.260
13410WAT     H140472   7.601   5.776   4.171
13410WAT     H240473   7.587   5.739   4.329
13411WAT      O40474   9.390   5.955   8.650
13411WAT     H140475   9.298   5.951   8.610
13411WAT     H240476   9.420   5.863   8.674
13412WAT      O40477   8.250   3.200   0.964
13412WAT     H140478   8.331   3.214   0.908
13412WAT     H240479   8.235   3.102   0.977
13413WAT      O40480   8.645   5.244   7.382
13413WAT     H140481   8.704   5.164   7.394
13413WAT     H240482   8.607   5.272   7.470
13414WAT      O40483   9.490   5.030   8.123
13414WAT     H140484   9.420   5.070   8.182
13414WAT     H240485   9.575   5.020   8.175
13415WAT      O40486   0.316   4.389   9.387
13415WAT     H140487   0.277   4.307   9.345
13415WAT     H240488   0.407   4.368   9.423
13416WAT      O40489   1.604   0.345   6.459
13416WAT     H140490   1.676   0.389   6.405
13416WAT     H240491   1.642   0.266   6.507
13417WAT      O40492   0.763   2.906   6.221
13417WAT     H140493   0.702   2.863   6.155
13417WAT     H240494   0.716   2.917   6.308
13418WAT      O40495   9.622   0.649   8.779
13418WAT     H140496   9.683   0.678   8.705
13418WAT     H240497   9.654   0.687   8.866
13419WAT      O40498   9.152   4.745   4.718
13419WAT     H140499   9.111   4.678   4.656
13419WAT     H240500   9.204   4.813   4.665
13420WAT      O40501   1.593   0.348   3.800
13420WAT     H140502   1.691   0.362   3.791
13420WAT     H240503   1.572   0.251   3.785
13421WAT      O40504   0.832   2.169   3.284
13421WAT     H140505   0.779   2.084   3.289
13421WAT     H240506   0.799   2.225   3.208
13422WAT      O40507   1.486   7.933   2.712
13422WAT     H140508   1.407   7.988   2.687
13422WAT     H240509   1.467   7.837   2.695
13423WAT      O40510   6.022   9.474   6.218
13423WAT     H140511   5.963   9.397   6.246
13423WAT     H240512   6.073   9.507   6.298
13424WAT      O40513   5.091   6.582   3.325
13424WAT     H140514   5.089   6.562   3.227
13424WAT     H240515   5.119   6.501   3.375
13425WAT      O40516   1.306   3.935   6.037
13425WAT     H140517   1.356   3.849   6.043
13425WAT     H240518   1.357   3.999   5.980
13426WAT      O40519   9.876   4.256   0.345
13426WAT     H140520   9.910   4.332   0.291
13426WAT     H240521   9.840   4.185   0.285
13427WAT      O40522   2.123   2.496   1.835
13427WAT     H140523   2.194   2.554   1.876
13427WAT     H240524   2.076   2.446   1.907
13428WAT      O40525   6.667   6.162   8.740
13428WAT     H140526   6.570   6.172   8.764
13428WAT     H240527   6.720   6.230   8.790
13429WAT      O40528   1.599   2.572   0.433
13429WAT     H140529   1.643   2.661   0.416
13429WAT     H240530   1.605   2.516   0.351
13430WAT      O40531   7.868   3.296   1.027
13430WAT     H140532   7.805   3.241   0.972
13430WAT     H240533   7.911   3.238   1.096
13431WAT      O40534   7.501   9.179   2.510
13431WAT     H140535   7.454   9.160   2.424
13431WAT     H240536   7.495   9.277   2.531
13432WAT      O40537   4.561   7.916   9.782
13432WAT     H140538   4.646   7.963   9.759
13432WAT     H240539   4.554   7.831   9.731
13433WAT      O40540   5.449   7.944   9.241
13433WAT     H140541   5.528   7.979   9.191
13433WAT     H240542   5.458   7.966   9.338
13434WAT      O40543   6.828   2.825   4.706
13434WAT     H140544   6.915   2.775   4.694
13434WAT     H240545   6.804   2.827   4.803
13435WAT      O40546   2.763   3.906   7.238
13435WAT     H140547   2.845   3.861   7.203
13435WAT     H240548   2.686   3.841   7.236
13436WAT      O40549   0.322   7.327   3.366
13436WAT     H140550   0.419   7.328   3.391
13436WAT     H240551   0.285   7.234   3.377
13437WAT      O40552   1.172   1.285   3.889
13437WAT     H140553   1.085   1.297   3.937
13437WAT     H240554   1.244   1.334   3.938
13438WAT      O40555   4.792   3.182   2.597
13438WAT     H140556   4.747   3.216   2.514
13438WAT     H240557   4.796   3.082   2.594
13439WAT      O40558   3.320   2.457   5.168
13439WAT     H140559   3.370   2.523   5.225
13439WAT     H240560   3.380   2.380   5.146
13440WAT      O40561   3.618   4.037   9.295
13440WAT     H140562   3.639   4.091   9.377
13440WAT     H240563   3.651   3.943   9.308
13441WAT      O40564   2.535   5.398   7.655
13441WAT     H140565   2.536   5.497   7.645
13441WAT     H240566   2.463   5.372   7.720
13442WAT      O40567   5.855   0.870   2.765
13442WAT     H140568   5.881   0.890   2.859
13442WAT     H240569   5.821   0.776   2.759
13443WAT      O40570   1.531   6.156   7.780
13443WAT     H140571   1.508   6.202   7.866
13443WAT     H240572   1.486   6.204   7.705
13444WAT      O40573   0.943   0.350   3.122
13444WAT     H140574   1.028   0.355   3.068
13444WAT     H240575   0.940   0.426   3.186
13445WAT      O40576   7.013   6.076   6.291
13445WAT     H140577   7.053   6.164   6.264
13445WAT     H240578   7.080   6.003   6.274
13446WAT      O40579   6.367   7.355   6.257
13446WAT     H140580   6.273   7.325   6.240
13446WAT     H240581   6.368   7.417   6.336
13447WAT      O40582   1.439   2.818   7.958
13447WAT     H140583   1.497   2.845   8.035
13447WAT     H240584   1.457   2.878   7.880
13448WAT      O40585   9.145   9.372   2.898
13448WAT     H140586   9.144   9.273   2.911
13448WAT     H240587   9.172   9.417   2.983
13449WAT      O40588   1.773   5.578   6.151
13449WAT     H140589   1.761   5.557   6.248
13449WAT     H240590   1.796   5.495   6.101
13450WAT      O40591   8.943   4.944   4.563
13450WAT     H140592   8.911   4.911   4.651
13450WAT     H240593   8.941   5.044   4.562
13451WAT      O40594   4.230   9.394   2.219
13451WAT     H140595   4.206   9.303   2.183
13451WAT     H240596   4.259   9.385   2.314
13452WAT      O40597   3.842   4.946   6.672
13452WAT     H140598   3.897   4.909   6.748
13452WAT     H240599   3.764   4.886   6.656
13453WAT      O40600   1.038   9.466   5.666
13453WAT     H140601   0.950   9.510   5.683
13453WAT     H240602   1.033   9.412   5.582
13454WAT      O40603   9.164   3.077   0.010
13454WAT     H140604   9.074   3.043  -0.017
13454WAT     H240605   9.202   3.017   0.080
13455WAT      O40606   9.352   2.943   9.380
13455WAT     H140607   9.370   3.036   9.349
13455WAT     H240608   9.437   2.891   9.381
13456WAT      O40609   5.691   7.764   0.980
13456WAT     H140610   5.641   7.711   0.912
13456WAT     H240611   5.729   7.846   0.937
13457WAT      O40612   5.115   0.041   1.344
13457WAT     H140613   5.102   0.076   1.251
13457WAT     H240614   5.040   0.073   1.402
13458WAT      O40615   5.424   9.664   0.972
13458WAT     H140616   5.496   9.654   0.903
13458WAT     H240617   5.449   9.737   1.035
13459WAT      O40618   9.339   0.313   0.408
13459WAT     H140619   9.378   0.333   0.318
13459WAT     H240620   9.375   0.226   0.441
13460WAT      O40621   2.084   4.985   6.367
13460WAT     H140622   2.154   5.056   6.377
13460WAT     H240623   2.003   5.010   6.419
13461WAT      O40624   4.093   8.154   8.287
13461WAT     H140625   4.018   8.196   8.338
13461WAT     H240626   4.059   8.073   8.239
13462WAT      O40627   1.960   1.613   0.634
13462WAT     H140628   2.020   1.598   0.713
13462WAT     H240629   2.011   1.660   0.562
13463WAT      O40630   3.325   1.091   5.916
13463WAT     H140631   3.355   1.072   5.822
13463WAT     H240632   3.257   1.164   5.915
13464WAT      O40633   1.693   0.731   2.651
13464WAT     H140634   1.783   0.739   2.694
13464WAT     H240635   1.626   0.703   2.720
13465WAT      O40636   6.878   9.166   3.903
13465WAT     H140637   6.950   9.192   3.967
13465WAT     H240638   6.853   9.070   3.918
13466WAT      O40639   9.007   2.820   1.845
13466WAT     H140640   8.918   2.836   1.888
13466WAT     H240641   9.001   2.841   1.747
13467WAT      O40642   1.538   0.409   5.065
13467WAT     H140643   1.528   0.320   5.020
13467WAT     H240644   1.605   0.463   5.015
13468WAT      O40645   0.472   9.404   7.596
13468WAT     H140646   0.432   9.483   7.643
13468WAT     H240647   0.562   9.429   7.560
13469WAT      O40648   4.604   3.301   5.074
13469WAT     H140649   4.616   3.394   5.109
13469WAT     H240650   4.516   3.265   5.105
13470WAT      O40651   6.050   3.045   6.322
13470WAT     H140652   6.129   3.002   6.364
13470WAT     H240653   5.967   2.998   6.352
13471WAT      O40654   3.153   5.493   6.896
13471WAT     H140655   3.143   5.590   6.916
13471WAT     H240656   3.188   5.446   6.977
13472WAT      O40657   9.383   3.497   5.106
13472WAT     H140658   9.376   3.566   5.177
13472WAT     H240659   9.364   3.539   5.017
13473WAT      O40660   7.395   0.047   7.246
13473WAT     H140661   7.414   0.136   7.287
13473WAT     H240662   7.324   0.058   7.175
13474WAT      O40663   9.092   0.050   6.220
13474WAT     H140664   9.130   0.105   6.146
13474WAT     H240665   9.133  -0.041   6.219
13475WAT      O40666   5.037   1.246   4.578
13475WAT     H140667   4.982   1.215   4.500
13475WAT     H240668   5.030   1.180   4.653
13476WAT      O40669   0.948   0.531   9.697
13476WAT     H140670   1.035   0.502   9.658
13476WAT     H240671   0.908   0.455   9.748
13477WAT      O40672   0.125   5.170   3.797
13477WAT     H140673   0.082   5.116   3.725
13477WAT     H240674   0.130   5.266   3.769
13478WAT      O40675   7.111   7.445   1.267
13478WAT     H140676   7.105   7.377   1.340
13478WAT     H240677   7.078   7.406   1.182
13479WAT      O40678   7.877   0.641   0.462
13479WAT     H140679   7.968   0.620   0.427
13479WAT     H240680   7.823   0.558   0.469
13480WAT      O40681   5.814   2.411   8.461
13480WAT     H140682   5.887   2.344   8.447
13480WAT     H240683   5.854   2.500   8.484
13481WAT      O40684   6.786   6.858   4.726
13481WAT     H140685   6.726   6.789   4.686
13481WAT     H240686   6.775   6.944   4.677
13482WAT      O40687   3.122   6.626   7.430
13482WAT     H140688   3.183   6.557   7.392
13482WAT     H240689   3.129   6.710   7.375
13483WAT      O40690   3.983   8.026   9.718
13483WAT     H140691   3.984   7.938   9.767
13483WAT     H240692   4.040   8.092   9.767
13484WAT      O40693   4.088   5.102   2.321
13484WAT     H140694   4.011   5.160   2.294
13484WAT     H240695   4.174   5.152   2.308
13485WAT      O40696   5.778   4.505   6.466
13485WAT     H140697   5.877   4.506   6.474
13485WAT     H240698   5.749   4.565   6.391
13486WAT      O40699   5.774   6.901   7.270
13486WAT     H140700   5.737   6.846   7.195
13486WAT     H240701   5.713   6.978   7.289
13487WAT      O40702   8.618   2.815   0.769
13487WAT     H140703   8.620   2.818   0.669
13487WAT     H240704   8.707   2.785   0.803
13488WAT      O40705   1.652   7.164   4.385
13488WAT     H140706   1.561   7.126   4.396
13488WAT     H240707   1.660   7.204   4.294
13489WAT      O40708   3.215   6.390   9.776
13489WAT     H140709   3.258   6.310   9.819
13489WAT     H240710   3.176   6.449   9.847
13490WAT      O40711   7.384   7.937   2.838
13490WAT     H140712   7.307   7.976   2.787
13490WAT     H240713   7.349   7.874   2.907
13491WAT      O40714   2.058   5.615   8.868
13491WAT     H140715   2.033   5.621   8.965
13491WAT     H240716   1.978   5.634   8.811
13492WAT      O40717   7.252   9.055   9.476
13492WAT     H140718   7.317   8.979   9.473
13492WAT     H240719   7.215   9.072   9.385
13493WAT      O40720   3.924   0.425   0.267
13493WAT     H140721   3.963   0.375   0.190
13493WAT     H240722   3.831   0.392   0.285
13494WAT      O40723   3.889   8.797   0.843
13494WAT     H140724   3.835   8.715   0.862
13494WAT     H240725   3.895   8.854   0.925
13495WAT      O40726   7.035   3.531   9.045
13495WAT     H140727   7.090   3.614   9.041
13495WAT     H240728   7.094   3.453   9.068
13496WAT      O40729   4.216   2.286   8.369
13496WAT     H140730   4.170   2.198   8.384
13496WAT     H240731   4.192   2.321   8.279
13497WAT      O40732   2.228   2.051   5.876
13497WAT     H140733   2.199   2.030   5.969
13497WAT     H240734   2.175   2.129   5.841
13498WAT      O40735   4.658   8.470   8.044
13498WAT     H140736   4.641   8.537   7.972
13498WAT     H240737   4.659   8.378   8.005
13499WAT      O40738   2.106   7.059   8.357
13499WAT     H140739   2.041   7.114   8.408
13499WAT     H240740   2.168   7.119   8.305
13500WAT      O40741   3.923   8.081   5.997
13500WAT     H140742   3.868   8.048   6.073
13500WAT     H240743   4.019   8.055   6.012
13501WAT      O40744   1.598   8.780   1.626
13501WAT     H140745   1.629   8.775   1.532
13501WAT     H240746   1.675   8.800   1.686
13502WAT      O40747   5.604   7.619   0.767
13502WAT     H140748   5.637   7.526   0.748
13502WAT     H240749   5.597   7.670   0.682
13503WAT      O40750   7.808   5.179   3.021
13503WAT     H140751   7.866   5.123   3.080
13503WAT     H240752   7.750   5.237   3.077
13504WAT      O40753   3.031   6.879   3.214
13504WAT     H140754   3.034   6.805   3.147
13504WAT     H240755   3.070   6.847   3.301
13505WAT      O40756   3.567   0.348   9.586
13505WAT     H140757   3.639   0.279   9.596
13505WAT     H240758   3.608   0.434   9.555
13506WAT      O40759   8.596   2.598   2.679
13506WAT     H140760   8.599   2.692   2.644
13506WAT     H240761   8.506   2.581   2.719
13507WAT      O40762   0.540   5.683   9.870
13507WAT     H140763   0.505   5.669   9.778
13507WAT     H240764   0.604   5.760   9.870
13508WAT      O40765   1.893   6.042   3.760
13508WAT     H140766   1.993   6.042   3.750
13508WAT     H240767   1.852   6.100   3.689
13509WAT      O40768   9.277   2.004   8.026
13509WAT     H140769   9.251   2.096   7.996
13509WAT     H240770   9.212   1.971   8.094
13510WAT      O40771   0.396   4.293   1.663
13510WAT     H140772   0.297   4.290   1.655
13510WAT     H240773   0.426   4.227   1.731
13511WAT      O40774   2.813   6.066   2.752
13511WAT     H140775   2.762   6.144   2.714
13511WAT     H240776   2.771   5.981   2.721
13512WAT      O40777   8.805   4.960   0.609
13512WAT     H140778   8.782   4.995   0.518
13512WAT     H240779   8.753   5.009   0.678
13513WAT      O40780   9.773   1.562   9.513
13513WAT     H140781   9.811   1.506   9.440
13513WAT     H240782   9.766   1.508   9.597
13514WAT      O40783   9.673   8.982   2.912
13514WAT     H140784   9.591   8.928   2.934
13514WAT     H240785   9.718   8.942   2.832
13515WAT      O40786   8.391   1.790   1.109
13515WAT     H140787   8.488   1.804   1.091
13515WAT     H240788   8.337   1.833   1.037
13516WAT      O40789   5.563   7.199   8.088
13516WAT     H140790   5.538   7.214   7.992
13516WAT     H240791   5.604   7.282   8.125
13517WAT      O40792   1.305   1.958   6.119
13517WAT     H140793   1.315   2.036   6.179
13517WAT     H240794   1.361   1.882   6.152
13518WAT      O40795   4.749   5.319   7.696
13518WAT     H140796   4.716   5.304   7.790
13518WAT     H240797   4.749   5.232   7.647
13519WAT      O40798   0.985   6.144   0.138
13519WAT     H140799   1.010   6.230   0.183
13519WAT     H240800   0.899   6.157   0.088
13520WAT      O40801   5.756   5.788   6.959
13520WAT     H140802   5.682   5.725   6.982
13520WAT     H240803   5.723   5.856   6.895
13521WAT      O40804   0.508   0.369   3.499
13521WAT     H140805   0.410   0.372   3.519
13521WAT     H240806   0.527   0.419   3.414
13522WAT      O40807   5.816   3.718   7.419
13522WAT     H140808   5.753   3.646   7.451
13522WAT     H240809   5.891   3.728   7.485
13523WAT      O40810   3.775   3.757   0.909
13523WAT     H140811   3.867   3.749   0.871
13523WAT     H240812   3.735   3.845   0.883
13524WAT      O40813   2.520   0.775   2.816
13524WAT     H140814   2.512   0.708   2.889
13524WAT     H240815   2.552   0.862   2.854
13525WAT      O40816   0.479   9.093   8.804
13525WAT     H140817   0.463   9.186   8.838
13525WAT     H240818   0.477   9.030   8.881
13526WAT      O40819   7.074   4.747   3.568
13526WAT     H140820   7.084   4.845   3.582
13526WAT     H240821   7.132   4.718   3.491
13527WAT      O40822   2.932   6.777   9.511
13527WAT     H140823   2.990   6.714   9.564
13527WAT     H240824   2.982   6.808   9.430
13528WAT      O40825   0.840   0.952   4.874
13528WAT     H140826   0.876   0.954   4.780
13528WAT     H240827   0.775   1.027   4.886
13529WAT      O40828   6.190   1.367   6.978
13529WAT     H140829   6.166   1.442   7.040
13529WAT     H240830   6.201   1.283   7.031
13530WAT      O40831   1.941   3.164   2.748
13530WAT     H140832   1.965   3.078   2.704
13530WAT     H240833   1.939   3.237   2.680
13531WAT      O40834   5.461   2.040   8.555
13531WAT     H140835   5.526   2.115   8.563
13531WAT     H240836   5.370   2.072   8.581
13532WAT      O40837   5.405   6.031   8.762
13532WAT     H140838   5.428   6.123   8.793
13532WAT     H240839   5.309   6.029   8.732
13533WAT      O40840   9.861   1.241   8.462
13533WAT     H140841   9.813   1.280   8.541
13533WAT     H240842   9.922   1.168   8.494
13534WAT      O40843   7.894   0.729   4.973
13534WAT     H140844   7.952   0.647   4.970
13534WAT     H240845   7.801   0.703   4.998
13535WAT      O40846   1.233   4.634   6.406
13535WAT     H140847   1.185   4.583   6.477
13535WAT     H240848   1.169   4.693   6.357
13536WAT      O40849   2.196   3.655   5.135
13536WAT     H140850   2.107   3.617   5.111
13536WAT     H240851   2.216   3.635   5.231
13537WAT      O40852   4.290   5.141   4.691
13537WAT     H140853   4.355   5.210   4.657
13537WAT     H240854   4.202   5.152   4.645
13538WAT      O40855   5.556   9.211   9.646
13538WAT     H140856   5.576   9.113   9.641
13538WAT     H240857   5.474   9.227   9.700
13539WAT      O40858   3.552   8.538   2.000
13539WAT     H140859   3.625   8.470   1.987
13539WAT     H240860   3.593   8.623   2.033
13540WAT      O40861   9.599   4.692   5.689
13540WAT     H140862   9.531   4.764   5.706
13540WAT     H240863   9.672   4.699   5.756
13541WAT      O40864   9.552   0.510   6.018
13541WAT     H140865   9.494   0.529   5.938
13541WAT     H240866   9.497   0.517   6.101
13542WAT      O40867   5.781   4.930   6.805
13542WAT     H140868   5.727   4.898   6.728
13542WAT     H240869   5.736   4.904   6.891
13543WAT      O40870   3.875   0.901   9.058
13543WAT     H140871   3.795   0.929   9.006
13543WAT     H240872   3.867   0.804   9.083
13544WAT      O40873   1.755   6.485   2.156
13544WAT     H140874   1.687   6.480   2.082
13544WAT     H240875   1.772   6.394   2.192
13545WAT      O40876   6.196   6.391   0.620
13545WAT     H140877   6.285   6.356   0.649
13545WAT     H240878   6.205   6.486   0.592
13546WAT      O40879   9.016   7.655   7.094
13546WAT     H140880   9.002   7.644   6.995
13546WAT     H240881   9.092   7.717   7.110
13547WAT      O40882   1.941   6.349   1.351
13547WAT     H140883   1.999   6.325   1.429
13547WAT     H240884   1.880   6.271   1.330
13548WAT      O40885   7.104   5.230   1.993
13548WAT     H140886   7.051   5.150   2.020
13548WAT     H240887   7.200   5.215   2.015
13549WAT      O40888   9.473   0.068   7.012
13549WAT     H140889   9.387   0.045   7.057
13549WAT     H240890   9.535  -0.011   7.016
13550WAT      O40891   4.804   5.038   9.248
13550WAT     H140892   4.847   5.126   9.266
13550WAT     H240893   4.754   5.008   9.329
13551WAT      O40894   0.761   8.289   7.921
13551WAT     H140895   0.835   8.344   7.959
13551WAT     H240896   0.799   8.221   7.857
13552WAT      O40897   1.885   7.987   6.355
13552WAT     H140898   1.977   7.948   6.346
13552WAT     H240899   1.883   8.078   6.315
13553WAT      O40900   2.914   3.300   5.420
13553WAT     H140901   2.946   3.259   5.505
13553WAT     H240902   2.855   3.236   5.372
13554WAT      O40903   6.652   4.510   2.669
13554WAT     H140904   6.586   4.510   2.594
13554WAT     H240905   6.611   4.554   2.750
13555WAT      O40906   3.278   4.566   6.333
13555WAT     H140907   3.229   4.581   6.419
13555WAT     H240908   3.310   4.471   6.328
13556WAT      O40909   3.927   8.967   0.625
13556WAT     H140910   3.904   8.927   0.714
13556WAT     H240911   3.990   9.043   0.637
13557WAT      O40912   0.130   2.377   4.932
13557WAT     H140913   0.162   2.306   4.869
13557WAT     H240914   0.159   2.466   4.898
13558WAT      O40915   7.048   2.894   6.697
13558WAT     H140916   7.030   2.990   6.679
13558WAT     H240917   7.033   2.874   6.794
13559WAT      O40918   8.576   1.422   3.401
13559WAT     H140919   8.668   1.459   3.409
13559WAT     H240920   8.521   1.450   3.480
13560WAT      O40921   6.397   0.027   1.824
13560WAT     H140922   6.338   0.065   1.896
13560WAT     H240923   6.455   0.100   1.788
13561WAT      O40924   4.380   4.695   6.055
13561WAT     H140925   4.446   4.716   5.983
13561WAT     H240926   4.426   4.695   6.144
13562WAT      O40927   5.021   9.203   3.334
13562WAT     H140928   5.110   9.159   3.344
13562WAT     H240929   4.971   9.162   3.258
13563WAT      O40930   3.415   4.539   5.687
13563WAT     H140931   3.460   4.520   5.775
13563WAT     H240932   3.318   4.557   5.702
13564WAT      O40933   4.386   6.794   6.701
13564WAT     H140934   4.396   6.889   6.729
13564WAT     H240935   4.395   6.735   6.781
13565WAT      O40936   5.192   1.661   5.986
13565WAT     H140937   5.233   1.751   6.003
13565WAT     H240938   5.258   1.590   6.010
13566WAT      O40939   5.884   2.957   9.019
13566WAT     H140940   5.957   2.984   8.957
13566WAT     H240941   5.849   3.038   9.067
13567WAT      O40942   5.089   2.247   2.697
13567WAT     H140943   5.158   2.205   2.637
13567WAT     H240944   5.053   2.329   2.654
13568WAT      O40945   0.036   8.320   8.050
13568WAT     H140946   0.134   8.326   8.066
13568WAT     H240947   0.016   8.247   7.985
13569WAT      O40948   8.260   6.060   1.451
13569WAT     H140949   8.304   5.990   1.507
13569WAT     H240950   8.303   6.062   1.361
13570WAT      O40951   6.257   1.602   9.125
13570WAT     H140952   6.275   1.545   9.205
13570WAT     H240953   6.249   1.544   9.044
13571WAT      O40954   4.485   2.608   0.420
13571WAT     H140955   4.523   2.527   0.375
13571WAT     H240956   4.425   2.656   0.356
13572WAT      O40957   3.777   1.052   4.181
13572WAT     H140958   3.869   1.021   4.159
13572WAT     H240959   3.729   0.979   4.232
13573WAT      O40960   5.519   9.776   7.254
13573WAT     H140961   5.494   9.766   7.351
13573WAT     H240962   5.579   9.700   7.227
13574WAT      O40963   4.070   7.191   7.079
13574WAT     H140964   4.119   7.196   7.166
13574WAT     H240965   3.993   7.255   7.081
13575WAT      O40966   7.116   8.896   1.700
13575WAT     H140967   7.163   8.848   1.774
13575WAT     H240968   7.027   8.927   1.731
13576WAT      O40969   6.625   2.174   1.473
13576WAT     H140970   6.609   2.273   1.472
13576WAT     H240971   6.544   2.128   1.510
13577WAT      O40972   0.807   5.255   8.396
13577WAT     H140973   0.767   5.331   8.345
13577WAT     H240974   0.906   5.254   8.381
13578WAT      O40975   9.745   1.626   8.272
13578WAT     H140976   9.673   1.655   8.208
13578WAT     H240977   9.703   1.605   8.361
13579WAT      O40978   4.454   6.157   5.950
13579WAT     H140979   4.372   6.151   6.007
13579WAT     H240980   4.428   6.175   5.855
13580WAT      O40981   9.274   0.856   5.721
13580WAT     H140982   9.205   0.867   5.650
13580WAT     H240983   9.349   0.920   5.704
13581WAT      O40984   7.149   5.539   4.345
13581WAT     H140985   7.211   5.499   4.278
13581WAT     H240986   7.075   5.475   4.365
13582WAT      O40987   5.618   7.905   7.215
13582WAT     H140988   5.614   7.981   7.280
13582WAT     H240989   5.592   7.937   7.124
13583WAT      O40990   8.821   9.350   3.615
13583WAT     H140991   8.902   9.317   3.665
13583WAT     H240992   8.845   9.364   3.519
13584WAT      O40993   0.889   2.838   3.817
13584WAT     H140994   0.892   2.848   3.916
13584WAT     H240995   0.812   2.892   3.781
13585WAT      O40996   0.642   8.480   3.754
13585WAT     H140997   0.721   8.526   3.793
13585WAT     H240998   0.640   8.385   3.787
13586WAT      O40999   3.922   0.290   8.927
13586WAT     H141000   3.920   0.388   8.908
13586WAT     H241001   3.928   0.239   8.841
13587WAT      O41002   2.785   1.754   2.181
13587WAT     H141003   2.791   1.819   2.257
13587WAT     H241004   2.874   1.748   2.136
13588WAT      O41005   2.432   8.425   3.268
13588WAT     H141006   2.337   8.424   3.235
13588WAT     H241007   2.471   8.516   3.253
13589WAT      O41008   1.515   6.626   8.927
13589WAT     H141009   1.439   6.576   8.969
13589WAT     H241010   1.574   6.664   8.999
13590WAT      O41011   1.877   5.635   5.650
13590WAT     H141012   1.975   5.616   5.645
13590WAT     H241013   1.851   5.646   5.746
13591WAT      O41014   8.711   6.366   8.299
13591WAT     H141015   8.681   6.460   8.316
13591WAT     H241016   8.798   6.350   8.345
13592WAT      O41017   1.960   3.300   7.809
13592WAT     H141018   1.867   3.328   7.782
13592WAT     H241019   2.021   3.310   7.731
13593WAT      O41020   9.693   4.653   7.110
13593WAT     H141021   9.735   4.729   7.061
13593WAT     H241022   9.758   4.615   7.176
13594WAT      O41023   3.168   4.412   8.646
13594WAT     H141024   3.113   4.485   8.604
13594WAT     H241025   3.175   4.335   8.582
13595WAT      O41026   4.354   3.982   2.643
13595WAT     H141027   4.447   3.945   2.636
13595WAT     H241028   4.358   4.074   2.681
13596WAT      O41029   1.684   5.993   0.224
13596WAT     H141030   1.759   5.950   0.274
13596WAT     H241031   1.719   6.073   0.175
13597WAT      O41032   4.309   7.363   0.515
13597WAT     H141033   4.392   7.310   0.500
13597WAT     H241034   4.292   7.422   0.436
13598WAT      O41035   0.833   5.707   7.258
13598WAT     H141036   0.835   5.632   7.324
13598WAT     H241037   0.742   5.711   7.215
13599WAT      O41038   6.807   6.312   9.804
13599WAT     H141039   6.850   6.399   9.826
13599WAT     H241040   6.751   6.282   9.881
13600WAT      O41041   3.645   8.573   4.786
13600WAT     H141042   3.633   8.572   4.686
13600WAT     H241043   3.613   8.661   4.822
13601WAT      O41044   4.359   6.706   4.980
13601WAT     H141045   4.391   6.759   5.058
13601WAT     H241046   4.386   6.751   4.895
13602WAT      O41047   8.697   4.087   9.536
13602WAT     H141048   8.616   4.123   9.490
13602WAT     H241049   8.706   4.131   9.626
13603WAT      O41050   2.241   4.796   3.914
13603WAT     H141051   2.213   4.885   3.951
13603WAT     H241052   2.290   4.745   3.984
13604WAT      O41053   9.259   1.470   7.511
13604WAT     H141054   9.276   1.550   7.453
13604WAT     H241055   9.162   1.468   7.536
13605WAT      O41056   4.668   2.984   6.104
13605WAT     H141057   4.677   2.999   6.005
13605WAT     H241058   4.676   3.071   6.152
13606WAT      O41059   8.874   7.358   5.299
13606WAT     H141060   8.826   7.430   5.348
13606WAT     H241061   8.839   7.352   5.206
13607WAT      O41062   9.153   5.845   9.420
13607WAT     H141063   9.225   5.776   9.421
13607WAT     H241064   9.137   5.879   9.512
13608WAT      O41065   1.094   4.096   6.445
13608WAT     H141066   1.127   4.114   6.353
13608WAT     H241067   0.994   4.087   6.444
13609WAT      O41068   8.783   6.094   8.124
13609WAT     H141069   8.715   6.116   8.194
13609WAT     H241070   8.761   6.005   8.083
13610WAT      O41071   8.165   1.884   1.481
13610WAT     H141072   8.206   1.802   1.441
13610WAT     H241073   8.190   1.964   1.426
13611WAT      O41074   4.034   1.273   4.814
13611WAT     H141075   3.995   1.187   4.782
13611WAT     H241076   3.995   1.296   4.903
13612WAT      O41077   2.725   8.462   8.782
13612WAT     H141078   2.648   8.526   8.790
13612WAT     H241079   2.811   8.513   8.789
13613WAT      O41080   1.495   9.469   5.922
13613WAT     H141081   1.558   9.544   5.944
13613WAT     H241082   1.542   9.382   5.933
13614WAT      O41083   9.049   8.435   2.085
13614WAT     H141084   9.011   8.352   2.127
13614WAT     H241085   9.023   8.438   1.988
13615WAT      O41086   1.496   4.264   8.438
13615WAT     H141087   1.500   4.210   8.522
13615WAT     H241088   1.492   4.203   8.359
13616WAT      O41089   7.168   0.088   6.489
13616WAT     H141090   7.091   0.147   6.463
13616WAT     H241091   7.149   0.049   6.580
13617WAT      O41092   1.107   4.600   0.282
13617WAT     H141093   1.014   4.620   0.252
13617WAT     H241094   1.111   4.508   0.322
13618WAT      O41095   9.844   3.211   1.639
13618WAT     H141096   9.855   3.141   1.569
13618WAT     H241097   9.842   3.167   1.729
13619WAT      O41098   7.358   9.212   8.986
13619WAT     H141099   7.452   9.223   9.018
13619WAT     H241100   7.302   9.171   9.058
13620WAT      O41101   4.327   1.546   0.399
13620WAT     H141102   4.266   1.577   0.471
13620WAT     H241103   4.274   1.509   0.322
13621WAT      O41104   7.902   8.752   8.466
13621WAT     H141105   7.968   8.763   8.539
13621WAT     H241106   7.939   8.690   8.396
13622WAT      O41107   7.765   2.499   6.483
13622WAT     H141108   7.674   2.464   6.457
13622WAT     H241109   7.801   2.444   6.558
13623WAT      O41110   2.002   2.875   8.473
13623WAT     H141111   1.929   2.912   8.531
13623WAT     H241112   2.019   2.779   8.497
13624WAT      O41113   2.799   7.394   6.853
13624WAT     H141114   2.724   7.420   6.914
13624WAT     H241115   2.769   7.403   6.758
13625WAT      O41116   0.289   6.767   1.413
13625WAT     H141117   0.341   6.710   1.350
13625WAT     H241118   0.336   6.854   1.426
13626WAT      O41119   3.033   4.836   9.449
13626WAT     H141120   2.989   4.752   9.418
13626WAT     H241121   2.969   4.912   9.442
13627WAT      O41122   4.948   2.216   4.883
13627WAT     H141123   4.963   2.309   4.851
13627WAT     H241124   4.974   2.209   4.979
13628WAT      O41125   3.034   6.497   4.412
13628WAT     H141126   3.026   6.439   4.492
13628WAT     H241127   3.082   6.581   4.436
13629WAT      O41128   9.810   4.736   9.384
13629WAT     H141129   9.752   4.744   9.465
13629WAT     H241130   9.897   4.693   9.409
13630WAT      O41131   8.646   5.505   0.337
13630WAT     H141132   8.608   5.473   0.250
13630WAT     H241133   8.574   5.504   0.406
13631WAT      O41134   2.253   8.530   8.606
13631WAT     H141135   2.320   8.596   8.573
13631WAT     H241136   2.200   8.495   8.528
13632WAT      O41137   5.178   6.159   9.255
13632WAT     H141138   5.222   6.131   9.170
13632WAT     H241139   5.173   6.259   9.259
13633WAT      O41140   6.574   8.689   6.342
13633WAT     H141141   6.652   8.730   6.388
13633WAT     H241142   6.567   8.593   6.366
13634WAT      O41143   6.656   3.262   1.964
13634WAT     H141144   6.750   3.229   1.973
13634WAT     H241145   6.595   3.186   1.942
13635WAT      O41146   5.187   6.043   1.296
13635WAT     H141147   5.172   5.953   1.336
13635WAT     H241148   5.264   6.087   1.342
13636WAT      O41149   0.785   4.936   7.735
13636WAT     H141150   0.739   4.996   7.801
13636WAT     H241151   0.868   4.899   7.777
13637WAT      O41152   9.881   1.306   7.762
13637WAT     H141153   9.916   1.353   7.682
13637WAT     H241154   9.905   1.209   7.756
13638WAT      O41155   2.719   6.861   3.661
13638WAT     H141156   2.629   6.832   3.627
13638WAT     H241157   2.708   6.910   3.747
13639WAT      O41158   8.506   7.942   0.522
13639WAT     H141159   8.562   8.021   0.547
13639WAT     H241160   8.566   7.867   0.494
13640WAT      O41161   9.856   1.426   6.307
13640WAT     H141162   9.763   1.447   6.336
13640WAT     H241163   9.915   1.504   6.327
13641WAT      O41164   5.878   2.541   4.248
13641WAT     H141165   5.840   2.455   4.283
13641WAT     H241166   5.865   2.546   4.149
13642WAT      O41167   3.402   4.526   5.424
13642WAT     H141168   3.329   4.589   5.398
13642WAT     H241169   3.406   4.519   5.524
13643WAT      O41170   2.828   6.881   4.640
13643WAT     H141171   2.916   6.879   4.688
13643WAT     H241172   2.764   6.939   4.691
13644WAT      O41173   7.148   2.905   4.251
13644WAT     H141174   7.197   2.951   4.325
13644WAT     H241175   7.183   2.937   4.163
13645WAT      O41176   6.191   5.394   3.806
13645WAT     H141177   6.181   5.411   3.708
13645WAT     H241178   6.283   5.421   3.835
13646WAT      O41179   8.885   2.306   3.873
13646WAT     H141180   8.941   2.259   3.804
13646WAT     H241181   8.831   2.377   3.829
13647WAT      O41182   3.834   4.628   3.291
13647WAT     H141183   3.856   4.629   3.388
13647WAT     H241184   3.913   4.661   3.239
13648WAT      O41185   0.634   5.897   2.963
13648WAT     H141186   0.619   5.978   2.907
13648WAT     H241187   0.703   5.916   3.032
13649WAT      O41188   9.618   1.000   8.480
13649WAT     H141189   9.570   1.084   8.454
13649WAT     H241190   9.611   0.986   8.578
13650WAT      O41191   7.184   4.042   1.495
13650WAT     H141192   7.193   4.114   1.427
13650WAT     H241193   7.114   4.068   1.562
13651WAT      O41194   1.672   1.582   2.380
13651WAT     H141195   1.590   1.629   2.414
13651WAT     H241196   1.651   1.533   2.296
13652WAT      O41197   2.527   4.908   9.162
13652WAT     H141198   2.497   5.002   9.146
13652WAT     H241199   2.454   4.858   9.208
13653WAT      O41200   7.643   5.368   4.857
13653WAT     H141201   7.686   5.357   4.768
13653WAT     H241202   7.672   5.454   4.899
13654WAT      O41203   5.241   6.452   9.370
13654WAT     H141204   5.276   6.537   9.329
13654WAT     H241205   5.263   6.450   9.467
13655WAT      O41206   6.708   4.130   5.547
13655WAT     H141207   6.761   4.214   5.557
13655WAT     H241208   6.622   4.138   5.598
13656WAT      O41209   0.890   2.133   6.306
13656WAT     H141210   0.832   2.212   6.288
13656WAT     H241211   0.834   2.051   6.314
13657WAT      O41212   7.874   2.879   4.207
13657WAT     H141213   7.830   2.900   4.120
13657WAT     H241214   7.961   2.833   4.191
13658WAT      O41215   4.181   3.907   8.965
13658WAT     H141216   4.212   3.815   8.990
13658WAT     H241217   4.181   3.965   9.046
13659WAT      O41218   8.966   1.965   5.896
13659WAT     H141219   8.982   1.878   5.850
13659WAT     H241220   9.009   1.964   5.986
13660WAT      O41221   5.132   0.221   3.610
13660WAT     H141222   5.214   0.277   3.619
13660WAT     H241223   5.116   0.201   3.513
13661WAT      O41224   4.637   0.478   1.147
13661WAT     H141225   4.714   0.540   1.161
13661WAT     H241226   4.644   0.436   1.056
13662WAT      O41227   9.106   5.116   4.733
13662WAT     H141228   9.103   5.029   4.684
13662WAT     H241229   9.197   5.128   4.772
13663WAT      O41230   7.060   8.542   3.732
13663WAT     H141231   7.089   8.481   3.658
13663WAT     H241232   7.028   8.628   3.694
13664WAT      O41233   5.544   4.641   2.126
13664WAT     H141234   5.625   4.689   2.093
13664WAT     H241235   5.570   4.549   2.157
13665WAT      O41236   3.775   6.426   6.841
13665WAT     H141237   3.778   6.370   6.923
13665WAT     H241238   3.706   6.497   6.851
13666WAT      O41239   5.361   8.965   7.339
13666WAT     H141240   5.264   8.973   7.363
13666WAT     H241241   5.382   8.870   7.316
13667WAT      O41242   4.954   1.970   4.222
13667WAT     H141243   4.903   1.897   4.177
13667WAT     H241244   4.931   1.973   4.319
13668WAT      O41245   9.209   1.402   0.332
13668WAT     H141246   9.135   1.436   0.275
13668WAT     H241247   9.172   1.345   0.405
13669WAT      O41248   4.856   8.337   3.335
13669WAT     H141249   4.878   8.279   3.257
13669WAT     H241250   4.916   8.417   3.335
13670WAT      O41251   0.769   1.748   5.376
13670WAT     H141252   0.830   1.718   5.304
13670WAT     H241253   0.723   1.832   5.348
13671WAT      O41254   8.927   3.237   7.017
13671WAT     H141255   9.021   3.239   6.984
13671WAT     H241256   8.925   3.258   7.115
13672WAT      O41257   0.894   1.973   1.580
13672WAT     H141258   0.967   2.041   1.589
13672WAT     H241259   0.823   2.007   1.520
13673WAT      O41260   0.889   7.572   8.137
13673WAT     H141261   0.817   7.632   8.172
13673WAT     H241262   0.858   7.527   8.054
13674WAT      O41263   8.738   7.463   8.176
13674WAT     H141264   8.719   7.434   8.270
13674WAT     H241265   8.652   7.477   8.127
13675WAT      O41266   2.798   8.787   2.662
13675WAT     H141267   2.896   8.805   2.661
13675WAT     H241268   2.778   8.715   2.729
13676WAT      O41269   4.450   5.375   2.064
13676WAT     H141270   4.474   5.363   1.967
13676WAT     H241271   4.399   5.460   2.075
13677WAT      O41272   1.671   5.080   6.487
13677WAT     H141273   1.669   4.983   6.460
13677WAT     H241274   1.763   5.104   6.517
13678WAT      O41275   8.220   4.416   7.706
13678WAT     H141276   8.293   4.390   7.770
13678WAT     H241277   8.170   4.334   7.678
13679WAT      O41278   2.854   7.053   9.498
13679WAT     H141279   2.851   6.970   9.443
13679WAT     H241280   2.825   7.131   9.443
13680WAT      O41281   1.226   9.681   2.507
13680WAT     H141282   1.303   9.721   2.456
13680WAT     H241283   1.152   9.748   2.513
13681WAT      O41284   0.335   3.512   6.527
13681WAT     H141285   0.387   3.463   6.457
13681WAT     H241286   0.398   3.557   6.590
13682WAT      O41287   7.880   7.168   5.931
13682WAT     H141288   7.952   7.109   5.895
13682WAT     H241289   7.851   7.135   6.021
13683WAT      O41290   9.033   0.822   3.085
13683WAT     H141291   9.131   0.807   3.093
13683WAT     H241292   9.014   0.920   3.083
13684WAT      O41293   8.099   5.658   0.321
13684WAT     H141294   8.037   5.581   0.303
13684WAT     H241295   8.190   5.635   0.286
13685WAT      O41296   2.449   6.004   7.322
13685WAT     H141297   2.421   6.071   7.253
13685WAT     H241298   2.373   5.988   7.385
13686WAT      O41299   0.191   2.789   2.620
13686WAT     H141300   0.131   2.712   2.641
13686WAT     H241301   0.276   2.780   2.671
13687WAT      O41302   8.812   0.705   4.062
13687WAT     H141303   8.714   0.699   4.080
13687WAT     H241304   8.838   0.636   3.994
13688WAT      O41305   9.452   2.329   0.623
13688WAT     H141306   9.432   2.353   0.528
13688WAT     H241307   9.542   2.287   0.629
13689WAT      O41308   8.232   6.997   9.481
13689WAT     H141309   8.265   6.910   9.443
13689WAT     H241310   8.179   6.978   9.564
13690WAT      O41311   8.029   5.676   8.150
13690WAT     H141312   8.090   5.748   8.117
13690WAT     H241313   7.935   5.710   8.150
13691WAT      O41314   4.719   6.248   6.379
13691WAT     H141315   4.813   6.247   6.347
13691WAT     H241316   4.710   6.190   6.459
13692WAT      O41317   3.388   7.734   8.077
13692WAT     H141318   3.460   7.733   8.008
13692WAT     H241319   3.378   7.826   8.115
13693WAT      O41320   9.026   1.459   0.153
13693WAT     H141321   9.066   1.452   0.062
13693WAT     H241322   8.946   1.520   0.151
13694WAT      O41323   2.972   9.371   5.831
13694WAT     H141324   2.994   9.424   5.913
13694WAT     H241325   2.875   9.350   5.830
13695WAT      O41326   1.239   0.959   0.368
13695WAT     H141327   1.315   0.966   0.304
13695WAT     H241328   1.177   0.886   0.339
13696WAT      O41329   2.863   5.160   7.251
13696WAT     H141330   2.905   5.243   7.214
13696WAT     H241331   2.877   5.084   7.188
13697WAT      O41332   4.842   0.984   7.815
13697WAT     H141333   4.936   0.955   7.836
13697WAT     H241334   4.835   1.007   7.718
13698WAT      O41335   0.085   6.050   4.448
13698WAT     H141336   0.116   6.101   4.528
13698WAT     H241337   0.038   6.112   4.385
13699WAT      O41338   6.344   6.485   8.989
13699WAT     H141339   6.379   6.416   9.052
13699WAT     H241340   6.360   6.576   9.026
13700WAT      O41341   0.742   2.263   0.931
13700WAT     H141342   0.833   2.259   0.971
13700WAT     H241343   0.691   2.181   0.958
13701WAT      O41344   0.421   5.538   2.154
13701WAT     H141345   0.453   5.526   2.248
13701WAT     H241346   0.341   5.599   2.153
13702WAT      O41347   1.323   9.003   7.108
13702WAT     H141348   1.380   8.934   7.064
13702WAT     H241349   1.376   9.087   7.122
13703WAT      O41350   9.032   6.686   2.337
13703WAT     H141351   9.030   6.754   2.264
13703WAT     H241352   8.980   6.719   2.416
13704WAT      O41353   8.054   2.724   6.685
13704WAT     H141354   8.006   2.639   6.666
13704WAT     H241355   8.142   2.725   6.637
13705WAT      O41356   4.968   0.617   4.649
13705WAT     H141357   5.004   0.527   4.621
13705WAT     H241358   5.033   0.661   4.710
13706WAT      O41359   6.512   0.049   0.206
13706WAT     H141360   6.465  -0.023   0.154
13706WAT     H241361   6.503   0.136   0.159
13707WAT      O41362   5.027   1.079   4.822
13707WAT     H141363   4.957   1.045   4.884
13707WAT     H241364   5.053   1.006   4.758
13708WAT      O41365   4.951   2.716   1.022
13708WAT     H141366   4.913   2.632   1.062
13708WAT     H241367   4.887   2.752   0.954
13709WAT      O41368   8.557   7.589   5.428
13709WAT     H141369   8.566   7.532   5.346
13709WAT     H241370   8.474   7.563   5.477
13710WAT      O41371   5.805   0.693   6.576
13710WAT     H141372   5.861   0.711   6.656
13710WAT     H241373   5.712   0.727   6.592
13711WAT      O41374   8.998   3.720   1.021
13711WAT     H141375   9.096   3.743   1.024
13711WAT     H241376   8.956   3.741   1.109
13712WAT      O41377   2.403   3.315   0.952
13712WAT     H141378   2.494   3.307   0.992
13712WAT     H241379   2.369   3.409   0.964
13713WAT      O41380   5.885   5.883   9.694
13713WAT     H141381   5.805   5.846   9.740
13713WAT     H241382   5.923   5.958   9.748
13714WAT      O41383   1.510   3.336   3.255
13714WAT     H141384   1.500   3.247   3.298
13714WAT     H241385   1.554   3.325   3.165
13715WAT      O41386   9.491   4.463   2.297
13715WAT     H141387   9.514   4.384   2.240
13715WAT     H241388   9.520   4.547   2.252
13716WAT      O41389   2.061   9.435   5.818
13716WAT     H141390   2.034   9.384   5.899
13716WAT     H241391   2.132   9.384   5.769
13717WAT      O41392   9.860   1.003   4.624
13717WAT     H141393   9.896   1.037   4.711
13717WAT     H241394   9.766   0.970   4.638
13718WAT      O41395   3.764   8.951   9.683
13718WAT     H141396   3.740   8.985   9.591
13718WAT     H241397   3.692   8.890   9.716
13719WAT      O41398   1.682   8.375   5.752
13719WAT     H141399   1.748   8.324   5.807
13719WAT     H241400   1.590   8.343   5.772
13720WAT      O41401   4.894   6.923   2.668
13720WAT     H141402   4.925   6.979   2.592
13720WAT     H241403   4.948   6.839   2.673
13721WAT      O41404   1.269   9.143   1.353
13721WAT     H141405   1.247   9.053   1.390
13721WAT     H241406   1.196   9.207   1.376
13722WAT      O41407   3.388   4.192   8.884
13722WAT     H141408   3.425   4.279   8.852
13722WAT     H241409   3.451   4.151   8.949
13723WAT      O41410   1.170   9.672   9.722
13723WAT     H141411   1.159   9.705   9.816
13723WAT     H241412   1.185   9.750   9.661
13724WAT      O41413   3.426   8.087   0.763
13724WAT     H141414   3.486   8.111   0.839
13724WAT     H241415   3.459   8.004   0.718
13725WAT      O41416   5.633   1.090   0.992
13725WAT     H141417   5.621   1.037   1.076
13725WAT     H241418   5.714   1.149   1.002
13726WAT      O41419   4.335   0.919   2.505
13726WAT     H141420   4.257   0.907   2.442
13726WAT     H241421   4.352   0.832   2.552
13727WAT      O41422   8.356   6.525   1.409
13727WAT     H141423   8.268   6.501   1.368
13727WAT     H241424   8.374   6.466   1.487
13728WAT      O41425   5.509   7.584   2.952
13728WAT     H141426   5.480   7.574   2.857
13728WAT     H241427   5.514   7.493   2.994
13729WAT      O41428   7.636   4.270   1.571
13729WAT     H141429   7.600   4.180   1.593
13729WAT     H241430   7.596   4.301   1.485
13730WAT      O41431   4.590   6.325   3.072
13730WAT     H141432   4.636   6.386   3.007
13730WAT     H241433   4.492   6.343   3.071
13731WAT      O41434   7.346   0.485   4.662
13731WAT     H141435   7.370   0.578   4.632
13731WAT     H241436   7.276   0.448   4.602
13732WAT      O41437   7.813   3.950   7.976
13732WAT     H141438   7.832   4.048   7.965
13732WAT     H241439   7.818   3.926   8.073
13733WAT      O41440   3.624   4.383   9.438
13733WAT     H141441   3.659   4.296   9.473
13733WAT     H241442   3.548   4.366   9.375
13734WAT      O41443   8.911   5.700   5.132
13734WAT     H141444   8.983   5.737   5.191
13734WAT     H241445   8.952   5.654   5.053
13735WAT      O41446   5.737   4.014   0.421
13735WAT     H141447   5.672   3.996   0.347
13735WAT     H241448   5.697   4.080   0.485
13736WAT      O41449   6.707   2.902   7.328
13736WAT     H141450   6.695   2.811   7.367
13736WAT     H241451   6.712   2.969   7.402
13737WAT      O41452   6.551   5.179   9.385
13737WAT     H141453   6.640   5.149   9.419
13737WAT     H241454   6.543   5.278   9.398
13738WAT      O41455   6.220   9.505   7.180
13738WAT     H141456   6.211   9.568   7.257
13738WAT     H241457   6.137   9.450   7.171
13739WAT      O41458   6.828   7.051   7.953
13739WAT     H141459   6.849   6.962   7.994
13739WAT     H241460   6.730   7.059   7.939
13740WAT      O41461   5.284   1.446   2.833
13740WAT     H141462   5.356   1.497   2.785
13740WAT     H241463   5.303   1.348   2.827
13741WAT      O41464   9.508   6.281   7.900
13741WAT     H141465   9.598   6.247   7.872
13741WAT     H241466   9.447   6.282   7.821
13742WAT      O41467   7.510   2.457   7.144
13742WAT     H141468   7.503   2.539   7.088
13742WAT     H241469   7.419   2.416   7.154
13743WAT      O41470   7.142   6.554   1.741
13743WAT     H141471   7.054   6.525   1.702
13743WAT     H241472   7.143   6.534   1.839
13744WAT      O41473   7.258   8.313   1.004
13744WAT     H141474   7.326   8.379   1.033
13744WAT     H241475   7.293   8.220   1.018
13745WAT      O41476   0.495   1.545   6.098
13745WAT     H141477   0.493   1.601   6.016
13745WAT     H241478   0.410   1.493   6.106
13746WAT      O41479   9.806   3.991   1.573
13746WAT     H141480   9.886   3.959   1.522
13746WAT     H241481   9.723   3.965   1.525
13747WAT      O41482   4.218   5.040   5.865
13747WAT     H141483   4.157   5.020   5.789
13747WAT     H241484   4.212   5.136   5.889
13748WAT      O41485   1.193   9.516   4.772
13748WAT     H141486   1.197   9.416   4.766
13748WAT     H241487   1.102   9.543   4.804
13749WAT      O41488   4.516   8.831   7.530
13749WAT     H141489   4.510   8.849   7.628
13749WAT     H241490   4.607   8.855   7.497
13750WAT      O41491   9.155   2.094   5.068
13750WAT     H141492   9.097   2.094   5.149
13750WAT     H241493   9.102   2.065   4.988
13751WAT      O41494   0.262   4.819   9.133
13751WAT     H141495   0.336   4.832   9.068
13751WAT     H241496   0.208   4.903   9.140
13752WAT      O41497   2.456   2.455   4.684
13752WAT     H141498   2.383   2.512   4.646
13752WAT     H241499   2.488   2.496   4.769
13753WAT      O41500   8.958   9.129   5.478
13753WAT     H141501   8.920   9.100   5.390
13753WAT     H241502   8.905   9.089   5.553
13754WAT      O41503   3.465   7.190   5.336
13754WAT     H141504   3.372   7.153   5.324
13754WAT     H241505   3.523   7.159   5.260
13755WAT      O41506   2.040   1.349   0.569
13755WAT     H141507   2.008   1.443   0.581
13755WAT     H241508   2.067   1.311   0.657
13756WAT      O41509   5.936   5.764   1.868
13756WAT     H141510   5.874   5.688   1.886
13756WAT     H241511   5.892   5.828   1.805
13757WAT      O41512   6.720   7.403   8.874
13757WAT     H141513   6.656   7.347   8.926
13757WAT     H241514   6.683   7.421   8.782
13758WAT      O41515   2.140   4.530   2.132
13758WAT     H141516   2.192   4.448   2.158
13758WAT     H241517   2.203   4.599   2.095
13759WAT      O41518   9.654   4.904   7.933
13759WAT     H141519   9.738   4.957   7.949
13759WAT     H241520   9.590   4.920   8.008
13760WAT      O41521   2.290   8.517   5.321
13760WAT     H141522   2.272   8.447   5.390
13760WAT     H241523   2.247   8.490   5.234
13761WAT      O41524   3.750   0.752   2.162
13761WAT     H141525   3.710   0.831   2.208
13761WAT     H241526   3.829   0.781   2.107
13762WAT      O41527   0.533   3.036   2.795
13762WAT     H141528   0.478   2.961   2.831
13762WAT     H241529   0.602   3.062   2.863
13763WAT      O41530   3.149   2.706   4.876
13763WAT     H141531   3.203   2.789   4.889
13763WAT     H241532   3.209   2.631   4.846
13764WAT      O41533   0.363   9.496   1.618
13764WAT     H141534   0.397   9.484   1.712
13764WAT     H241535   0.366   9.593   1.594
13765WAT      O41536   7.673   6.271   0.226
13765WAT     H141537   7.708   6.349   0.173
13765WAT     H241538   7.749   6.220   0.265
13766WAT      O41539   9.816   7.539   5.446
13766WAT     H141540   9.761   7.464   5.411
13766WAT     H241541   9.774   7.575   5.529
13767WAT      O41542   4.210   9.440   7.036
13767WAT     H141543   4.292   9.489   7.005
13767WAT     H241544   4.149   9.424   6.958
13768WAT      O41545   2.191   4.377   9.163
13768WAT     H141546   2.124   4.326   9.217
13768WAT     H241547   2.283   4.357   9.196
13769WAT      O41548   5.379   1.015   6.735
13769WAT     H141549   5.396   1.104   6.692
13769WAT     H241550   5.300   1.022   6.795
13770WAT      O41551   9.809   9.556   9.393
13770WAT     H141552   9.848   9.591   9.308
13770WAT     H241553   9.750   9.478   9.373
13771WAT      O41554   9.471   2.906   6.043
13771WAT     H141555   9.466   2.807   6.034
13771WAT     H241556   9.557   2.939   6.005
13772WAT      O41557   0.980   3.695   9.540
13772WAT     H141558   0.895   3.672   9.493
13772WAT     H241559   1.051   3.713   9.473
13773WAT      O41560   2.699   6.726   7.947
13773WAT     H141561   2.778   6.665   7.956
13773WAT     H241562   2.704   6.775   7.861
13774WAT      O41563   9.266   8.797   5.791
13774WAT     H141564   9.335   8.830   5.727
13774WAT     H241565   9.187   8.857   5.789
13775WAT      O41566   4.960   5.273   5.589
13775WAT     H141567   4.901   5.193   5.577
13775WAT     H241568   4.984   5.310   5.499
13776WAT      O41569   8.489   4.599   2.748
13776WAT     H141570   8.555   4.643   2.687
13776WAT     H241571   8.456   4.665   2.815
13777WAT      O41572   7.541   6.404   7.916
13777WAT     H141573   7.574   6.309   7.919
13777WAT     H241574   7.613   6.465   7.949
13778WAT      O41575   4.466   0.978   0.369
13778WAT     H141576   4.406   0.917   0.316
13778WAT     H241577   4.556   0.936   0.377
13779WAT      O41578   4.255   9.617   5.090
13779WAT     H141579   4.256   9.667   5.003
13779WAT     H241580   4.234   9.680   5.165
13780WAT      O41581   2.148   3.261   4.083
13780WAT     H141582   2.129   3.187   4.020
13780WAT     H241583   2.063   3.308   4.107
13781WAT      O41584   5.400   2.184   8.920
13781WAT     H141585   5.431   2.091   8.939
13781WAT     H241586   5.303   2.192   8.940
13782WAT      O41587   1.958   3.169   1.757
13782WAT     H141588   1.950   3.135   1.850
13782WAT     H241589   2.026   3.115   1.707
13783WAT      O41590   8.538   6.383   0.542
13783WAT     H141591   8.525   6.344   0.633
13783WAT     H241592   8.585   6.317   0.484
13784WAT      O41593   8.408   1.763   2.732
13784WAT     H141594   8.469   1.803   2.801
13784WAT     H241595   8.434   1.797   2.642
13785WAT      O41596   6.166   6.688   8.864
13785WAT     H141597   6.226   6.615   8.897
13785WAT     H241598   6.219   6.751   8.808
13786WAT      O41599   2.530   2.833   8.155
13786WAT     H141600   2.621   2.830   8.196
13786WAT     H241601   2.532   2.890   8.072
13787WAT      O41602   8.016   7.348   7.073
13787WAT     H141603   8.113   7.326   7.057
13787WAT     H241604   8.006   7.447   7.084
13788WAT      O41605   5.170   8.749   1.090
13788WAT     H141606   5.256   8.715   1.052
13788WAT     H241607   5.130   8.817   1.029
13789WAT      O41608   2.440   1.222   9.642
13789WAT     H141609   2.452   1.251   9.547
13789WAT     H241610   2.473   1.294   9.704
13790WAT      O41611   0.430   4.855   1.975
13790WAT     H141612   0.420   4.950   2.002
13790WAT     H241613   0.460   4.850   1.879
13791WAT      O41614   7.700   1.297   1.351
13791WAT     H141615   7.629   1.226   1.349
13791WAT     H241616   7.732   1.315   1.258
13792WAT      O41617   0.005   6.970   2.299
13792WAT     H141618   0.084   6.960   2.238
13792WAT     H241619  -0.014   7.067   2.314
13793WAT      O41620   8.825   4.139   0.715
13793WAT     H141621   8.821   4.134   0.615
13793WAT     H241622   8.908   4.187   0.743
13794WAT      O41623   9.250   6.824   9.377
13794WAT     H141624   9.291   6.908   9.413
13794WAT     H241625   9.174   6.848   9.317
13795WAT      O41626   4.040   6.117   0.021
13795WAT     H141627   4.081   6.081   0.105
13795WAT     H241628   4.092   6.196  -0.010
13796WAT      O41629   6.237   4.113   7.888
13796WAT     H141630   6.245   4.077   7.981
13796WAT     H241631   6.327   4.114   7.846
13797WAT      O41632   1.196   2.264   5.965
13797WAT     H141633   1.207   2.358   5.933
13797WAT     H241634   1.153   2.264   6.055
13798WAT      O41635   3.713   3.724   7.841
13798WAT     H141636   3.678   3.724   7.934
13798WAT     H241637   3.691   3.637   7.796
13799WAT      O41638   1.017   4.847   7.870
13799WAT     H141639   1.090   4.914   7.885
13799WAT     H241640   0.956   4.847   7.949
13800WAT      O41641   0.626   6.943   2.884
13800WAT     H141642   0.589   7.005   2.816
13800WAT     H241643   0.726   6.951   2.885
13801WAT      O41644   1.333   4.150   8.918
13801WAT     H141645   1.261   4.150   8.988
13801WAT     H241646   1.367   4.057   8.905
13802WAT      O41647   1.797   2.133   0.042
13802WAT     H141648   1.733   2.180  -0.020
13802WAT     H241649   1.754   2.052   0.080
13803WAT      O41650   1.616   7.361   2.283
13803WAT     H141651   1.665   7.445   2.260
13803WAT     H241652   1.575   7.323   2.199
13804WAT      O41653   4.481   9.230   1.112
13804WAT     H141654   4.384   9.216   1.090
13804WAT     H241655   4.491   9.314   1.165
13805WAT      O41656   9.124   2.373   5.381
13805WAT     H141657   9.200   2.431   5.353
13805WAT     H241658   9.063   2.357   5.304
13806WAT      O41659   2.521   4.420   7.558
13806WAT     H141660   2.548   4.341   7.503
13806WAT     H241661   2.421   4.425   7.563
13807WAT      O41662   9.114   6.784   3.240
13807WAT     H141663   9.035   6.845   3.236
13807WAT     H241664   9.089   6.701   3.290
13808WAT      O41665   5.444   7.381   0.430
13808WAT     H141666   5.365   7.337   0.387
13808WAT     H241667   5.418   7.472   0.462
13809WAT      O41668   8.789   0.678   0.649
13809WAT     H141669   8.810   0.696   0.552
13809WAT     H241670   8.825   0.753   0.705
13810WAT      O41671   5.520   5.219   3.354
13810WAT     H141672   5.476   5.200   3.441
13810WAT     H241673   5.562   5.135   3.318
13811WAT      O41674   9.303   3.310   1.611
13811WAT     H141675   9.374   3.241   1.598
13811WAT     H241676   9.213   3.267   1.603
13812WAT      O41677   1.670   6.411   0.654
13812WAT     H141678   1.662   6.473   0.732
13812WAT     H241679   1.671   6.317   0.687
13813WAT      O41680   7.516   6.079   2.809
13813WAT     H141681   7.486   6.175   2.811
13813WAT     H241682   7.611   6.073   2.839
13814WAT      O41683   9.267   7.471   7.688
13814WAT     H141684   9.354   7.514   7.661
13814WAT     H241685   9.195   7.499   7.625
13815WAT      O41686   0.726   2.886   9.071
13815WAT     H141687   0.804   2.886   9.008
13815WAT     H241688   0.709   2.793   9.103
13816WAT      O41689   6.837   3.278   7.490
13816WAT     H141690   6.908   3.249   7.554
13816WAT     H241691   6.814   3.374   7.506
13817WAT      O41692   3.649   1.141   0.836
13817WAT     H141693   3.703   1.079   0.892
13817WAT     H241694   3.708   1.191   0.773
13818WAT      O41695   3.354   2.997   5.080
13818WAT     H141696   3.441   3.018   5.126
13818WAT     H241697   3.287   3.066   5.104
13819WAT      O41698   8.383   1.172   6.892
13819WAT     H141699   8.328   1.251   6.921
13819WAT     H241700   8.446   1.200   6.820
13820WAT      O41701   2.743   1.778   4.699
13820WAT     H141702   2.727   1.701   4.636
13820WAT     H241703   2.737   1.746   4.793
13821WAT      O41704   0.031   5.675   7.432
13821WAT     H141705   0.102   5.651   7.366
13821WAT     H241706   0.055   5.760   7.478
13822WAT      O41707   8.161   2.481   9.318
13822WAT     H141708   8.226   2.410   9.346
13822WAT     H241709   8.209   2.569   9.312
13823WAT      O41710   7.020   6.031   5.954
13823WAT     H141711   7.113   6.057   5.980
13823WAT     H241712   7.019   5.935   5.926
13824WAT      O41713   7.334   9.725   6.290
13824WAT     H141714   7.244   9.682   6.303
13824WAT     H241715   7.324   9.824   6.293
13825WAT      O41716   1.790   8.876   0.178
13825WAT     H141717   1.726   8.858   0.253
13825WAT     H241718   1.870   8.926   0.213
13826WAT      O41719   8.949   0.162   3.994
13826WAT     H141720   9.037   0.182   3.951
13826WAT     H241721   8.934   0.223   4.071
13827WAT      O41722   1.785   3.029   9.457
13827WAT     H141723   1.836   3.110   9.487
13827WAT     H241724   1.734   3.051   9.373
13828WAT      O41725   1.036   2.724   1.020
13828WAT     H141726   1.103   2.792   1.050
13828WAT     H241727   0.971   2.707   1.093
13829WAT      O41728   9.295   3.365   4.041
13829WAT     H141729   9.381   3.324   4.073
13829WAT     H241730   9.264   3.318   3.959
13830WAT      O41731   2.194   1.108   3.705
13830WAT     H141732   2.154   1.171   3.773
13830WAT     H241733   2.154   1.017   3.716
13831WAT      O41734   2.604   0.724   9.436
13831WAT     H141735   2.562   0.812   9.414
13831WAT     H241736   2.585   0.701   9.532
13832WAT      O41737   4.810   0.697   8.446
13832WAT     H141738   4.769   0.665   8.360
13832WAT     H241739   4.738   0.722   8.510
13833WAT      O41740   9.341   2.853   4.952
13833WAT     H141741   9.344   2.888   4.859
13833WAT     H241742   9.278   2.908   5.007
13834WAT      O41743   8.631   0.931   7.739
13834WAT     H141744   8.562   0.879   7.790
13834WAT     H241745   8.709   0.872   7.718
13835WAT      O41746   3.913   0.800   3.015
13835WAT     H141747   3.987   0.825   2.952
13835WAT     H241748   3.905   0.700   3.018
13836WAT      O41749   9.041   5.269   4.073
13836WAT     H141750   9.113   5.257   4.005
13836WAT     H241751   8.961   5.310   4.030
13837WAT      O41752   0.542   5.541   6.854
13837WAT     H141753   0.533   5.588   6.767
13837WAT     H241754   0.451   5.514   6.887
13838WAT      O41755   2.928   2.065   8.373
13838WAT     H141756   2.856   2.134   8.388
13838WAT     H241757   2.997   2.102   8.311
13839WAT      O41758   4.463   8.966   3.477
13839WAT     H141759   4.414   8.920   3.551
13839WAT     H241760   4.550   9.001   3.510
13840WAT      O41761   1.183   3.958   2.209
13840WAT     H141762   1.106   3.911   2.166
13840WAT     H241763   1.269   3.928   2.167
13841WAT      O41764   4.481   5.088   7.028
13841WAT     H141765   4.411   5.025   7.062
13841WAT     H241766   4.559   5.087   7.091
13842WAT      O41767   3.288   4.521   5.047
13842WAT     H141768   3.263   4.604   4.997
13842WAT     H241769   3.387   4.508   5.044
13843WAT      O41770   8.266   6.649   5.775
13843WAT     H141771   8.199   6.653   5.701
13843WAT     H241772   8.258   6.562   5.823
13844WAT      O41773   2.423   5.055   1.786
13844WAT     H141774   2.326   5.038   1.806
13844WAT     H241775   2.473   4.969   1.788
13845WAT      O41776   6.417   2.182   3.622
13845WAT     H141777   6.478   2.200   3.699
13845WAT     H241778   6.401   2.268   3.572
13846WAT      O41779   4.984   6.306   6.269
13846WAT     H141780   5.024   6.228   6.219
13846WAT     H241781   5.046   6.384   6.263
13847WAT      O41782   2.897   5.210   1.682
13847WAT     H141783   2.932   5.228   1.590
13847WAT     H241784   2.953   5.141   1.727
13848WAT      O41785   1.537   6.490   9.443
13848WAT     H141786   1.546   6.399   9.483
13848WAT     H241787   1.623   6.516   9.399
13849WAT      O41788   3.323   0.460   2.983
13849WAT     H141789   3.307   0.402   3.063
13849WAT     H241790   3.320   0.403   2.901
13850WAT      O41791   4.819   4.315   6.389
13850WAT     H141792   4.875   4.259   6.327
13850WAT     H241793   4.873   4.393   6.420
13851WAT      O41794   1.855   8.228   1.416
13851WAT     H141795   1.877   8.307   1.359
13851WAT     H241796   1.760   8.202   1.401
13852WAT      O41797   7.168   3.958   3.846
13852WAT     H141798   7.126   3.917   3.927
13852WAT     H241799   7.116   4.038   3.817
13853WAT      O41800   3.116   8.956   6.740
13853WAT     H141801   3.201   9.009   6.742
13853WAT     H241802   3.041   9.012   6.774
13854WAT      O41803   5.267   3.093   1.620
13854WAT     H141804   5.173   3.112   1.650
13854WAT     H241805   5.328   3.092   1.699
13855WAT      O41806   7.140   8.253   1.991
13855WAT     H141807   7.100   8.168   1.956
13855WAT     H241808   7.234   8.235   2.021
13856WAT      O41809   0.747   5.524   9.057
13856WAT     H141810   0.805   5.606   9.046
13856WAT     H241811   0.715   5.494   8.967
13857WAT      O41812   3.221   8.555   5.230
13857WAT     H141813   3.295   8.505   5.185
13857WAT     H241814   3.189   8.502   5.309
13858WAT      O41815   6.062   6.244   3.855
13858WAT     H141816   6.059   6.344   3.860
13858WAT     H241817   6.009   6.213   3.775
13859WAT      O41818   2.997   7.160   7.089
13859WAT     H141819   3.058   7.213   7.148
13859WAT     H241820   3.051   7.093   7.039
13860WAT      O41821   2.841   7.310   1.215
13860WAT     H141822   2.899   7.232   1.189
13860WAT     H241823   2.894   7.373   1.273
13861WAT      O41824   7.973   6.422   2.979
13861WAT     H141825   8.053   6.368   2.952
13861WAT     H241826   8.003   6.513   3.009
13862WAT      O41827   3.155   5.723   7.048
13862WAT     H141828   3.142   5.728   7.147
13862WAT     H241829   3.191   5.810   7.014
13863WAT      O41830   9.143   3.786   3.811
13863WAT     H141831   9.132   3.715   3.881
13863WAT     H241832   9.185   3.867   3.852
13864WAT      O41833   8.964   8.130   6.390
13864WAT     H141834   9.054   8.167   6.366
13864WAT     H241835   8.975   8.043   6.437
13865WAT      O41836   4.479   7.332   0.061
13865WAT     H141837   4.411   7.386   0.110
13865WAT     H241838   4.484   7.240   0.101
13866WAT      O41839   2.868   8.386   7.851
13866WAT     H141840   2.840   8.336   7.932
13866WAT     H241841   2.842   8.482   7.860
13867WAT      O41842   8.419   7.089   7.417
13867WAT     H141843   8.324   7.104   7.446
13867WAT     H241844   8.445   7.159   7.351
13868WAT      O41845   0.979   2.138   7.358
13868WAT     H141846   1.047   2.181   7.299
13868WAT     H241847   0.941   2.206   7.421
13869WAT      O41848   6.358   4.550   9.095
13869WAT     H141849   6.375   4.452   9.104
13869WAT     H241850   6.437   4.594   9.052
13870WAT      O41851   0.484   0.553   1.230
13870WAT     H141852   0.550   0.519   1.162
13870WAT     H241853   0.533   0.577   1.314
13871WAT      O41854   1.726   1.208   6.441
13871WAT     H141855   1.772   1.126   6.474
13871WAT     H241856   1.628   1.190   6.432
13872WAT      O41857   0.958   4.404   5.751
13872WAT     H141858   0.887   4.469   5.724
13872WAT     H241859   1.035   4.410   5.687
13873WAT      O41860   6.978   0.205   6.771
13873WAT     H141861   6.940   0.155   6.694
13873WAT     H241862   6.928   0.180   6.855
13874WAT      O41863   2.054   3.587   3.524
13874WAT     H141864   2.055   3.567   3.622
13874WAT     H241865   1.967   3.558   3.485
13875WAT      O41866   7.523   6.194   2.362
13875WAT     H141867   7.510   6.220   2.266
13875WAT     H241868   7.559   6.272   2.413
13876WAT      O41869   0.508   2.724   9.297
13876WAT     H141870   0.558   2.810   9.295
13876WAT     H241871   0.564   2.652   9.256
13877WAT      O41872   1.864   9.450   6.753
13877WAT     H141873   1.880   9.400   6.668
13877WAT     H241874   1.914   9.406   6.828
13878WAT      O41875   4.544   0.029   8.672
13878WAT     H141876   4.453   0.048   8.710
13878WAT     H241877   4.578  -0.057   8.711
13879WAT      O41878   2.437   0.734   1.980
13879WAT     H141879   2.379   0.680   2.040
13879WAT     H241880   2.519   0.763   2.029
13880WAT      O41881   2.049   7.105   7.004
13880WAT     H141882   2.033   7.007   7.015
13880WAT     H241883   1.983   7.142   6.938
13881WAT      O41884   7.530   3.588   2.860
13881WAT     H141885   7.434   3.588   2.831
13881WAT     H241886   7.572   3.675   2.833
13882WAT      O41887   5.206   4.230   0.170
13882WAT     H141888   5.222   4.138   0.132
13882WAT     H241889   5.294   4.277   0.179
13883WAT      O41890   0.653   1.981   5.357
13883WAT     H141891   0.603   2.037   5.291
13883WAT     H241892   0.622   2.004   5.450
13884WAT      O41893   5.870   4.096   3.273
13884WAT     H141894   5.787   4.146   3.248
13884WAT     H241895   5.895   4.119   3.367
13885WAT      O41896   6.704   8.575   7.241
13885WAT     H141897   6.646   8.655   7.232
13885WAT     H241898   6.800   8.602   7.232
13886WAT      O41899   8.090   6.451   6.424
13886WAT     H141900   8.162   6.500   6.473
13886WAT     H241901   8.037   6.397   6.489
13887WAT      O41902   9.184   6.979   7.865
13887WAT     H141903   9.150   6.900   7.814
13887WAT     H241904   9.230   7.042   7.803
13888WAT      O41905   8.630   3.303   5.796
13888WAT     H141906   8.658   3.294   5.892
13888WAT     H241907   8.552   3.243   5.778
13889WAT      O41908   9.632   0.491   1.249
13889WAT     H141909   9.592   0.581   1.234
13889WAT     H241910   9.566   0.433   1.296
13890WAT      O41911   1.353   7.793   6.212
13890WAT     H141912   1.393   7.884   6.223
13890WAT     H241913   1.426   7.726   6.198
13891WAT      O41914   5.939   6.540   8.054
13891WAT     H141915   5.928   6.636   8.027
13891WAT     H241916   6.022   6.531   8.109
13892WAT      O41917   7.235   6.805   5.685
13892WAT     H141918   7.196   6.863   5.756
13892WAT     H241919   7.306   6.747   5.724
13893WAT      O41920   7.563   2.255   9.262
13893WAT     H141921   7.631   2.221   9.197
13893WAT     H241922   7.498   2.183   9.283
13894WAT      O41923   5.957   0.799   3.421
13894WAT     H141924   6.056   0.809   3.435
13894WAT     H241925   5.941   0.744   3.339
13895WAT      O41926   7.527   9.536   8.875
13895WAT     H141927   7.613   9.583   8.856
13895WAT     H241928   7.452   9.585   8.830
13896WAT      O41929   4.149   2.755   9.256
13896WAT     H141930   4.217   2.693   9.296
13896WAT     H241931   4.190   2.800   9.176
13897WAT      O41932   5.325   3.309   5.341
13897WAT     H141933   5.229   3.284   5.331
13897WAT     H241934   5.365   3.328   5.251
13898WAT      O41935   7.859   9.531   2.686
13898WAT     H141936   7.862   9.433   2.708
13898WAT     H241937   7.918   9.581   2.749
13899WAT      O41938   2.527   6.732   1.966
13899WAT     H141939   2.579   6.805   1.920
13899WAT     H241940   2.442   6.716   1.916
13900WAT      O41941   3.043   2.851   0.537
13900WAT     H141942   3.104   2.930   0.534
13900WAT     H241943   3.046   2.803   0.448
13901WAT      O41944   7.443   8.512   4.921
13901WAT     H141945   7.360   8.527   4.975
13901WAT     H241946   7.428   8.543   4.828
13902WAT      O41947   5.799   4.570   4.334
13902WAT     H141948   5.793   4.659   4.289
13902WAT     H241949   5.894   4.552   4.360
13903WAT      O41950   8.671   8.117   8.959
13903WAT     H141951   8.642   8.051   9.028
13903WAT     H241952   8.625   8.205   8.976
13904WAT      O41953   3.529   0.648   3.748
13904WAT     H141954   3.575   0.635   3.661
13904WAT     H241955   3.596   0.673   3.818
13905WAT      O41956   4.919   0.164   2.901
13905WAT     H141957   4.851   0.209   2.843
13905WAT     H241958   4.950   0.080   2.857
13906WAT      O41959   8.734   5.862   3.836
13906WAT     H141960   8.815   5.912   3.868
13906WAT     H241961   8.714   5.890   3.742
13907WAT      O41962   8.620   6.168   3.220
13907WAT     H141963   8.704   6.220   3.238
13907WAT     H241964   8.540   6.226   3.235
13908WAT      O41965   9.661   1.225   4.687
13908WAT     H141966   9.695   1.201   4.778
13908WAT     H241967   9.692   1.318   4.665
13909WAT      O41968   1.625   1.128   8.129
13909WAT     H141969   1.664   1.058   8.189
13909WAT     H241970   1.593   1.085   8.044
13910WAT      O41971   6.553   8.569   1.846
13910WAT     H141972   6.508   8.620   1.919
13910WAT     H241973   6.524   8.474   1.847
13911WAT      O41974   2.804   9.150   1.517
13911WAT     H141975   2.775   9.077   1.455
13911WAT     H241976   2.775   9.238   1.480
13912WAT      O41977   0.748   9.820   3.525
13912WAT     H141978   0.814   9.798   3.597
13912WAT     H241979   0.775   9.905   3.479
13913WAT      O41980   9.296   8.663   1.331
13913WAT     H141981   9.277   8.760   1.313
13913WAT     H241982   9.395   8.648   1.330
13914WAT      O41983   0.737   6.143   1.183
13914WAT     H141984   0.765   6.100   1.269
13914WAT     H241985   0.757   6.241   1.186
13915WAT      O41986   2.357   9.831   2.369
13915WAT     H141987   2.300   9.903   2.408
13915WAT     H241988   2.453   9.851   2.390
13916WAT      O41989   3.877   0.528   3.061
13916WAT     H141990   3.890   0.455   2.994
13916WAT     H241991   3.780   0.541   3.078
13917WAT      O41992   8.007   6.221   8.052
13917WAT     H141993   8.024   6.128   8.084
13917WAT     H241994   8.074   6.283   8.094
13918WAT      O41995   7.697   0.276   8.429
13918WAT     H141996   7.633   0.348   8.404
13918WAT     H241997   7.707   0.212   8.352
13919WAT      O41998   9.723   2.803   1.347
13919WAT     H141999   9.751   2.707   1.337
13919WAT     H242000   9.744   2.853   1.263
13920WAT      O42001   4.498   3.594   6.740
13920WAT     H142002   4.597   3.606   6.731
13920WAT     H242003   4.469   3.516   6.685
13921WAT      O42004   7.702   9.471   6.574
13921WAT     H142005   7.664   9.538   6.510
13921WAT     H242006   7.795   9.449   6.547
13922WAT      O42007   5.501   2.779   0.331
13922WAT     H142008   5.457   2.712   0.390
13922WAT     H242009   5.590   2.804   0.368
13923WAT      O42010   1.558   6.900   0.005
13923WAT     H142011   1.486   6.834   0.025
13923WAT     H242012   1.579   6.899  -0.093
13924WAT      O42013   9.764   4.828   8.754
13924WAT     H142014   9.675   4.814   8.798
13924WAT     H242015   9.815   4.897   8.805
13925WAT      O42016   0.649   0.894   1.049
13925WAT     H142017   0.578   0.876   0.981
13925WAT     H242018   0.612   0.878   1.140
13926WAT      O42019   0.633   9.726   0.978
13926WAT     H142020   0.603   9.766   0.891
13926WAT     H242021   0.723   9.684   0.966
13927WAT      O42022   9.209   1.067   0.087
13927WAT     H142023   9.266   1.011   0.027
13927WAT     H242024   9.250   1.158   0.097
13928WAT      O42025   1.791   6.324   4.622
13928WAT     H142026   1.796   6.226   4.643
13928WAT     H242027   1.881   6.357   4.595
13929WAT      O42028   1.894   0.834   7.405
13929WAT     H142029   1.975   0.881   7.369
13929WAT     H242030   1.906   0.736   7.394
13930WAT      O42031   3.004   0.563   4.534
13930WAT     H142032   3.026   0.651   4.577
13930WAT     H242033   3.065   0.492   4.569
13931WAT      O42034   5.416   9.376   4.847
13931WAT     H142035   5.499   9.423   4.815
13931WAT     H242036   5.386   9.311   4.777
13932WAT      O42037   0.145   3.908   1.994
13932WAT     H142038   0.210   3.839   2.024
13932WAT     H242039   0.194   3.982   1.948
13933WAT      O42040   1.238   6.166   1.459
13933WAT     H142041   1.173   6.188   1.387
13933WAT     H242042   1.307   6.238   1.465
13934WAT      O42043   8.488   5.742   9.553
13934WAT     H142044   8.476   5.647   9.580
13934WAT     H242045   8.402   5.779   9.518
13935WAT      O42046   5.380   5.264   7.292
13935WAT     H142047   5.289   5.237   7.323
13935WAT     H242048   5.449   5.210   7.340
13936WAT      O42049   3.047   2.956   6.113
13936WAT     H142050   3.077   3.023   6.181
13936WAT     H242051   3.098   2.871   6.124
13937WAT      O42052   7.518   5.821   2.849
13937WAT     H142053   7.606   5.803   2.806
13937WAT     H242054   7.497   5.919   2.841
13938WAT      O42055   9.395   5.083   1.578
13938WAT     H142056   9.326   5.150   1.606
13938WAT     H242057   9.420   5.026   1.656
13939WAT      O42058   6.118   5.871   8.660
13939WAT     H142059   6.036   5.925   8.679
13939WAT     H242060   6.185   5.886   8.733
13940WAT      O42061   7.730   7.801   5.192
13940WAT     H142062   7.671   7.787   5.112
13940WAT     H242063   7.808   7.858   5.166
13941WAT      O42064   0.725   3.134   1.721
13941WAT     H142065   0.691   3.154   1.813
13941WAT     H242066   0.718   3.217   1.664
13942WAT      O42067   1.895   3.380   4.168
13942WAT     H142068   1.820   3.441   4.142
13942WAT     H242069   1.863   3.286   4.166
13943WAT      O42070   6.021   3.786   9.429
13943WAT     H142071   6.004   3.884   9.436
13943WAT     H242072   5.970   3.738   9.500
13944WAT      O42073   4.986   9.128   3.845
13944WAT     H142074   4.905   9.078   3.874
13944WAT     H242075   4.959   9.217   3.807
13945WAT      O42076   4.449   5.886   9.276
13945WAT     H142077   4.508   5.943   9.332
13945WAT     H242078   4.353   5.907   9.296
13946WAT      O42079   1.531   7.768   5.047
13946WAT     H142080   1.557   7.859   5.079
13946WAT     H242081   1.503   7.772   4.951
13947WAT      O42082   2.762   0.461   7.256
13947WAT     H142083   2.734   0.412   7.338
13947WAT     H242084   2.750   0.559   7.269
13948WAT      O42085   7.235   8.874   8.761
13948WAT     H142086   7.252   8.969   8.736
13948WAT     H242087   7.187   8.828   8.686
13949WAT      O42088   7.630   0.319   7.282
13949WAT     H142089   7.715   0.328   7.334
13949WAT     H242090   7.553   0.311   7.345
13950WAT      O42091   5.796   8.726   0.680
13950WAT     H142092   5.860   8.753   0.752
13950WAT     H242093   5.703   8.724   0.716
13951WAT      O42094   7.129   9.370   5.237
13951WAT     H142095   7.187   9.451   5.245
13951WAT     H242096   7.056   9.374   5.306
13952WAT      O42097   5.942   7.843   8.238
13952WAT     H142098   5.901   7.934   8.243
13952WAT     H242099   6.031   7.850   8.194
13953WAT      O42100   9.757   5.657   0.518
13953WAT     H142101   9.688   5.729   0.508
13953WAT     H242102   9.750   5.618   0.610
13954WAT      O42103   0.413   6.505   5.385
13954WAT     H142104   0.318   6.503   5.417
13954WAT     H242105   0.431   6.424   5.329
13955WAT      O42106   9.553   4.056   1.399
13955WAT     H142107   9.525   4.025   1.489
13955WAT     H242108   9.475   4.098   1.352
13956WAT      O42109   3.515   0.261   7.870
13956WAT     H142110   3.588   0.330   7.875
13956WAT     H242111   3.555   0.170   7.879
13957WAT      O42112   3.031   2.580   9.265
13957WAT     H142113   3.031   2.605   9.168
13957WAT     H242114   3.125   2.566   9.295
13958WAT      O42115   1.117   6.370   2.734
13958WAT     H142116   1.079   6.458   2.706
13958WAT     H242117   1.054   6.325   2.797
13959WAT      O42118   9.854   9.755   8.776
13959WAT     H142119   9.791   9.722   8.846
13959WAT     H242120   9.837   9.706   8.691
13960WAT      O42121   0.488   7.361   7.308
13960WAT     H142122   0.453   7.448   7.271
13960WAT     H242123   0.565   7.379   7.369
13961WAT      O42124   9.672   7.270   0.707
13961WAT     H142125   9.586   7.239   0.748
13961WAT     H242126   9.706   7.200   0.645
13962WAT      O42127   6.788   8.632   6.711
13962WAT     H142128   6.735   8.602   6.791
13962WAT     H242129   6.804   8.554   6.651
13963WAT      O42130   7.846   9.819   6.807
13963WAT     H142131   7.770   9.788   6.749
13963WAT     H242132   7.861   9.752   6.880
13964WAT      O42133   0.415   5.195   3.922
13964WAT     H142134   0.378   5.262   3.858
13964WAT     H242135   0.364   5.109   3.914
13965WAT      O42136   7.609   1.519   4.344
13965WAT     H142137   7.692   1.539   4.396
13965WAT     H242138   7.630   1.523   4.246
13966WAT      O42139   4.963   6.067   5.403
13966WAT     H142140   5.002   6.063   5.495
13966WAT     H242141   4.864   6.059   5.408
13967WAT      O42142   4.137   4.646   2.933
13967WAT     H142143   4.086   4.686   2.857
13967WAT     H242144   4.078   4.584   2.985
13968WAT      O42145   5.237   9.346   0.737
13968WAT     H142146   5.189   9.428   0.705
13968WAT     H242147   5.188   9.307   0.814
13969WAT      O42148   4.607   1.013   6.921
13969WAT     H142149   4.616   0.976   6.828
13969WAT     H242150   4.694   1.002   6.970
13970WAT      O42151   6.301   6.934   2.628
13970WAT     H142152   6.379   6.994   2.645
13970WAT     H242153   6.333   6.852   2.580
13971WAT      O42154   7.140   9.763   0.063
13971WAT     H142155   7.132   9.792  -0.033
13971WAT     H242156   7.052   9.730   0.095
13972WAT      O42157   5.663   2.407   2.905
13972WAT     H142158   5.654   2.505   2.919
13972WAT     H242159   5.729   2.370   2.970
13973WAT      O42160   3.390   1.002   8.668
13973WAT     H142161   3.290   0.995   8.659
13973WAT     H242162   3.413   1.026   8.762
13974WAT      O42163   2.557   2.963   9.637
13974WAT     H142164   2.537   2.983   9.733
13974WAT     H242165   2.484   3.000   9.579
13975WAT      O42166   2.820   4.853   8.830
13975WAT     H142167   2.850   4.815   8.743
13975WAT     H242168   2.720   4.857   8.831
13976WAT      O42169   6.630   9.204   7.229
13976WAT     H142170   6.654   9.272   7.160
13976WAT     H242171   6.699   9.205   7.302
13977WAT      O42172   2.098   6.853   2.147
13977WAT     H142173   2.193   6.870   2.173
13977WAT     H242174   2.052   6.802   2.220
13978WAT      O42175   6.041   3.835   6.421
13978WAT     H142176   5.975   3.794   6.485
13978WAT     H242177   6.132   3.797   6.438
13979WAT      O42178   5.764   0.517   8.457
13979WAT     H142179   5.687   0.553   8.509
13979WAT     H242180   5.821   0.460   8.517
13980WAT      O42181   9.540   0.725   0.841
13980WAT     H142182   9.608   0.704   0.911
13980WAT     H242183   9.451   0.686   0.868
13981WAT      O42184   5.033   9.034   7.725
13981WAT     H142185   4.948   8.981   7.733
13981WAT     H242186   5.035   9.081   7.637
13982WAT      O42187   0.889   3.433   7.036
13982WAT     H142188   0.941   3.478   7.109
13982WAT     H242189   0.852   3.502   6.975
13983WAT      O42190   8.108   5.949   6.383
13983WAT     H142191   8.196   5.992   6.361
13983WAT     H242192   8.114   5.906   6.473
13984WAT      O42193   2.464   8.338   8.433
13984WAT     H142194   2.505   8.318   8.521
13984WAT     H242195   2.502   8.278   8.363
13985WAT      O42196   0.701   9.111   2.894
13985WAT     H142197   0.739   9.192   2.938
13985WAT     H242198   0.621   9.079   2.945
13986WAT      O42199   3.696   0.018   7.890
13986WAT     H142200   3.792   0.046   7.885
13986WAT     H242201   3.690  -0.081   7.901
13987WAT      O42202   2.557   2.485   9.701
13987WAT     H142203   2.605   2.532   9.775
13987WAT     H242204   2.559   2.542   9.619
13988WAT      O42205   7.009   2.317   8.952
13988WAT     H142206   6.925   2.263   8.961
13988WAT     H242207   7.029   2.330   8.855
13989WAT      O42208   2.126   7.434   3.440
13989WAT     H142209   2.068   7.505   3.400
13989WAT     H242210   2.074   7.349   3.449
13990WAT      O42211   6.913   5.994   6.990
13990WAT     H142212   6.947   5.907   7.026
13990WAT     H242213   6.848   5.976   6.916
13991WAT      O42214   0.620   1.316   5.621
13991WAT     H142215   0.628   1.409   5.585
13991WAT     H242216   0.711   1.277   5.632
13992WAT      O42217   5.359   6.959   1.823
13992WAT     H142218   5.313   6.872   1.845
13992WAT     H242219   5.312   7.002   1.746
13993WAT      O42220   5.545   1.638   0.671
13993WAT     H142221   5.562   1.552   0.625
13993WAT     H242222   5.447   1.659   0.668
13994WAT      O42223   4.367   8.489   8.163
13994WAT     H142224   4.459   8.500   8.126
13994WAT     H242225   4.326   8.406   8.126
13995WAT      O42226   5.960   3.094   5.266
13995WAT     H142227   5.978   3.176   5.320
13995WAT     H242228   6.027   3.024   5.288
13996WAT      O42229   4.201   6.889   0.713
13996WAT     H142230   4.201   6.933   0.624
13996WAT     H242231   4.106   6.876   0.744
13997WAT      O42232   5.098   0.990   2.181
13997WAT     H142233   5.028   1.048   2.139
13997WAT     H242234   5.104   1.011   2.279
13998WAT      O42235   0.226   5.234   4.236
13998WAT     H142236   0.198   5.164   4.170
13998WAT     H242237   0.165   5.313   4.228
13999WAT      O42238   0.562   8.694   5.114
13999WAT     H142239   0.616   8.635   5.054
13999WAT     H242240   0.493   8.742   5.061
14000WAT      O42241   0.146   8.028   5.492
14000WAT     H142242   0.154   8.020   5.393
14000WAT     H242243   0.087   8.105   5.515
14001WAT      O42244   6.226   8.045   2.304
14001WAT     H142245   6.191   8.028   2.396
14001WAT     H242246   6.168   8.112   2.257
14002WAT      O42247   8.981   7.724   5.660
14002WAT     H142248   8.891   7.751   5.625
14002WAT     H242249   9.001   7.775   5.743
14003WAT      O42250   6.804   7.699   7.245
14003WAT     H142251   6.738   7.754   7.297
14003WAT     H242252   6.846   7.755   7.174
14004WAT      O42253   8.652   2.430   2.058
14004WAT     H142254   8.661   2.372   2.139
14004WAT     H242255   8.556   2.431   2.028
14005WAT      O42256   6.830   4.800   1.433
14005WAT     H142257   6.893   4.819   1.509
14005WAT     H242258   6.773   4.721   1.457
14006WAT      O42259   7.491   4.236   8.743
14006WAT     H142260   7.526   4.291   8.667
14006WAT     H242261   7.566   4.216   8.807
14007WAT      O42262   6.796   5.426   0.985
14007WAT     H142263   6.854   5.359   1.032
14007WAT     H242264   6.704   5.389   0.976
14008WAT      O42265   9.672   5.778   9.242
14008WAT     H142266   9.595   5.794   9.181
14008WAT     H242267   9.758   5.782   9.190
14009WAT      O42268   2.573   7.223   7.473
14009WAT     H142269   2.482   7.184   7.485
14009WAT     H242270   2.593   7.231   7.376
14010WAT      O42271   0.513   2.593   1.189
14010WAT     H142272   0.517   2.503   1.233
14010WAT     H242273   0.496   2.663   1.259
14011WAT      O42274   7.860   3.799   0.726
14011WAT     H142275   7.912   3.884   0.717
14011WAT     H242276   7.775   3.817   0.777
14012WAT      O42277   5.508   1.777   9.335
14012WAT     H142278   5.522   1.724   9.418
14012WAT     H242279   5.430   1.741   9.285
14013WAT      O42280   9.038   8.442   1.801
14013WAT     H142281   9.104   8.516   1.789
14013WAT     H242282   9.036   8.386   1.718
14014WAT      O42283   4.608   5.904   4.377
14014WAT     H142284   4.676   5.906   4.449
14014WAT     H242285   4.588   5.997   4.347
14015WAT      O42286   8.335   7.998   0.255
14015WAT     H142287   8.368   8.033   0.343
14015WAT     H242288   8.236   8.012   0.249
14016WAT      O42289   2.075   9.793   7.514
14016WAT     H142290   2.152   9.801   7.450
14016WAT     H242291   2.003   9.857   7.487
14017WAT      O42292   8.629   9.335   3.139
14017WAT     H142293   8.720   9.355   3.175
14017WAT     H242294   8.618   9.378   3.050
14018WAT      O42295   8.599   0.394   1.816
14018WAT     H142296   8.606   0.455   1.737
14018WAT     H242297   8.556   0.443   1.892
14019WAT      O42298   0.968   0.381   3.711
14019WAT     H142299   1.024   0.315   3.660
14019WAT     H242300   0.916   0.333   3.782
14020WAT      O42301   5.111   1.474   1.514
14020WAT     H142302   5.011   1.469   1.514
14020WAT     H242303   5.149   1.396   1.564
14021WAT      O42304   1.665   4.249   9.259
14021WAT     H142305   1.725   4.207   9.191
14021WAT     H242306   1.694   4.343   9.277
14022WAT      O42307   1.363   0.267   9.190
14022WAT     H142308   1.325   0.180   9.158
14022WAT     H242309   1.289   0.333   9.202
14023WAT      O42310   2.874   0.128   5.241
14023WAT     H142311   2.869   0.056   5.311
14023WAT     H242312   2.803   0.112   5.172
14024WAT      O42313   9.103   0.693   3.826
14024WAT     H142314   9.017   0.648   3.802
14024WAT     H242315   9.105   0.785   3.785
14025WAT      O42316   8.590   3.521   9.801
14025WAT     H142317   8.631   3.611   9.820
14025WAT     H242318   8.611   3.459   9.877
14026WAT      O42319   1.631   6.269   9.571
14026WAT     H142320   1.682   6.320   9.639
14026WAT     H242321   1.565   6.209   9.617
14027WAT      O42322   0.382   7.393   6.897
14027WAT     H142323   0.308   7.428   6.954
14027WAT     H242324   0.458   7.458   6.896
14028WAT      O42325   1.011   9.163   9.526
14028WAT     H142326   1.034   9.249   9.571
14028WAT     H242327   0.958   9.182   9.443
14029WAT      O42328   7.643   0.009   8.784
14029WAT     H142329   7.575   0.058   8.840
14029WAT     H242330   7.707   0.074   8.745
14030WAT      O42331   5.581   0.675   7.249
14030WAT     H142332   5.588   0.619   7.166
14030WAT     H242333   5.562   0.770   7.223
14031WAT      O42334   5.279   3.786   2.850
14031WAT     H142335   5.315   3.707   2.799
14031WAT     H242336   5.193   3.760   2.894
14032WAT      O42337   3.748   1.164   3.934
14032WAT     H142338   3.745   1.137   4.030
14032WAT     H242339   3.788   1.089   3.880
14033WAT      O42340   1.545   2.564   5.204
14033WAT     H142341   1.465   2.536   5.149
14033WAT     H242342   1.629   2.538   5.156
14034WAT      O42343   7.947   8.315   7.651
14034WAT     H142344   7.996   8.270   7.576
14034WAT     H242345   7.911   8.403   7.620
14035WAT      O42346   5.461   0.990   9.113
14035WAT     H142347   5.492   1.008   9.020
14035WAT     H242348   5.363   1.010   9.120
14036WAT      O42349   7.180   4.400   5.942
14036WAT     H142350   7.085   4.372   5.938
14036WAT     H242351   7.234   4.346   5.877
14037WAT      O42352   4.966   2.182   5.146
14037WAT     H142353   4.902   2.222   5.213
14037WAT     H242354   5.049   2.154   5.193
14038WAT      O42355   2.315   4.536   9.480
14038WAT     H142356   2.375   4.514   9.556
14038WAT     H242357   2.243   4.467   9.473
14039WAT      O42358   5.526   5.978   4.827
14039WAT     H142359   5.528   6.071   4.790
14039WAT     H242360   5.610   5.961   4.878
14040WAT      O42361   1.930   5.440   5.315
14040WAT     H142362   1.927   5.540   5.324
14040WAT     H242363   1.996   5.402   5.380
14041WAT      O42364   9.320   0.936   4.420
14041WAT     H142365   9.385   0.999   4.462
14041WAT     H242366   9.369   0.873   4.359
14042WAT      O42367   3.212   9.195   4.448
14042WAT     H142368   3.131   9.185   4.505
14042WAT     H242369   3.279   9.252   4.496
14043WAT      O42370   7.909   3.200   8.564
14043WAT     H142371   7.860   3.185   8.650
14043WAT     H242372   7.943   3.294   8.562
14044WAT      O42373   3.077   0.672   0.821
14044WAT     H142374   3.008   0.716   0.765
14044WAT     H242375   3.166   0.713   0.804
14045WAT      O42376   9.830   9.516   4.333
14045WAT     H142377   9.847   9.614   4.322
14045WAT     H242378   9.834   9.492   4.430
14046WAT      O42379   7.614   8.920   2.983
14046WAT     H142380   7.698   8.959   3.022
14046WAT     H242381   7.580   8.980   2.911
14047WAT      O42382   4.930   4.364   8.410
14047WAT     H142383   4.943   4.272   8.374
14047WAT     H242384   4.859   4.362   8.481
14048WAT      O42385   8.858   9.513   2.281
14048WAT     H142386   8.938   9.466   2.317
14048WAT     H242387   8.855   9.607   2.317
14049WAT      O42388   7.266   1.468   5.938
14049WAT     H142389   7.305   1.388   5.894
14049WAT     H242390   7.318   1.550   5.912
14050WAT      O42391   3.059   4.409   9.427
14050WAT     H142392   3.055   4.434   9.330
14050WAT     H242393   3.107   4.480   9.478
14051WAT      O42394   4.062   4.997   1.122
14051WAT     H142395   3.984   5.047   1.085
14051WAT     H242396   4.108   4.948   1.047
14052WAT      O42397   7.793   3.345   1.367
14052WAT     H142398   7.884   3.313   1.339
14052WAT     H242399   7.737   3.267   1.395
14053WAT      O42400   5.745   8.028   1.586
14053WAT     H142401   5.713   7.969   1.511
14053WAT     H242402   5.831   8.071   1.560
14054WAT      O42403   8.601   9.224   3.657
14054WAT     H142404   8.674   9.291   3.654
14054WAT     H242405   8.580   9.200   3.752
14055WAT      O42406   2.128   2.443   5.823
14055WAT     H142407   2.075   2.464   5.905
14055WAT     H242408   2.104   2.351   5.791
14056WAT      O42409   5.972   8.780   2.543
14056WAT     H142410   6.059   8.823   2.517
14056WAT     H242411   5.952   8.800   2.639
14057WAT      O42412   4.664   7.240   3.375
14057WAT     H142413   4.663   7.329   3.329
14057WAT     H242414   4.581   7.231   3.430
14058WAT      O42415   4.837   9.138   9.652
14058WAT     H142416   4.828   9.039   9.656
14058WAT     H242417   4.808   9.170   9.562
14059WAT      O42418   7.940   8.036   1.903
14059WAT     H142419   7.992   8.116   1.873
14059WAT     H242420   7.870   8.065   1.969
14060WAT      O42421   8.191   8.785   6.305
14060WAT     H142422   8.115   8.849   6.313
14060WAT     H242423   8.276   8.835   6.289
14061WAT      O42424   4.236   1.690   1.386
14061WAT     H142425   4.315   1.747   1.360
14061WAT     H242426   4.247   1.659   1.480
14062WAT      O42427   2.897   7.741   2.831
14062WAT     H142428   2.899   7.724   2.930
14062WAT     H242429   2.865   7.658   2.784
14063WAT      O42430   9.702   5.392   0.357
14063WAT     H142431   9.796   5.424   0.344
14063WAT     H242432   9.640   5.447   0.301
14064WAT      O42433   4.762   2.266   1.018
14064WAT     H142434   4.744   2.206   0.940
14064WAT     H242435   4.854   2.247   1.053
14065WAT      O42436   1.754   6.856   1.460
14065WAT     H142437   1.803   6.769   1.467
14065WAT     H242438   1.795   6.923   1.522
14066WAT      O42439   4.230   0.821   7.068
14066WAT     H142440   4.191   0.736   7.103
14066WAT     H242441   4.330   0.815   7.069
14067WAT      O42442   2.342   3.139   4.236
14067WAT     H142443   2.264   3.175   4.186
14067WAT     H242444   2.344   3.178   4.327
14068WAT      O42445   7.878   5.615   7.321
14068WAT     H142446   7.843   5.706   7.300
14068WAT     H242447   7.926   5.617   7.409
14069WAT      O42448   8.306   4.912   2.626
14069WAT     H142449   8.349   4.899   2.715
14069WAT     H242450   8.269   4.825   2.593
14070WAT      O42451   7.234   7.379   6.459
14070WAT     H142452   7.200   7.318   6.388
14070WAT     H242453   7.311   7.433   6.423
14071WAT      O42454   6.832   0.707   2.487
14071WAT     H142455   6.739   0.739   2.471
14071WAT     H242456   6.865   0.659   2.406
14072WAT      O42457   1.610   2.476   6.573
14072WAT     H142458   1.707   2.489   6.591
14072WAT     H242459   1.584   2.525   6.490
14073WAT      O42460   9.263   0.381   4.563
14073WAT     H142461   9.278   0.332   4.649
14073WAT     H242462   9.330   0.455   4.555
14074WAT      O42463   6.398   0.577   0.351
14074WAT     H142464   6.344   0.495   0.329
14074WAT     H242465   6.461   0.556   0.426
14075WAT      O42466   7.076   6.572   2.720
14075WAT     H142467   7.024   6.486   2.720
14075WAT     H242468   7.075   6.612   2.811
14076WAT      O42469   2.282   0.648   0.600
14076WAT     H142470   2.244   0.703   0.675
14076WAT     H242471   2.313   0.560   0.636
14077WAT      O42472   7.602   2.773   8.046
14077WAT     H142473   7.673   2.708   8.072
14077WAT     H242474   7.518   2.753   8.095
14078WAT      O42475   2.498   1.443   6.649
14078WAT     H142476   2.536   1.486   6.730
14078WAT     H242477   2.447   1.361   6.675
14079WAT      O42478   8.216   8.839   8.254
14079WAT     H142479   8.237   8.849   8.157
14079WAT     H242480   8.124   8.873   8.272
14080WAT      O42481   1.501   3.101   3.375
14080WAT     H142482   1.420   3.093   3.433
14080WAT     H242483   1.486   3.051   3.290
14081WAT      O42484   8.342   2.722   0.772
14081WAT     H142485   8.341   2.622   0.766
14081WAT     H242486   8.434   2.753   0.794
14082WAT      O42487   8.154   2.179   6.114
14082WAT     H142488   8.204   2.254   6.071
14082WAT     H242489   8.204   2.094   6.103
14083WAT      O42490   2.791   4.797   8.086
14083WAT     H142491   2.723   4.869   8.086
14083WAT     H242492   2.755   4.716   8.039
14084WAT      O42493   3.468   0.622   1.053
14084WAT     H142494   3.465   0.722   1.042
14084WAT     H242495   3.375   0.587   1.059
14085WAT      O42496   0.355   7.853   0.224
14085WAT     H142497   0.370   7.896   0.313
14085WAT     H242498   0.316   7.919   0.160
14086WAT      O42499   4.604   1.708   9.473
14086WAT     H142500   4.623   1.806   9.482
14086WAT     H242501   4.548   1.692   9.392
14087WAT      O42502   9.526   3.076   5.009
14087WAT     H142503   9.607   3.026   4.976
14087WAT     H242504   9.472   3.107   4.931
14088WAT      O42505   4.891   5.040   7.758
14088WAT     H142506   4.932   4.997   7.838
14088WAT     H242507   4.791   5.042   7.768
14089WAT      O42508   4.779   7.617   7.648
14089WAT     H142509   4.837   7.586   7.572
14089WAT     H242510   4.690   7.646   7.611
14090WAT      O42511   1.257   6.089   8.376
14090WAT     H142512   1.174   6.118   8.329
14090WAT     H242513   1.337   6.114   8.321
14091WAT      O42514   8.565   0.875   4.972
14091WAT     H142515   8.479   0.825   4.983
14091WAT     H242516   8.636   0.832   5.028
14092WAT      O42517   8.634   3.416   6.747
14092WAT     H142518   8.546   3.375   6.723
14092WAT     H242519   8.708   3.356   6.717
14093WAT      O42520   3.469   3.676   3.189
14093WAT     H142521   3.400   3.697   3.120
14093WAT     H242522   3.472   3.578   3.205
14094WAT      O42523   3.132   0.536   9.364
14094WAT     H142524   3.227   0.508   9.349
14094WAT     H242525   3.124   0.577   9.454
14095WAT      O42526   8.059   7.396   9.500
14095WAT     H142527   8.016   7.449   9.572
14095WAT     H242528   7.991   7.370   9.431
14096WAT      O42529   8.518   0.448   5.483
14096WAT     H142530   8.577   0.461   5.563
14096WAT     H242531   8.561   0.490   5.403
14097WAT      O42532   9.142   4.603   6.040
14097WAT     H142533   9.050   4.619   6.075
14097WAT     H242534   9.188   4.536   6.098
14098WAT      O42535   4.544   2.751   5.364
14098WAT     H142536   4.537   2.816   5.440
14098WAT     H242537   4.617   2.781   5.302
14099WAT      O42538   2.260   0.262   0.941
14099WAT     H142539   2.265   0.202   1.020
14099WAT     H242540   2.225   0.351   0.969
14100WAT      O42541   9.727   6.549   9.285
14100WAT     H142542   9.768   6.482   9.346
14100WAT     H242543   9.696   6.628   9.337
14101WAT      O42544   5.603   8.730   4.367
14101WAT     H142545   5.573   8.726   4.272
14101WAT     H242546   5.587   8.822   4.402
14102WAT      O42547   2.182   7.633   4.305
14102WAT     H142548   2.201   7.552   4.361
14102WAT     H242549   2.241   7.633   4.225
14103WAT      O42550   6.617   0.020   8.408
14103WAT     H142551   6.533   0.065   8.378
14103WAT     H242552   6.595  -0.060   8.463
14104WAT      O42553   4.436   7.655   2.724
14104WAT     H142554   4.370   7.590   2.688
14104WAT     H242555   4.513   7.665   2.660
14105WAT      O42556   1.094   5.153   0.181
14105WAT     H142557   1.138   5.065   0.161
14105WAT     H242558   1.048   5.148   0.269
14106WAT      O42559   4.249   3.929   1.897
14106WAT     H142560   4.304   3.915   1.815
14106WAT     H242561   4.299   3.987   1.961
14107WAT      O42562   3.995   2.335   9.365
14107WAT     H142563   3.897   2.353   9.372
14107WAT     H242564   4.034   2.392   9.293
14108WAT      O42565   5.877   2.628   6.677
14108WAT     H142566   5.913   2.535   6.677
14108WAT     H242567   5.874   2.664   6.584
14109WAT      O42568   3.788   7.390   4.423
14109WAT     H142569   3.741   7.301   4.421
14109WAT     H242570   3.784   7.427   4.516
14110WAT      O42571   2.880   0.823   1.147
14110WAT     H142572   2.942   0.745   1.141
14110WAT     H242573   2.815   0.820   1.071
14111WAT      O42574   1.338   5.277   2.351
14111WAT     H142575   1.414   5.249   2.410
14111WAT     H242576   1.332   5.215   2.273
14112WAT      O42577   1.064   1.205   0.363
14112WAT     H142578   1.118   1.123   0.383
14112WAT     H242579   0.989   1.181   0.301
14113WAT      O42580   3.307   2.526   4.752
14113WAT     H142581   3.379   2.517   4.820
14113WAT     H242582   3.278   2.435   4.723
14114WAT      O42583   6.848   5.031   7.312
14114WAT     H142584   6.770   4.970   7.325
14114WAT     H242585   6.892   5.013   7.224
14115WAT      O42586   2.871   8.215   1.754
14115WAT     H142587   2.839   8.239   1.846
14115WAT     H242588   2.798   8.233   1.688
14116WAT      O42589   0.788   7.363   1.897
14116WAT     H142590   0.840   7.412   1.827
14116WAT     H242591   0.702   7.330   1.858
14117WAT      O42592   9.830   6.843   7.261
14117WAT     H142593   9.795   6.785   7.187
14117WAT     H242594   9.897   6.907   7.224
14118WAT      O42595   8.783   4.822   1.603
14118WAT     H142596   8.742   4.733   1.623
14118WAT     H242597   8.711   4.892   1.600
14119WAT      O42598   8.600   3.388   3.914
14119WAT     H142599   8.517   3.333   3.927
14119WAT     H242600   8.637   3.371   3.823
14120WAT      O42601   2.989   9.779   8.577
14120WAT     H142602   2.929   9.853   8.610
14120WAT     H242603   3.017   9.722   8.654
14121WAT      O42604   8.407   5.389   7.519
14121WAT     H142605   8.420   5.414   7.615
14121WAT     H242606   8.331   5.442   7.481
14122WAT      O42607   6.111   1.446   3.808
14122WAT     H142608   6.123   1.347   3.806
14122WAT     H242609   6.201   1.490   3.809
14123WAT      O42610   9.555   5.168   4.654
14123WAT     H142611   9.556   5.069   4.648
14123WAT     H242612   9.640   5.205   4.617
14124WAT      O42613   7.383   4.632   5.182
14124WAT     H142614   7.478   4.647   5.206
14124WAT     H242615   7.355   4.541   5.210
14125WAT      O42616   6.910   4.032   7.155
14125WAT     H142617   7.004   4.006   7.179
14125WAT     H242618   6.846   3.968   7.198
14126WAT      O42619   1.052   1.702   6.324
14126WAT     H142620   1.062   1.783   6.266
14126WAT     H242621   1.036   1.622   6.266
14127WAT      O42622   2.586   6.973   5.203
14127WAT     H142623   2.559   6.902   5.267
14127WAT     H242624   2.617   7.054   5.253
14128WAT      O42625   1.362   3.301   2.927
14128WAT     H142626   1.339   3.310   2.830
14128WAT     H242627   1.344   3.387   2.974
14129WAT      O42628   0.355   1.187   6.046
14129WAT     H142629   0.324   1.282   6.039
14129WAT     H242630   0.419   1.167   5.972
14130WAT      O42631   0.333   2.641   7.842
14130WAT     H142632   0.293   2.686   7.762
14130WAT     H242633   0.433   2.639   7.832
14131WAT      O42634   1.608   3.526   5.935
14131WAT     H142635   1.594   3.465   5.857
14131WAT     H242636   1.691   3.499   5.984
14132WAT      O42637   1.889   4.391   2.111
14132WAT     H142638   1.975   4.414   2.156
14132WAT     H242639   1.818   4.455   2.140
14133WAT      O42640   0.401   5.935   6.110
14133WAT     H142641   0.366   5.976   6.194
14133WAT     H242642   0.390   5.835   6.116
14134WAT      O42643   1.722   2.353   8.176
14134WAT     H142644   1.677   2.379   8.091
14134WAT     H242645   1.685   2.267   8.210
14135WAT      O42646   1.002   6.356   0.257
14135WAT     H142647   1.014   6.425   0.186
14135WAT     H242648   1.016   6.398   0.347
14136WAT      O42649   6.887   0.953   7.942
14136WAT     H142650   6.830   0.872   7.931
14136WAT     H242651   6.977   0.926   7.976
14137WAT      O42652   2.349   2.177   8.315
14137WAT     H142653   2.256   2.194   8.347
14137WAT     H242654   2.407   2.154   8.393
14138WAT      O42655   3.233   7.510   9.728
14138WAT     H142656   3.183   7.433   9.769
14138WAT     H242657   3.275   7.564   9.801
14139WAT      O42658   3.559   0.813   8.186
14139WAT     H142659   3.594   0.787   8.096
14139WAT     H242660   3.594   0.750   8.255
14140WAT      O42661   4.402   0.608   8.896
14140WAT     H142662   4.388   0.530   8.835
14140WAT     H242663   4.315   0.633   8.939
14141WAT      O42664   6.041   0.942   3.728
14141WAT     H142665   6.080   1.026   3.767
14141WAT     H242666   5.943   0.953   3.716
14142WAT      O42667   0.900   0.114   4.849
14142WAT     H142668   0.982   0.059   4.835
14142WAT     H242669   0.913   0.205   4.810
14143WAT      O42670   2.588   6.185   0.193
14143WAT     H142671   2.582   6.219   0.099
14143WAT     H242672   2.596   6.262   0.256
14144WAT      O42673   9.146   4.915   4.236
14144WAT     H142674   9.101   4.830   4.209
14144WAT     H242675   9.231   4.926   4.184
14145WAT      O42676   0.004   7.522   7.299
14145WAT     H142677   0.027   7.467   7.379
14145WAT     H242678   0.027   7.618   7.316
14146WAT      O42679   0.163   7.971   1.543
14146WAT     H142680   0.171   7.951   1.640
14146WAT     H242681   0.255   7.987   1.505
14147WAT      O42682   0.821   5.565   6.022
14147WAT     H142683   0.765   5.627   5.968
14147WAT     H242684   0.863   5.496   5.963
14148WAT      O42685   2.467   5.462   4.525
14148WAT     H142686   2.373   5.433   4.541
14148WAT     H242687   2.507   5.498   4.610
14149WAT      O42688   3.390   1.539   0.761
14149WAT     H142689   3.296   1.573   0.767
14149WAT     H242690   3.412   1.486   0.843
14150WAT      O42691   1.049   6.881   0.636
14150WAT     H142692   1.132   6.914   0.591
14150WAT     H242693   0.990   6.837   0.569
14151WAT      O42694   3.128   6.510   1.243
14151WAT     H142695   3.148   6.416   1.217
14151WAT     H242696   3.202   6.546   1.300
14152WAT      O42697   6.326   5.597   5.938
14152WAT     H142698   6.253   5.555   5.883
14152WAT     H242699   6.381   5.526   5.980
14153WAT      O42700   6.906   7.830   2.346
14153WAT     H142701   6.966   7.894   2.297
14153WAT     H242702   6.949   7.740   2.349
14154WAT      O42703   0.554   7.335   0.541
14154WAT     H142704   0.567   7.413   0.603
14154WAT     H242705   0.598   7.254   0.579
14155WAT      O42706   1.238   5.737   1.798
14155WAT     H142707   1.319   5.761   1.852
14155WAT     H242708   1.235   5.638   1.786
14156WAT      O42709   7.978   7.863   8.673
14156WAT     H142710   8.004   7.940   8.732
14156WAT     H242711   8.060   7.819   8.637
14157WAT      O42712   9.431   0.539   1.550
14157WAT     H142713   9.487   0.617   1.519
14157WAT     H242714   9.437   0.465   1.483
14158WAT      O42715   1.723   8.553   0.614
14158WAT     H142716   1.786   8.582   0.685
14158WAT     H242717   1.629   8.562   0.646
14159WAT      O42718   8.943   1.891   7.978
14159WAT     H142719   9.011   1.895   8.051
14159WAT     H242720   8.875   1.822   8.000
14160WAT      O42721   1.753   4.968   0.654
14160WAT     H142722   1.774   4.899   0.723
14160WAT     H242723   1.686   5.033   0.692
14161WAT      O42724   2.933   0.698   5.783
14161WAT     H142725   2.934   0.701   5.883
14161WAT     H242726   2.960   0.607   5.753
14162WAT      O42727   5.629   9.300   8.019
14162WAT     H142728   5.566   9.378   8.018
14162WAT     H242729   5.701   9.313   7.951
14163WAT      O42730   1.571   8.866   4.598
14163WAT     H142731   1.644   8.928   4.568
14163WAT     H242732   1.573   8.783   4.542
14164WAT      O42733   7.079   2.689   3.433
14164WAT     H142734   7.122   2.624   3.496
14164WAT     H242735   7.098   2.782   3.463
14165WAT      O42736   5.208   5.744   4.149
14165WAT     H142737   5.233   5.752   4.053
14165WAT     H242738   5.135   5.809   4.170
14166WAT      O42739   5.549   8.922   0.881
14166WAT     H142740   5.627   8.882   0.928
14166WAT     H242741   5.492   8.849   0.842
14167WAT      O42742   1.560   8.575   3.497
14167WAT     H142743   1.614   8.585   3.413
14167WAT     H242744   1.463   8.579   3.475
14168WAT      O42745   4.022   3.923   8.304
14168WAT     H142746   4.106   3.920   8.357
14168WAT     H242747   3.949   3.875   8.354
14169WAT      O42748   4.047   0.695   4.159
14169WAT     H142749   4.071   0.638   4.081
14169WAT     H242750   4.085   0.787   4.147
14170WAT      O42751   9.577   2.420   6.400
14170WAT     H142752   9.534   2.339   6.360
14170WAT     H242753   9.675   2.419   6.383
14171WAT      O42754   7.347   1.761   5.471
14171WAT     H142755   7.287   1.686   5.500
14171WAT     H242756   7.338   1.837   5.535
14172WAT      O42757   1.266   3.092   7.482
14172WAT     H142758   1.195   3.023   7.499
14172WAT     H242759   1.286   3.140   7.567
14173WAT      O42760   5.342   2.229   5.483
14173WAT     H142761   5.397   2.146   5.487
14173WAT     H242762   5.289   2.230   5.398
14174WAT      O42763   3.600   1.815   7.602
14174WAT     H142764   3.600   1.898   7.658
14174WAT     H242765   3.531   1.752   7.636
14175WAT      O42766   1.796   1.021   5.685
14175WAT     H142767   1.746   0.951   5.635
14175WAT     H242768   1.773   1.016   5.782
14176WAT      O42769   3.282   2.897   9.684
14176WAT     H142770   3.296   2.847   9.599
14176WAT     H242771   3.254   2.833   9.756
14177WAT      O42772   3.146   7.114   6.808
14177WAT     H142773   3.111   7.208   6.808
14177WAT     H242774   3.245   7.116   6.821
14178WAT      O42775   6.685   3.976   3.621
14178WAT     H142776   6.656   3.887   3.655
14178WAT     H242777   6.738   4.024   3.691
14179WAT      O42778   4.038   0.808   9.530
14179WAT     H142779   3.978   0.883   9.558
14179WAT     H242780   4.095   0.781   9.607
14180WAT      O42781   4.084   5.014   5.645
14180WAT     H142782   3.998   4.964   5.638
14180WAT     H242783   4.089   5.082   5.571
14181WAT      O42784   4.014   2.269   1.699
14181WAT     H142785   4.061   2.257   1.787
14181WAT     H242786   3.921   2.300   1.715
14182WAT      O42787   3.545   5.303   6.349
14182WAT     H142788   3.609   5.355   6.292
14182WAT     H242789   3.595   5.233   6.401
14183WAT      O42790   3.665   7.674   2.962
14183WAT     H142791   3.642   7.596   2.903
14183WAT     H242792   3.708   7.746   2.908
14184WAT      O42793   1.808   0.825   3.132
14184WAT     H142794   1.841   0.833   3.227
14184WAT     H242795   1.833   0.736   3.096
14185WAT      O42796   7.410   5.697   4.673
14185WAT     H142797   7.327   5.710   4.619
14185WAT     H242798   7.398   5.738   4.763
14186WAT      O42799   5.436   4.711   9.179
14186WAT     H142800   5.443   4.810   9.168
14186WAT     H242801   5.514   4.678   9.232
14187WAT      O42802   2.220   4.662   0.607
14187WAT     H142803   2.265   4.582   0.646
14187WAT     H242804   2.146   4.632   0.546
14188WAT      O42805   5.043   3.415   6.115
14188WAT     H142806   5.061   3.401   6.212
14188WAT     H242807   4.985   3.341   6.081
14189WAT      O42808   8.189   0.804   6.164
14189WAT     H142809   8.185   0.881   6.100
14189WAT     H242810   8.117   0.814   6.232
14190WAT      O42811   1.431   9.598   0.944
14190WAT     H142812   1.479   9.534   1.004
14190WAT     H242813   1.473   9.596   0.853
14191WAT      O42814   5.008   8.612   5.624
14191WAT     H142815   4.930   8.645   5.677
14191WAT     H242816   4.976   8.577   5.535
14192WAT      O42817   4.546   8.827   8.649
14192WAT     H142818   4.473   8.779   8.600
14192WAT     H242819   4.627   8.767   8.655
14193WAT      O42820   3.111   0.759   8.773
14193WAT     H142821   3.127   0.770   8.674
14193WAT     H242822   3.047   0.684   8.788
14194WAT      O42823   9.601   3.806   0.741
14194WAT     H142824   9.579   3.729   0.681
14194WAT     H242825   9.652   3.875   0.690
14195WAT      O42826   4.053   2.218   6.981
14195WAT     H142827   4.103   2.302   6.959
14195WAT     H242828   4.089   2.180   7.066
14196WAT      O42829   3.648   3.415   2.344
14196WAT     H142830   3.701   3.365   2.275
14196WAT     H242831   3.657   3.370   2.433
14197WAT      O42832   2.169   0.122   3.170
14197WAT     H142833   2.259   0.135   3.213
14197WAT     H242834   2.157   0.188   3.096
14198WAT      O42835   0.342   2.379   6.348
14198WAT     H142836   0.351   2.301   6.285
14198WAT     H242837   0.315   2.346   6.438
14199WAT      O42838   8.638   0.589   1.630
14199WAT     H142839   8.550   0.637   1.629
14199WAT     H242840   8.711   0.653   1.656
14200WAT      O42841   4.380   4.815   7.618
14200WAT     H142842   4.371   4.774   7.709
14200WAT     H242843   4.340   4.906   7.618
14201WAT      O42844   7.250   8.549   3.441
14201WAT     H142845   7.206   8.467   3.477
14201WAT     H242846   7.180   8.614   3.411
14202WAT      O42847   9.232   4.119   7.939
14202WAT     H142848   9.236   4.209   7.982
14202WAT     H242849   9.277   4.052   7.998
14203WAT      O42850   6.744   7.281   2.739
14203WAT     H142851   6.700   7.198   2.704
14203WAT     H242852   6.832   7.293   2.694
14204WAT      O42853   1.769   5.754   3.369
14204WAT     H142854   1.690   5.778   3.312
14204WAT     H242855   1.848   5.737   3.310
14205WAT      O42856   4.254   3.335   0.401
14205WAT     H142857   4.225   3.285   0.483
14205WAT     H242858   4.316   3.277   0.348
14206WAT      O42859   6.122   2.910   8.369
14206WAT     H142860   6.217   2.885   8.390
14206WAT     H242861   6.077   2.835   8.321
14207WAT      O42862   5.825   7.301   7.558
14207WAT     H142863   5.842   7.371   7.627
14207WAT     H242864   5.908   7.247   7.544
14208WAT      O42865   5.285   7.679   4.534
14208WAT     H142866   5.325   7.741   4.601
14208WAT     H242867   5.299   7.717   4.442
14209WAT      O42868   1.587   0.231   4.748
14209WAT     H142869   1.550   0.171   4.677
14209WAT     H242870   1.679   0.260   4.723
14210WAT      O42871   2.431   6.928   0.712
14210WAT     H142872   2.402   6.960   0.802
14210WAT     H242873   2.352   6.915   0.653
14211WAT      O42874   9.881   1.615   8.794
14211WAT     H142875   9.947   1.687   8.813
14211WAT     H242876   9.881   1.594   8.696
14212WAT      O42877   1.004   6.633   5.265
14212WAT     H142878   1.076   6.654   5.200
14212WAT     H242879   0.993   6.709   5.329
14213WAT      O42880   5.679   3.176   4.185
14213WAT     H142881   5.660   3.085   4.148
14213WAT     H242882   5.594   3.228   4.191
14214WAT      O42883   1.524   2.057   3.309
14214WAT     H142884   1.554   2.152   3.311
14214WAT     H242885   1.455   2.045   3.237
14215WAT      O42886   4.119   1.803   3.167
14215WAT     H142887   4.052   1.841   3.230
14215WAT     H242888   4.074   1.740   3.103
14216WAT      O42889   6.197   0.880   8.222
14216WAT     H142890   6.262   0.952   8.247
14216WAT     H242891   6.181   0.884   8.123
14217WAT      O42892   4.821   4.266   9.222
14217WAT     H142893   4.742   4.327   9.234
14217WAT     H242894   4.898   4.302   9.276
14218WAT      O42895   6.487   1.400   6.267
14218WAT     H142896   6.410   1.430   6.212
14218WAT     H242897   6.509   1.470   6.335
14219WAT      O42898   1.109   3.885   9.689
14219WAT     H142899   1.028   3.842   9.649
14219WAT     H242900   1.116   3.862   9.786
14220WAT      O42901   7.675   8.250   0.744
14220WAT     H142902   7.605   8.319   0.760
14220WAT     H242903   7.647   8.193   0.667
14221WAT      O42904   7.167   0.119   7.476
14221WAT     H142905   7.182   0.020   7.478
14221WAT     H242906   7.119   0.144   7.392
14222WAT      O42907   5.165   7.248   1.900
14222WAT     H142908   5.071   7.254   1.935
14222WAT     H242909   5.190   7.152   1.891
14223WAT      O42910   1.749   0.550   4.953
14223WAT     H142911   1.726   0.547   4.856
14223WAT     H242912   1.783   0.641   4.977
14224WAT      O42913   4.210   6.340   9.439
14224WAT     H142914   4.135   6.287   9.480
14224WAT     H242915   4.207   6.434   9.473
14225WAT      O42916   4.762   2.632   9.420
14225WAT     H142917   4.706   2.551   9.402
14225WAT     H242918   4.842   2.605   9.475
14226WAT      O42919   9.209   8.373   8.225
14226WAT     H142920   9.191   8.276   8.206
14226WAT     H242921   9.304   8.394   8.201
14227WAT      O42922   5.055   4.664   1.386
14227WAT     H142923   5.065   4.612   1.471
14227WAT     H242924   4.961   4.655   1.353
14228WAT      O42925   1.949   5.259   4.177
14228WAT     H142926   1.893   5.320   4.122
14228WAT     H242927   1.892   5.187   4.216
14229WAT      O42928   3.482   4.326   7.269
14229WAT     H142929   3.444   4.291   7.184
14229WAT     H242930   3.489   4.426   7.263
14230WAT      O42931   0.596   0.236   7.268
14230WAT     H142932   0.567   0.255   7.362
14230WAT     H242933   0.525   0.266   7.205
14231WAT      O42934   9.127   6.193   2.795
14231WAT     H142935   9.046   6.226   2.747
14231WAT     H242936   9.210   6.230   2.752
14232WAT      O42937   5.645   5.222   0.598
14232WAT     H142938   5.618   5.209   0.694
14232WAT     H242939   5.726   5.281   0.594
14233WAT      O42940   5.853   0.064   0.975
14233WAT     H142941   5.948   0.079   0.949
14233WAT     H242942   5.838  -0.034   0.991
14234WAT      O42943   5.018   2.269   0.265
14234WAT     H142944   5.039   2.185   0.213
14234WAT     H242945   4.956   2.326   0.211
14235WAT      O42946   2.245   4.336   1.910
14235WAT     H142947   2.217   4.240   1.914
14235WAT     H242948   2.284   4.363   1.998
14236WAT      O42949   6.647   0.013   7.868
14236WAT     H142950   6.669  -0.027   7.957
14236WAT     H242951   6.715   0.082   7.845
14237WAT      O42952   1.849   9.807   3.587
14237WAT     H142953   1.848   9.837   3.682
14237WAT     H242954   1.922   9.855   3.537
14238WAT      O42955   2.587   9.504   2.402
14238WAT     H142956   2.580   9.440   2.326
14238WAT     H242957   2.622   9.592   2.369
14239WAT      O42958   8.009   2.475   8.130
14239WAT     H142959   7.969   2.388   8.101
14239WAT     H242960   8.066   2.512   8.056
14240WAT      O42961   4.699   2.819   1.481
14240WAT     H142962   4.779   2.878   1.470
14240WAT     H242963   4.665   2.792   1.392
14241WAT      O42964   4.275   6.808   1.616
14241WAT     H142965   4.282   6.856   1.528
14241WAT     H242966   4.337   6.729   1.615
14242WAT      O42967   7.860   9.049   8.946
14242WAT     H142968   7.890   9.142   8.929
14242WAT     H242969   7.891   9.020   9.036
14243WAT      O42970   0.559   0.354   3.860
14243WAT     H142971   0.528   0.412   3.784
14243WAT     H242972   0.485   0.292   3.886
14244WAT      O42973   7.960   8.026   9.585
14244WAT     H142974   7.996   8.082   9.660
14244WAT     H242975   7.922   7.941   9.622
14245WAT      O42976   6.956   6.642   5.416
14245WAT     H142977   6.935   6.721   5.473
14245WAT     H242978   7.039   6.598   5.451
14246WAT      O42979   1.360   1.734   5.013
14246WAT     H142980   1.454   1.731   4.980
14246WAT     H242981   1.336   1.828   5.038
14247WAT      O42982   8.391   1.565   3.740
14247WAT     H142983   8.304   1.516   3.747
14247WAT     H242984   8.463   1.500   3.712
14248WAT      O42985   3.319   8.580   4.864
14248WAT     H142986   3.347   8.557   4.957
14248WAT     H242987   3.349   8.673   4.841
14249WAT      O42988   2.645   6.301   9.070
14249WAT     H142989   2.636   6.332   9.165
14249WAT     H242990   2.597   6.364   9.009
14250WAT      O42991   6.892   9.480   5.627
14250WAT     H142992   6.831   9.413   5.670
14250WAT     H242993   6.872   9.571   5.661
14251WAT      O42994   0.610   4.271   0.625
14251WAT     H142995   0.691   4.215   0.608
14251WAT     H242996   0.532   4.232   0.575
14252WAT      O42997   6.122   0.724   9.326
14252WAT     H142998   6.184   0.683   9.393
14252WAT     H242999   6.041   0.666   9.316
14253WAT      O43000   0.429   1.260   8.665
14253WAT     H143001   0.358   1.307   8.612
14253WAT     H243002   0.388   1.214   8.743
14254WAT      O43003   5.077   8.454   9.807
14254WAT     H143004   5.159   8.475   9.860
14254WAT     H243005   5.058   8.356   9.813
14255WAT      O43006   3.573   1.792   5.628
14255WAT     H143007   3.552   1.695   5.631
14255WAT     H243008   3.488   1.845   5.635
14256WAT      O43009   9.268   0.592   6.235
14256WAT     H143010   9.267   0.630   6.143
14256WAT     H243011   9.310   0.657   6.298
14257WAT      O43012   0.916   4.451   0.792
14257WAT     H143013   0.924   4.547   0.817
14257WAT     H243014   0.846   4.407   0.848
14258WAT      O43015   1.778   0.069   0.255
14258WAT     H143016   1.764   0.124   0.337
14258WAT     H243017   1.831   0.121   0.188
14259WAT      O43018   0.125   0.073   4.937
14259WAT     H143019   0.161   0.062   4.844
14259WAT     H243020   0.172   0.009   4.999
14260WAT      O43021   7.908   3.145   7.938
14260WAT     H143022   7.976   3.077   7.964
14260WAT     H243023   7.942   3.198   7.860
14261WAT      O43024   7.753   4.441   5.578
14261WAT     H143025   7.853   4.439   5.577
14261WAT     H243026   7.722   4.531   5.609
14262WAT      O43027   7.287   2.569   0.206
14262WAT     H143028   7.205   2.515   0.225
14262WAT     H243029   7.359   2.510   0.170
14263WAT      O43030   8.901   0.043   9.108
14263WAT     H143031   8.807   0.009   9.103
14263WAT     H243032   8.921   0.098   9.027
14264WAT      O43033   0.756   6.595   5.172
14264WAT     H143034   0.852   6.593   5.202
14264WAT     H243035   0.738   6.518   5.111
14265WAT      O43036   5.939   0.251   6.501
14265WAT     H143037   5.868   0.313   6.471
14265WAT     H243038   5.953   0.179   6.432
14266WAT      O43039   0.735   2.426   3.771
14266WAT     H143040   0.655   2.473   3.810
14266WAT     H243041   0.812   2.490   3.769
14267WAT      O43042   8.755   7.283   6.978
14267WAT     H143043   8.688   7.289   6.904
14267WAT     H243044   8.809   7.199   6.968
14268WAT      O43045   8.470   2.806   3.623
14268WAT     H143046   8.546   2.792   3.559
14268WAT     H243047   8.469   2.732   3.690
14269WAT      O43048   0.614   7.829   2.436
14269WAT     H143049   0.517   7.808   2.424
14269WAT     H243050   0.627   7.929   2.439
14270WAT      O43051   5.037   9.370   4.138
14270WAT     H143052   5.112   9.315   4.102
14270WAT     H243053   4.967   9.383   4.068
14271WAT      O43054   7.492   3.964   9.291
14271WAT     H143055   7.527   3.887   9.237
14271WAT     H243056   7.483   4.045   9.233
14272WAT      O43057   1.094   9.706   1.753
14272WAT     H143058   1.136   9.668   1.671
14272WAT     H243059   1.165   9.721   1.823
14273WAT      O43060   9.865   9.261   6.776
14273WAT     H143061   9.770   9.230   6.774
14273WAT     H243062   9.895   9.285   6.684
14274WAT      O43063   7.657   1.120   2.246
14274WAT     H143064   7.614   1.114   2.156
14274WAT     H243065   7.720   1.043   2.258
14275WAT      O43066   3.062   6.894   5.247
14275WAT     H143067   3.119   6.812   5.243
14275WAT     H243068   2.982   6.882   5.187
14276WAT      O43069   8.031   3.348   4.055
14276WAT     H143070   7.946   3.368   4.006
14276WAT     H243071   8.098   3.312   3.991
14277WAT      O43072   2.101   3.143   4.490
14277WAT     H143073   2.111   3.237   4.522
14277WAT     H243074   2.189   3.097   4.495
14278WAT      O43075   2.709   2.160   3.515
14278WAT     H143076   2.771   2.094   3.472
14278WAT     H243077   2.672   2.120   3.599
14279WAT      O43078   4.138   4.011   8.699
14279WAT     H143079   4.131   3.970   8.790
14279WAT     H243080   4.064   4.076   8.685
14280WAT      O43081   2.657   8.096   7.151
14280WAT     H143082   2.699   8.161   7.087
14280WAT     H243083   2.727   8.057   7.210
14281WAT      O43084   9.631   0.730   1.448
14281WAT     H143085   9.717   0.771   1.477
14281WAT     H243086   9.591   0.783   1.373
14282WAT      O43087   5.139   6.674   7.839
14282WAT     H143088   5.181   6.584   7.847
14282WAT     H243089   5.166   6.731   7.917
14283WAT      O43090   1.220   5.329   1.028
14283WAT     H143091   1.167   5.283   0.958
14283WAT     H243092   1.181   5.420   1.045
14284WAT      O43093   4.321   2.775   2.569
14284WAT     H143094   4.346   2.689   2.613
14284WAT     H243095   4.253   2.822   2.625
14285WAT      O43096   0.388   0.766   6.046
14285WAT     H143097   0.298   0.795   6.077
14285WAT     H243098   0.456   0.789   6.116
14286WAT      O43099   5.803   4.311   0.365
14286WAT     H143100   5.847   4.249   0.300
14286WAT     H243101   5.726   4.264   0.409
14287WAT      O43102   4.838   7.156   8.287
14287WAT     H143103   4.757   7.164   8.345
14287WAT     H243104   4.816   7.184   8.194
14288WAT      O43105   4.822   7.570   6.947
14288WAT     H143106   4.843   7.667   6.937
14288WAT     H243107   4.734   7.559   6.994
14289WAT      O43108   1.659   5.735   1.659
14289WAT     H143109   1.711   5.748   1.744
14289WAT     H243110   1.575   5.686   1.679
14290WAT      O43111   6.540   6.065   6.284
14290WAT     H143112   6.629   6.034   6.249
14290WAT     H243113   6.472   6.059   6.211
14291WAT      O43114   9.708   8.364   9.360
14291WAT     H143115   9.794   8.414   9.368
14291WAT     H243116   9.713   8.280   9.413
14292WAT      O43117   0.022   7.414   5.822
14292WAT     H143118   0.021   7.351   5.744
14292WAT     H243119   0.110   7.408   5.869
14293WAT      O43120   5.031   8.859   9.773
14293WAT     H143121   5.131   8.854   9.772
14293WAT     H243122   4.998   8.829   9.863
14294WAT      O43123   8.502   3.031   3.742
14294WAT     H143124   8.464   3.042   3.834
14294WAT     H243125   8.478   2.941   3.706
14295WAT      O43126   6.730   1.064   6.766
14295WAT     H143127   6.774   1.006   6.698
14295WAT     H243128   6.724   1.158   6.731
14296WAT      O43129   9.279   6.020   6.227
14296WAT     H143130   9.372   6.053   6.211
14296WAT     H243131   9.232   6.081   6.292
14297WAT      O43132   5.152   0.472   8.931
14297WAT     H143133   5.060   0.472   8.894
14297WAT     H243134   5.219   0.468   8.857
14298WAT      O43135   4.280   2.847   9.016
14298WAT     H143136   4.262   2.792   8.934
14298WAT     H243137   4.257   2.943   8.997
14299WAT      O43138   6.156   0.673   4.612
14299WAT     H143139   6.112   0.584   4.620
14299WAT     H243140   6.086   0.743   4.593
14300WAT      O43141   9.766   3.678   9.394
14300WAT     H143142   9.755   3.649   9.489
14300WAT     H243143   9.699   3.749   9.373
14301WAT      O43144   8.956   5.434   8.379
14301WAT     H143145   9.009   5.401   8.301
14301WAT     H243146   9.017   5.452   8.456
14302WAT      O43147   4.049   1.110   7.855
14302WAT     H143148   4.016   1.194   7.812
14302WAT     H243149   3.993   1.088   7.935
14303WAT      O43150   0.216   5.887   0.315
14303WAT     H143151   0.237   5.968   0.369
14303WAT     H243152   0.280   5.813   0.339
14304WAT      O43153   5.071   2.511   3.955
14304WAT     H143154   5.017   2.504   3.871
14304WAT     H243155   5.015   2.551   4.028
14305WAT      O43156   9.627   6.285   3.241
14305WAT     H143157   9.683   6.247   3.168
14305WAT     H243158   9.587   6.372   3.210
14306WAT      O43159   2.017   4.570   7.394
14306WAT     H143160   2.051   4.552   7.486
14306WAT     H243161   2.080   4.631   7.347
14307WAT      O43162   7.871   5.645   8.593
14307WAT     H143163   7.893   5.573   8.658
14307WAT     H243164   7.950   5.662   8.534
14308WAT      O43165   3.083   9.366   4.895
14308WAT     H143166   3.036   9.441   4.849
14308WAT     H243167   3.020   9.289   4.906
14309WAT      O43168   7.916   0.865   7.712
14309WAT     H143169   7.833   0.902   7.754
14309WAT     H243170   7.931   0.772   7.744
14310WAT      O43171   3.444   6.120   2.419
14310WAT     H143172   3.468   6.165   2.332
14310WAT     H243173   3.473   6.025   2.416
14311WAT      O43174   7.585   6.185   7.375
14311WAT     H143175   7.534   6.107   7.338
14311WAT     H243176   7.621   6.240   7.300
14312WAT      O43177   5.994   7.280   6.512
14312WAT     H143178   6.088   7.248   6.498
14312WAT     H243179   5.952   7.229   6.588
14313WAT      O43180   7.974   7.016   1.854
14313WAT     H143181   7.996   7.106   1.892
14313WAT     H243182   8.037   6.995   1.780
14314WAT      O43183   3.149   4.875   2.485
14314WAT     H143184   3.249   4.873   2.479
14314WAT     H243185   3.115   4.785   2.512
14315WAT      O43186   3.370   8.137   5.145
14315WAT     H143187   3.301   8.076   5.182
14315WAT     H243188   3.449   8.140   5.207
14316WAT      O43189   3.798   5.036   6.152
14316WAT     H143190   3.828   5.042   6.247
14316WAT     H243191   3.825   5.119   6.102
14317WAT      O43192   2.437   3.774   3.539
14317WAT     H143193   2.407   3.683   3.510
14317WAT     H243194   2.383   3.844   3.493
14318WAT      O43195   4.894   4.499   1.027
14318WAT     H143196   4.839   4.524   0.947
14318WAT     H243197   4.986   4.536   1.017
14319WAT      O43198   2.510   4.033   5.707
14319WAT     H143199   2.608   4.054   5.707
14319WAT     H243200   2.476   4.037   5.801
14320WAT      O43201   8.885   5.620   4.623
14320WAT     H143202   8.973   5.574   4.630
14320WAT     H243203   8.838   5.591   4.540
14321WAT      O43204   4.821   2.094   8.972
14321WAT     H143205   4.753   2.161   8.941
14321WAT     H243206   4.889   2.141   9.029
14322WAT      O43207   1.726   2.089   7.941
14322WAT     H143208   1.657   2.033   7.986
14322WAT     H243209   1.681   2.159   7.885
14323WAT      O43210   7.171   4.155   6.772
14323WAT     H143211   7.090   4.203   6.805
14323WAT     H243212   7.213   4.207   6.697
14324WAT      O43213   1.948   3.601   5.600
14324WAT     H143214   2.032   3.640   5.637
14324WAT     H243215   1.869   3.649   5.639
14325WAT      O43216   5.000   4.802   0.593
14325WAT     H143217   5.061   4.785   0.516
14325WAT     H243218   4.977   4.899   0.596
14326WAT      O43219   0.971   3.165   1.950
14326WAT     H143220   0.949   3.092   1.886
14326WAT     H243221   0.970   3.129   2.043
14327WAT      O43222   5.482   3.224   6.494
14327WAT     H143223   5.450   3.315   6.466
14327WAT     H243224   5.582   3.220   6.485
14328WAT      O43225   5.017   5.536   5.646
14328WAT     H143226   5.016   5.438   5.622
14328WAT     H243227   5.042   5.547   5.742
14329WAT      O43228   2.330   4.044   4.108
14329WAT     H143229   2.249   4.036   4.050
14329WAT     H243230   2.365   4.138   4.103
14330WAT      O43231   1.911   0.751   0.577
14330WAT     H143232   1.939   0.790   0.665
14330WAT     H243233   1.815   0.726   0.580
14331WAT      O43234   7.760   8.822   4.527
14331WAT     H143235   7.774   8.921   4.530
14331WAT     H243236   7.847   8.775   4.539
14332WAT      O43237   1.424   5.138   2.056
14332WAT     H143238   1.466   5.047   2.053
14332WAT     H243239   1.483   5.204   2.009
14333WAT      O43240   6.463   7.586   7.042
14333WAT     H143241   6.557   7.588   7.008
14333WAT     H243242   6.464   7.590   7.142
14334WAT      O43243   4.000   4.058   5.704
14334WAT     H143244   4.077   4.041   5.642
14334WAT     H243245   4.007   3.999   5.784
14335WAT      O43246   5.493   7.035   5.889
14335WAT     H143247   5.473   7.049   5.986
14335WAT     H243248   5.551   6.954   5.879
14336WAT      O43249   4.371   4.760   1.474
14336WAT     H143250   4.371   4.788   1.378
14336WAT     H243251   4.466   4.751   1.506
14337WAT      O43252   2.397   5.377   4.881
14337WAT     H143253   2.447   5.437   4.818
14337WAT     H243254   2.447   5.370   4.967
14338WAT      O43255   2.867   7.124   1.475
14338WAT     H143256   2.967   7.126   1.473
14338WAT     H243257   2.831   7.192   1.410
14339WAT      O43258   2.864   6.534   8.111
14339WAT     H143259   2.781   6.486   8.141
14339WAT     H243260   2.878   6.519   8.013
14340WAT      O43261   8.352   4.342   6.656
14340WAT     H143262   8.325   4.376   6.566
14340WAT     H243263   8.374   4.245   6.649
14341WAT      O43264   5.015   4.333   9.854
14341WAT     H143265   5.085   4.311   9.922
14341WAT     H243266   4.954   4.255   9.842
14342WAT      O43267   6.076   5.406   1.686
14342WAT     H143268   6.061   5.321   1.636
14342WAT     H243269   6.104   5.478   1.623
14343WAT      O43270   0.829   5.142   1.402
14343WAT     H143271   0.764   5.090   1.346
14343WAT     H243272   0.881   5.205   1.345
14344WAT      O43273   1.381   5.447   5.122
14344WAT     H143274   1.439   5.440   5.204
14344WAT     H243275   1.434   5.489   5.048
14345WAT      O43276   3.403   2.387   8.822
14345WAT     H143277   3.423   2.405   8.726
14345WAT     H243278   3.319   2.333   8.830
14346WAT      O43279   7.053   9.093   2.176
14346WAT     H143280   7.017   9.165   2.116
14346WAT     H243281   7.003   9.094   2.263
14347WAT      O43282   7.783   8.824   5.853
14347WAT     H143283   7.835   8.764   5.792
14347WAT     H243284   7.821   8.917   5.849
14348WAT      O43285   3.168   6.948   4.572
14348WAT     H143286   3.119   7.035   4.565
14348WAT     H243287   3.252   6.961   4.625
14349WAT      O43288   1.355   2.182   3.942
14349WAT     H143289   1.330   2.226   4.028
14349WAT     H243290   1.274   2.170   3.885
14350WAT      O43291   2.500   2.864   3.754
14350WAT     H143292   2.544   2.866   3.844
14350WAT     H243293   2.544   2.932   3.695
14351WAT      O43294   6.030   7.564   8.785
14351WAT     H143295   5.990   7.481   8.747
14351WAT     H243296   6.124   7.574   8.753
14352WAT      O43297   7.559   1.906   2.425
14352WAT     H143298   7.603   1.959   2.497
14352WAT     H243299   7.615   1.827   2.403
14353WAT      O43300   6.792   9.522   0.868
14353WAT     H143301   6.790   9.428   0.833
14353WAT     H243302   6.788   9.585   0.791
14354WAT      O43303   1.014   9.679   5.975
14354WAT     H143304   1.028   9.719   6.066
14354WAT     H243305   1.102   9.650   5.938
14355WAT      O43306   4.878   6.748   0.779
14355WAT     H143307   4.825   6.799   0.846
14355WAT     H243308   4.924   6.671   0.823
14356WAT      O43309   9.478   5.100   7.644
14356WAT     H143310   9.422   5.018   7.632
14356WAT     H243311   9.503   5.109   7.741
14357WAT      O43312   9.832   3.033   8.239
14357WAT     H143313   9.803   2.960   8.301
14357WAT     H243314   9.792   3.019   8.149
14358WAT      O43315   3.763   1.118   6.255
14358WAT     H143316   3.673   1.108   6.212
14358WAT     H243317   3.820   1.180   6.201
14359WAT      O43318   6.015   5.693   6.962
14359WAT     H143319   5.929   5.740   6.945
14359WAT     H243320   5.996   5.603   7.003
14360WAT      O43321   0.971   8.459   8.018
14360WAT     H143322   0.979   8.550   8.059
14360WAT     H243323   1.010   8.461   7.926
14361WAT      O43324   0.753   8.488   9.115
14361WAT     H143325   0.737   8.487   9.214
14361WAT     H243326   0.666   8.483   9.067
14362WAT      O43327   6.120   9.166   9.251
14362WAT     H143328   6.155   9.259   9.238
14362WAT     H243329   6.143   9.110   9.172
14363WAT      O43330   5.314   9.155   7.124
14363WAT     H143331   5.318   9.076   7.186
14363WAT     H243332   5.405   9.193   7.113
14364WAT      O43333   4.865   6.000   2.241
14364WAT     H143334   4.881   5.924   2.178
14364WAT     H243335   4.952   6.042   2.265
14365WAT      O43336   3.240   3.494   6.976
14365WAT     H143337   3.336   3.498   7.005
14365WAT     H243338   3.201   3.406   7.003
14366WAT      O43339   5.900   5.033   2.400
14366WAT     H143340   5.845   5.115   2.414
14366WAT     H243341   5.971   5.028   2.471
14367WAT      O43342   9.362   9.465   2.304
14367WAT     H143343   9.431   9.410   2.256
14367WAT     H243344   9.384   9.467   2.402
14368WAT      O43345   0.715   5.183   0.724
14368WAT     H143346   0.657   5.247   0.674
14368WAT     H243347   0.800   5.229   0.750
14369WAT      O43348   3.999   6.352   2.603
14369WAT     H143349   3.966   6.421   2.667
14369WAT     H243350   4.007   6.264   2.649
14370WAT      O43351   9.242   7.757   8.665
14370WAT     H143352   9.260   7.660   8.676
14370WAT     H243353   9.214   7.796   8.753
14371WAT      O43354   2.146   1.578   1.484
14371WAT     H143355   2.081   1.590   1.559
14371WAT     H243356   2.103   1.607   1.398
14372WAT      O43357   7.542   3.455   2.375
14372WAT     H143358   7.466   3.431   2.314
14372WAT     H243359   7.534   3.403   2.460
14373WAT      O43360   3.275   5.797   4.072
14373WAT     H143361   3.278   5.802   3.972
14373WAT     H243362   3.203   5.733   4.099
14374WAT      O43363   4.757   2.179   3.237
14374WAT     H143364   4.792   2.230   3.159
14374WAT     H243365   4.696   2.237   3.291
14375WAT      O43366   4.717   4.129   4.981
14375WAT     H143367   4.808   4.110   4.942
14375WAT     H243368   4.669   4.194   4.923
14376WAT      O43369   0.923   0.416   9.185
14376WAT     H143370   0.835   0.391   9.145
14376WAT     H243371   0.973   0.333   9.210
14377WAT      O43372   9.360   7.348   3.825
14377WAT     H143373   9.265   7.373   3.841
14377WAT     H243374   9.376   7.254   3.855
14378WAT      O43375   9.406   6.321   3.528
14378WAT     H143376   9.442   6.404   3.485
14378WAT     H243377   9.329   6.286   3.475
14379WAT      O43378   0.451   0.982   2.387
14379WAT     H143379   0.403   1.066   2.362
14379WAT     H243380   0.533   1.005   2.440
14380WAT      O43381   5.200   0.747   6.299
14380WAT     H143382   5.272   0.678   6.302
14380WAT     H243383   5.226   0.825   6.356
14381WAT      O43384   1.835   8.964   4.506
14381WAT     H143385   1.805   8.956   4.411
14381WAT     H243386   1.876   8.877   4.536
14382WAT      O43387   8.919   7.018   4.078
14382WAT     H143388   8.883   7.103   4.040
14382WAT     H243389   8.909   6.945   4.011
14383WAT      O43390   5.671   1.751   5.219
14383WAT     H143391   5.724   1.827   5.258
14383WAT     H243392   5.580   1.784   5.193
14384WAT      O43393   2.987   8.425   7.212
14384WAT     H143394   3.050   8.482   7.159
14384WAT     H243395   3.006   8.329   7.193
14385WAT      O43396   3.066   5.953   6.567
14385WAT     H143397   3.082   6.011   6.487
14385WAT     H243398   2.999   5.882   6.544
14386WAT      O43399   3.147   1.601   0.911
14386WAT     H143400   3.067   1.545   0.933
14386WAT     H243401   3.208   1.605   0.990
14387WAT      O43402   0.228   6.988   9.723
14387WAT     H143403   0.312   6.938   9.744
14387WAT     H243404   0.186   7.020   9.808
14388WAT      O43405   4.688   1.119   5.484
14388WAT     H143406   4.628   1.183   5.532
14388WAT     H243407   4.747   1.072   5.550
14389WAT      O43408   9.408   1.704   9.558
14389WAT     H143409   9.384   1.755   9.641
14389WAT     H243410   9.405   1.606   9.578
14390WAT      O43411   4.315   2.125   9.269
14390WAT     H143412   4.378   2.087   9.201
14390WAT     H243413   4.300   2.222   9.250
14391WAT      O43414   1.965   6.681   6.155
14391WAT     H143415   1.873   6.699   6.191
14391WAT     H243416   2.032   6.695   6.228
14392WAT      O43417   3.829   7.303   2.585
14392WAT     H143418   3.866   7.293   2.678
14392WAT     H243419   3.891   7.360   2.531
14393WAT      O43420   5.573   9.593   6.471
14393WAT     H143421   5.619   9.672   6.512
14393WAT     H243422   5.548   9.615   6.377
14394WAT      O43423   1.724   5.259   5.365
14394WAT     H143424   1.689   5.234   5.274
14394WAT     H243425   1.816   5.296   5.355
14395WAT      O43426   3.310   9.409   4.700
14395WAT     H143427   3.247   9.384   4.774
14395WAT     H243428   3.269   9.481   4.645
14396WAT      O43429   5.956   1.953   0.030
14396WAT     H143430   5.930   2.043   0.064
14396WAT     H243431   5.877   1.908  -0.012
14397WAT      O43432   2.440   4.463   5.792
14397WAT     H143433   2.505   4.399   5.750
14397WAT     H243434   2.414   4.533   5.725
14398WAT      O43435   1.438   5.150   3.090
14398WAT     H143436   1.392   5.089   3.154
14398WAT     H243437   1.466   5.234   3.138
14399WAT      O43438   0.180   1.151   8.071
14399WAT     H143439   0.254   1.176   8.133
14399WAT     H243440   0.092   1.164   8.117
14400WAT      O43441   0.225   0.181   0.454
14400WAT     H143442   0.239   0.212   0.548
14400WAT     H243443   0.266   0.247   0.391
14401WAT      O43444   7.572   3.705   1.626
14401WAT     H143445   7.587   3.615   1.667
14401WAT     H243446   7.539   3.768   1.697
14402WAT      O43447   1.257   2.965   1.943
14402WAT     H143448   1.183   2.904   1.971
14402WAT     H243449   1.301   2.929   1.860
14403WAT      O43450   7.385   8.860   6.305
14403WAT     H143451   7.394   8.906   6.393
14403WAT     H243452   7.407   8.763   6.316
14404WAT      O43453   4.655   4.650   8.580
14404WAT     H143454   4.735   4.710   8.585
14404WAT     H243455   4.610   4.647   8.669
14405WAT      O43456   6.361   2.992   5.344
14405WAT     H143457   6.460   3.001   5.351
14405WAT     H243458   6.318   3.031   5.425
14406WAT      O43459   7.001   1.415   4.492
14406WAT     H143460   6.990   1.369   4.404
14406WAT     H243461   7.031   1.509   4.477
14407WAT      O43462   7.120   5.839   5.424
14407WAT     H143463   7.216   5.826   5.400
14407WAT     H243464   7.076   5.749   5.432
14408WAT      O43465   5.562   4.985   6.006
14408WAT     H143466   5.628   4.938   6.065
14408WAT     H243467   5.602   5.072   5.976
14409WAT      O43468   8.268   6.585   4.361
14409WAT     H143469   8.189   6.645   4.366
14409WAT     H243470   8.348   6.633   4.397
14410WAT      O43471   1.569   5.943   1.175
14410WAT     H143472   1.544   5.968   1.082
14410WAT     H243473   1.489   5.952   1.235
14411WAT      O43474   4.499   4.219   2.826
14411WAT     H143475   4.477   4.308   2.865
14411WAT     H243476   4.510   4.152   2.899
14412WAT      O43477   5.066   3.385   0.443
14412WAT     H143478   5.115   3.414   0.361
14412WAT     H243479   5.124   3.325   0.498
14413WAT      O43480   5.769   6.007   3.587
14413WAT     H143481   5.745   5.911   3.602
14413WAT     H243482   5.755   6.059   3.671
14414WAT      O43483   6.922   2.140   7.553
14414WAT     H143484   6.927   2.232   7.593
14414WAT     H243485   6.992   2.082   7.595
14415WAT      O43486   0.179   5.175   0.562
14415WAT     H143487   0.137   5.121   0.489
14415WAT     H243488   0.119   5.176   0.642
14416WAT      O43489   7.661   8.929   7.514
14416WAT     H143490   7.712   8.969   7.590
14416WAT     H243491   7.564   8.925   7.536
14417WAT      O43492   5.813   7.182   3.572
14417WAT     H143493   5.830   7.224   3.483
14417WAT     H243494   5.888   7.119   3.595
14418WAT      O43495   0.032   0.939   9.214
14418WAT     H143496   0.057   0.853   9.259
14418WAT     H243497  -0.012   1.000   9.280
14419WAT      O43498   5.662   1.952   7.365
14419WAT     H143499   5.707   1.959   7.275
14419WAT     H243500   5.601   2.030   7.377
14420WAT      O43501   4.016   9.798   8.496
14420WAT     H143502   4.017   9.880   8.438
14420WAT     H243503   4.109   9.764   8.507
14421WAT      O43504   4.450   7.932   9.515
14421WAT     H143505   4.441   8.028   9.545
14421WAT     H243506   4.495   7.929   9.426
14422WAT      O43507   8.906   7.951   7.010
14422WAT     H143508   8.899   7.975   7.107
14422WAT     H243509   8.830   7.891   6.985
14423WAT      O43510   8.960   8.703   0.807
14423WAT     H143511   8.925   8.693   0.714
14423WAT     H243512   9.056   8.731   0.804
14424WAT      O43513   6.247   5.576   2.637
14424WAT     H143514   6.318   5.605   2.701
14424WAT     H243515   6.190   5.506   2.680
14425WAT      O43516   7.573   9.204   0.507
14425WAT     H143517   7.501   9.174   0.570
14425WAT     H243518   7.597   9.129   0.446
14426WAT      O43519   6.897   4.170   4.152
14426WAT     H143520   6.967   4.233   4.117
14426WAT     H243521   6.941   4.096   4.203
14427WAT      O43522   2.548   1.995   2.210
14427WAT     H143523   2.495   1.916   2.181
14427WAT     H243524   2.627   1.965   2.263
14428WAT      O43525   2.432   1.387   4.794
14428WAT     H143526   2.427   1.445   4.712
14428WAT     H243527   2.506   1.321   4.784
14429WAT      O43528   0.300   0.586   5.515
14429WAT     H143529   0.385   0.639   5.522
14429WAT     H243530   0.226   0.635   5.561
14430WAT      O43531   9.440   7.767   3.483
14430WAT     H143532   9.519   7.707   3.485
14430WAT     H243533   9.442   7.821   3.399
14431WAT      O43534   0.315   3.948   1.643
14431WAT     H143535   0.282   3.854   1.636
14431WAT     H243536   0.362   3.973   1.558
14432WAT      O43537   7.541   5.380   8.100
14432WAT     H143538   7.591   5.456   8.057
14432WAT     H243539   7.488   5.331   8.031
14433WAT      O43540   1.240   3.566   7.538
14433WAT     H143541   1.304   3.625   7.489
14433WAT     H243542   1.280   3.538   7.625
14434WAT      O43543   1.293   3.136   4.436
14434WAT     H143544   1.194   3.148   4.446
14434WAT     H243545   1.318   3.149   4.340
14435WAT      O43546   8.639   6.073   6.846
14435WAT     H143547   8.567   6.137   6.819
14435WAT     H243548   8.718   6.083   6.785
14436WAT      O43549   3.055   5.162   4.954
14436WAT     H143550   2.962   5.196   4.968
14436WAT     H243551   3.077   5.095   5.026
14437WAT      O43552   8.358   9.661   1.892
14437WAT     H143553   8.424   9.734   1.875
14437WAT     H243554   8.315   9.634   1.806
14438WAT      O43555   3.840   1.028   8.219
14438WAT     H143556   3.847   0.987   8.310
14438WAT     H243557   3.931   1.054   8.187
14439WAT      O43558   3.887   4.135   1.115
14439WAT     H143559   3.866   4.230   1.096
14439WAT     H243560   3.835   4.076   1.053
14440WAT      O43561   1.690   9.255   3.460
14440WAT     H143562   1.755   9.183   3.435
14440WAT     H243563   1.597   9.221   3.445
14441WAT      O43564   8.239   3.978   4.811
14441WAT     H143565   8.322   4.032   4.809
14441WAT     H243566   8.168   4.027   4.863
14442WAT      O43567   6.325   9.708   9.550
14442WAT     H143568   6.268   9.643   9.599
14442WAT     H243569   6.339   9.677   9.456
14443WAT      O43570   8.304   6.771   2.777
14443WAT     H143571   8.396   6.771   2.816
14443WAT     H243572   8.308   6.796   2.681
14444WAT      O43573   1.620   2.832   5.240
14444WAT     H143574   1.582   2.741   5.250
14444WAT     H243575   1.635   2.852   5.143
14445WAT      O43576   2.653   6.762   8.641
14445WAT     H143577   2.665   6.818   8.560
14445WAT     H243578   2.589   6.807   8.704
14446WAT      O43579   6.586   3.606   3.190
14446WAT     H143580   6.587   3.698   3.152
14446WAT     H243581   6.656   3.599   3.262
14447WAT      O43582   6.251   1.984   7.171
14447WAT     H143583   6.296   1.916   7.113
14447WAT     H243584   6.295   2.073   7.158
14448WAT      O43585   8.417   2.135   2.627
14448WAT     H143586   8.497   2.078   2.647
14448WAT     H243587   8.429   2.179   2.539
14449WAT      O43588   2.077   2.505   9.805
14449WAT     H143589   1.987   2.542   9.781
14449WAT     H243590   2.070   2.450   9.888
14450WAT      O43591   3.085   8.540   8.947
14450WAT     H143592   3.024   8.527   9.025
14450WAT     H243593   3.163   8.595   8.975
14451WAT      O43594   3.140   5.898   3.017
14451WAT     H143595   3.226   5.857   2.986
14451WAT     H243596   3.157   5.951   3.100
14452WAT      O43597   7.119   8.013   6.518
14452WAT     H143598   7.079   7.968   6.439
14452WAT     H243599   7.143   7.945   6.587
14453WAT      O43600   5.951   7.110   3.219
14453WAT     H143601   6.017   7.077   3.287
14453WAT     H243602   6.000   7.152   3.143
14454WAT      O43603   2.745   3.695   0.412
14454WAT     H143604   2.772   3.716   0.506
14454WAT     H243605   2.645   3.688   0.407
14455WAT      O43606   6.037   5.970   3.966
14455WAT     H143607   6.113   5.920   3.923
14455WAT     H243608   6.049   6.068   3.952
14456WAT      O43609   4.505   6.604   9.381
14456WAT     H143610   4.473   6.580   9.290
14456WAT     H243611   4.544   6.697   9.379
14457WAT      O43612   3.670   0.975   5.729
14457WAT     H143613   3.667   0.881   5.694
14457WAT     H243614   3.707   0.975   5.821
14458WAT      O43615   3.229   5.330   4.358
14458WAT     H143616   3.271   5.385   4.286
14458WAT     H243617   3.142   5.292   4.326
14459WAT      O43618   2.846   1.843   3.630
14459WAT     H143619   2.877   1.915   3.568
14459WAT     H243620   2.816   1.764   3.577
14460WAT      O43621   9.605   5.881   7.851
14460WAT     H143622   9.630   5.881   7.755
14460WAT     H243623   9.641   5.963   7.896
14461WAT      O43624   6.703   7.986   1.551
14461WAT     H143625   6.765   8.039   1.609
14461WAT     H243626   6.714   7.888   1.571
14462WAT      O43627   1.999   6.891   1.627
14462WAT     H143628   1.947   6.904   1.711
14462WAT     H243629   2.044   6.978   1.602
14463WAT      O43630   3.704   8.112   3.003
14463WAT     H143631   3.774   8.084   3.068
14463WAT     H243632   3.615   8.113   3.048
14464WAT      O43633   7.666   1.521   2.674
14464WAT     H143634   7.762   1.519   2.646
14464WAT     H243635   7.633   1.615   2.673
14465WAT      O43636   3.593   0.546   5.343
14465WAT     H143637   3.557   0.458   5.313
14465WAT     H243638   3.659   0.580   5.275
14466WAT      O43639   8.592   1.106   9.132
14466WAT     H143640   8.536   1.078   9.054
14466WAT     H243641   8.653   1.031   9.157
14467WAT      O43642   2.335   6.119   8.682
14467WAT     H143643   2.359   6.094   8.588
14467WAT     H243644   2.419   6.131   8.736
14468WAT      O43645   4.598   3.693   2.174
14468WAT     H143646   4.563   3.773   2.223
14468WAT     H243647   4.521   3.641   2.138
14469WAT      O43648   0.906   6.098   7.610
14469WAT     H143649   0.896   6.192   7.578
14469WAT     H243650   0.914   6.037   7.531
14470WAT      O43651   6.303   2.682   4.681
14470WAT     H143652   6.291   2.777   4.710
14470WAT     H243653   6.400   2.661   4.671
14471WAT      O43654   2.180   1.060   5.926
14471WAT     H143655   2.258   1.001   5.947
14471WAT     H243656   2.188   1.094   5.832
14472WAT      O43657   2.223   8.789   6.938
14472WAT     H143658   2.136   8.751   6.908
14472WAT     H243659   2.207   8.879   6.980
14473WAT      O43660   6.282   3.755   5.930
14473WAT     H143661   6.344   3.715   5.999
14473WAT     H243662   6.307   3.721   5.840
14474WAT      O43663   6.359   0.763   5.004
14474WAT     H143664   6.262   0.742   5.020
14474WAT     H243665   6.378   0.757   4.906
14475WAT      O43666   2.892   5.525   7.635
14475WAT     H143667   2.892   5.466   7.716
14475WAT     H243668   2.905   5.620   7.662
14476WAT      O43669   1.537   4.221   2.735
14476WAT     H143670   1.452   4.216   2.787
14476WAT     H243671   1.611   4.253   2.794
14477WAT      O43672   9.583   9.534   2.603
14477WAT     H143673   9.621   9.574   2.519
14477WAT     H243674   9.583   9.603   2.675
14478WAT      O43675   9.707   3.042   8.710
14478WAT     H143676   9.754   2.961   8.676
14478WAT     H243677   9.746   3.124   8.668
14479WAT      O43678   5.646   2.979   3.302
14479WAT     H143679   5.691   3.016   3.220
14479WAT     H243680   5.616   3.055   3.360
14480WAT      O43681   0.761   6.901   1.772
14480WAT     H143682   0.803   6.812   1.790
14480WAT     H243683   0.782   6.964   1.846
14481WAT      O43684   6.766   9.090   0.580
14481WAT     H143685   6.845   9.033   0.604
14481WAT     H243686   6.786   9.140   0.496
14482WAT      O43687   1.186   9.156   8.421
14482WAT     H143688   1.283   9.176   8.435
14482WAT     H243689   1.171   9.125   8.328
14483WAT      O43690   2.056   1.191   3.472
14483WAT     H143691   2.110   1.183   3.557
14483WAT     H243692   2.050   1.101   3.429
14484WAT      O43693   5.998   6.712   9.785
14484WAT     H143694   5.927   6.701   9.854
14484WAT     H243695   6.013   6.810   9.768
14485WAT      O43696   2.716   7.158   6.191
14485WAT     H143697   2.727   7.104   6.274
14485WAT     H243698   2.696   7.253   6.216
14486WAT      O43699   2.345   0.721   5.813
14486WAT     H143700   2.286   0.784   5.763
14486WAT     H243701   2.374   0.763   5.899
14487WAT      O43702   1.571   8.900   5.970
14487WAT     H143703   1.624   8.879   6.051
14487WAT     H243704   1.617   8.971   5.917
14488WAT      O43705   1.414   8.332   5.783
14488WAT     H143706   1.352   8.407   5.757
14488WAT     H243707   1.373   8.245   5.756
14489WAT      O43708   0.188   2.171   1.875
14489WAT     H143709   0.239   2.090   1.845
14489WAT     H243710   0.253   2.240   1.908
14490WAT      O43711   4.324   1.363   2.967
14490WAT     H143712   4.291   1.409   2.885
14490WAT     H243713   4.247   1.337   3.024
14491WAT      O43714   6.804   2.232   6.670
14491WAT     H143715   6.791   2.289   6.751
14491WAT     H243716   6.750   2.268   6.594
14492WAT      O43717   2.882   2.107   0.156
14492WAT     H143718   2.828   2.038   0.107
14492WAT     H243719   2.952   2.062   0.211
14493WAT      O43720   8.515   8.645   3.171
14493WAT     H143721   8.500   8.546   3.164
14493WAT     H243722   8.614   8.663   3.172
14494WAT      O43723   8.609   6.420   5.902
14494WAT     H143724   8.588   6.324   5.886
14494WAT     H243725   8.680   6.428   5.971
14495WAT      O43726   2.130   0.033   1.910
14495WAT     H143727   2.196  -0.003   1.976
14495WAT     H243728   2.037   0.019   1.945
14496WAT      O43729   8.707   7.024   1.441
14496WAT     H143730   8.804   7.039   1.456
14496WAT     H243731   8.659   7.026   1.529
14497WAT      O43732   8.410   4.742   3.841
14497WAT     H143733   8.494   4.752   3.788
14497WAT     H243734   8.410   4.653   3.887
14498WAT      O43735   0.529   0.091   0.180
14498WAT     H143736   0.627   0.093   0.158
14498WAT     H243737   0.480   0.042   0.109
14499WAT      O43738   4.432   7.996   8.462
14499WAT     H143739   4.464   7.970   8.371
14499WAT     H243740   4.445   8.094   8.475
14500WAT      O43741   1.305   0.357   7.509
14500WAT     H143742   1.293   0.453   7.483
14500WAT     H243743   1.272   0.343   7.603
14501WAT      O43744   9.360   4.152   6.219
14501WAT     H143745   9.290   4.084   6.196
14501WAT     H243746   9.325   4.212   6.291
14502WAT      O43747   2.186   4.642   4.919
14502WAT     H143748   2.275   4.671   4.953
14502WAT     H243749   2.117   4.711   4.942
14503WAT      O43750   9.297   1.324   7.980
14503WAT     H143751   9.265   1.235   8.012
14503WAT     H243752   9.220   1.388   7.976
14504WAT      O43753   4.929   3.009   3.399
14504WAT     H143754   5.000   3.073   3.371
14504WAT     H243755   4.957   2.915   3.380
14505WAT      O43756   8.781   4.981   5.639
14505WAT     H143757   8.779   5.080   5.646
14505WAT     H243758   8.737   4.952   5.554
14506WAT      O43759   0.017   9.347   0.847
14506WAT     H143760  -0.029   9.286   0.782
14506WAT     H243761   0.102   9.305   0.878
14507WAT      O43762   0.590   5.968   4.646
14507WAT     H143763   0.536   5.978   4.563
14507WAT     H243764   0.672   6.025   4.639
14508WAT      O43765   5.668   2.319   5.157
14508WAT     H143766   5.609   2.399   5.173
14508WAT     H243767   5.651   2.251   5.228
14509WAT      O43768   2.514   0.830   4.150
14509WAT     H143769   2.559   0.763   4.091
14509WAT     H243770   2.416   0.810   4.155
14510WAT      O43771   6.854   0.811   5.542
14510WAT     H143772   6.824   0.815   5.638
14510WAT     H243773   6.850   0.903   5.503
14511WAT      O43774   8.401   4.849   5.528
14511WAT     H143775   8.487   4.834   5.478
14511WAT     H243776   8.407   4.804   5.617
14512WAT      O43777   9.705   2.946   5.890
14512WAT     H143778   9.750   2.873   5.839
14512WAT     H243779   9.663   3.010   5.827
14513WAT      O43780   4.706   2.750   7.943
14513WAT     H143781   4.728   2.848   7.947
14513WAT     H243782   4.682   2.717   8.034
14514WAT      O43783   7.279   8.211   4.717
14514WAT     H143784   7.216   8.146   4.675
14514WAT     H243785   7.230   8.270   4.781
14515WAT      O43786   6.489   5.826   9.409
14515WAT     H143787   6.524   5.787   9.494
14515WAT     H243788   6.473   5.753   9.343
14516WAT      O43789   6.586   9.716   4.839
14516WAT     H143790   6.497   9.754   4.812
14516WAT     H243791   6.610   9.750   4.930
14517WAT      O43792   0.547   3.017   5.593
14517WAT     H143793   0.523   3.093   5.533
14517WAT     H243794   0.501   2.934   5.562
14518WAT      O43795   3.422   4.071   3.116
14518WAT     H143796   3.381   4.074   3.025
14518WAT     H243797   3.514   4.110   3.113
14519WAT      O43798   0.145   7.286   2.011
14519WAT     H143799   0.200   7.325   2.085
14519WAT     H243800   0.153   7.344   1.930
14520WAT      O43801   2.175   4.114   2.806
14520WAT     H143802   2.136   4.175   2.737
14520WAT     H243803   2.262   4.078   2.773
14521WAT      O43804   0.779   7.436   6.765
14521WAT     H143805   0.730   7.452   6.679
14521WAT     H243806   0.728   7.370   6.820
14522WAT      O43807   3.198   9.456   2.181
14522WAT     H143808   3.147   9.422   2.261
14522WAT     H243809   3.134   9.470   2.106
14523WAT      O43810   6.012   6.639   1.910
14523WAT     H143811   5.996   6.698   1.831
14523WAT     H243812   6.066   6.688   1.979
14524WAT      O43813   3.685   1.063   0.256
14524WAT     H143814   3.642   1.016   0.334
14524WAT     H243815   3.622   1.131   0.220
14525WAT      O43816   7.809   6.403   0.484
14525WAT     H143817   7.755   6.326   0.516
14525WAT     H243818   7.902   6.372   0.464
14526WAT      O43819   4.514   1.011   3.955
14526WAT     H143820   4.601   1.051   3.927
14526WAT     H243821   4.519   0.912   3.949
14527WAT      O43822   2.572   5.053   7.386
14527WAT     H143823   2.616   5.143   7.388
14527WAT     H243824   2.481   5.061   7.345
14528WAT      O43825   1.298   5.336   6.131
14528WAT     H143826   1.306   5.389   6.047
14528WAT     H243827   1.383   5.284   6.146
14529WAT      O43828   4.561   3.973   2.968
14529WAT     H143829   4.636   3.955   3.032
14529WAT     H243830   4.551   3.896   2.906
14530WAT      O43831   7.875   7.842   1.342
14530WAT     H143832   7.915   7.912   1.282
14530WAT     H243833   7.830   7.773   1.286
14531WAT      O43834   8.742   1.312   6.144
14531WAT     H143835   8.824   1.310   6.201
14531WAT     H243836   8.675   1.375   6.184
14532WAT      O43837   3.203   2.762   1.971
14532WAT     H143838   3.121   2.720   2.011
14532WAT     H243839   3.231   2.710   1.890
14533WAT      O43840   5.105   3.491   2.476
14533WAT     H143841   5.032   3.554   2.501
14533WAT     H243842   5.190   3.542   2.462
14534WAT      O43843   5.448   5.807   6.848
14534WAT     H143844   5.530   5.859   6.824
14534WAT     H243845   5.404   5.849   6.927
14535WAT      O43846   1.429   2.222   1.926
14535WAT     H143847   1.465   2.136   1.890
14535WAT     H243848   1.333   2.209   1.952
14536WAT      O43849   3.565   0.307   5.592
14536WAT     H143850   3.555   0.404   5.614
14536WAT     H243851   3.586   0.297   5.495
14537WAT      O43852   6.391   1.175   3.815
14537WAT     H143853   6.433   1.218   3.895
14537WAT     H243854   6.423   1.081   3.806
14538WAT      O43855   2.554   7.919   8.139
14538WAT     H143856   2.613   7.951   8.065
14538WAT     H243857   2.603   7.852   8.195
14539WAT      O43858   0.576   1.399   3.387
14539WAT     H143859   0.572   1.470   3.317
14539WAT     H243860   0.485   1.384   3.425
14540WAT      O43861   1.899   2.032   7.705
14540WAT     H143862   1.832   2.081   7.761
14540WAT     H243863   1.991   2.049   7.740
14541WAT      O43864   4.551   3.059   1.225
14541WAT     H143865   4.463   3.083   1.185
14541WAT     H243866   4.623   3.117   1.186
14542WAT      O43867   9.436   2.134   8.982
14542WAT     H143868   9.516   2.143   8.924
14542WAT     H243869   9.380   2.058   8.949
14543WAT      O43870   8.359   0.312   6.776
14543WAT     H143871   8.335   0.399   6.819
14543WAT     H243872   8.418   0.330   6.697
14544WAT      O43873   1.713   9.446   1.532
14544WAT     H143874   1.801   9.424   1.490
14544WAT     H243875   1.651   9.369   1.523
14545WAT      O43876   7.740   2.823   1.389
14545WAT     H143877   7.680   2.769   1.329
14545WAT     H243878   7.685   2.882   1.447
14546WAT      O43879   1.665   1.631   3.076
14546WAT     H143880   1.649   1.575   3.157
14546WAT     H243881   1.583   1.630   3.019
14547WAT      O43882   9.350   1.305   2.002
14547WAT     H143883   9.253   1.286   1.989
14547WAT     H243884   9.404   1.248   1.939
14548WAT      O43885   2.900   8.816   1.166
14548WAT     H143886   2.906   8.732   1.113
14548WAT     H243887   2.948   8.890   1.118
14549WAT      O43888   5.742   4.104   9.415
14549WAT     H143889   5.817   4.123   9.478
14549WAT     H243890   5.693   4.022   9.445
14550WAT      O43891   5.700   9.475   7.613
14550WAT     H143892   5.617   9.426   7.588
14550WAT     H243893   5.718   9.546   7.545
14551WAT      O43894   6.466   9.382   3.097
14551WAT     H143895   6.409   9.378   3.016
14551WAT     H243896   6.469   9.476   3.132
14552WAT      O43897   2.436   7.374   6.675
14552WAT     H143898   2.404   7.281   6.657
14552WAT     H243899   2.359   7.437   6.676
14553WAT      O43900   4.187   0.375   5.425
14553WAT     H143901   4.099   0.419   5.405
14553WAT     H243902   4.231   0.348   5.339
14554WAT      O43903   2.589   5.808   9.875
14554WAT     H143904   2.611   5.890   9.822
14554WAT     H243905   2.494   5.811   9.903
14555WAT      O43906   1.675   6.606   2.912
14555WAT     H143907   1.581   6.595   2.945
14555WAT     H243908   1.696   6.532   2.848
14556WAT      O43909   6.015   2.380   6.273
14556WAT     H143910   6.056   2.470   6.293
14556WAT     H243911   5.949   2.390   6.199
14557WAT      O43912   2.256   4.062   7.011
14557WAT     H143913   2.236   3.992   6.942
14557WAT     H243914   2.327   4.124   6.976
14558WAT      O43915   7.748   9.803   4.583
14558WAT     H143916   7.760   9.858   4.501
14558WAT     H243917   7.651   9.801   4.608
14559WAT      O43918   7.259   8.974   6.614
14559WAT     H143919   7.242   8.957   6.711
14559WAT     H243920   7.300   9.065   6.603
14560WAT      O43921   4.223   8.322   3.646
14560WAT     H143922   4.185   8.389   3.582
14560WAT     H243923   4.151   8.258   3.674
14561WAT      O43924   7.819   8.834   3.821
14561WAT     H143925   7.829   8.754   3.880
14561WAT     H243926   7.729   8.832   3.777
14562WAT      O43927   9.673   3.434   7.241
14562WAT     H143928   9.709   3.355   7.290
14562WAT     H243929   9.717   3.517   7.274
14563WAT      O43930   0.751   6.875   6.297
14563WAT     H143931   0.836   6.903   6.341
14563WAT     H243932   0.732   6.935   6.220
14564WAT      O43933   2.090   0.720   2.272
14564WAT     H143934   1.994   0.745   2.287
14564WAT     H243935   2.142   0.737   2.356
14565WAT      O43936   3.267   6.535   4.764
14565WAT     H143937   3.253   6.458   4.702
14565WAT     H243938   3.291   6.500   4.855
14566WAT      O43939   5.792   0.208   4.319
14566WAT     H143940   5.797   0.237   4.223
14566WAT     H243941   5.884   0.213   4.360
14567WAT      O43942   8.117   2.484   8.820
14567WAT     H143943   8.089   2.532   8.902
14567WAT     H243944   8.047   2.417   8.795
14568WAT      O43945   2.602   2.593   5.326
14568WAT     H143946   2.634   2.638   5.242
14568WAT     H243947   2.541   2.518   5.302
14569WAT      O43948   7.573   7.972   9.769
14569WAT     H143949   7.526   7.905   9.826
14569WAT     H243950   7.531   8.062   9.781
14570WAT      O43951   8.035   9.523   9.538
14570WAT     H143952   8.006   9.485   9.626
14570WAT     H243953   8.095   9.601   9.553
14571WAT      O43954   9.682   8.223   8.763
14571WAT     H143955   9.668   8.148   8.698
14571WAT     H243956   9.633   8.204   8.848
14572WAT      O43957   0.096   2.094   9.286
14572WAT     H143958   0.042   2.135   9.213
14572WAT     H243959   0.193   2.111   9.269
14573WAT      O43960   1.669   3.879   3.847
14573WAT     H143961   1.665   3.780   3.839
14573WAT     H243962   1.579   3.915   3.871
14574WAT      O43963   2.663   4.096   8.272
14574WAT     H143964   2.616   4.102   8.360
14574WAT     H243965   2.663   4.186   8.228
14575WAT      O43966   8.110   7.024   8.544
14575WAT     H143967   8.181   7.091   8.567
14575WAT     H243968   8.064   6.994   8.627
14576WAT      O43969   7.816   0.776   0.148
14576WAT     H143970   7.747   0.780   0.220
14576WAT     H243971   7.821   0.683   0.112
14577WAT      O43972   2.304   7.135   5.171
14577WAT     H143973   2.356   7.136   5.256
14577WAT     H243974   2.224   7.193   5.180
14578WAT      O43975   1.739   1.599   8.538
14578WAT     H143976   1.788   1.560   8.616
14578WAT     H243977   1.732   1.698   8.549
14579WAT      O43978   6.669   6.318   7.325
14579WAT     H143979   6.766   6.336   7.311
14579WAT     H243980   6.658   6.237   7.382
14580WAT      O43981   1.693   1.753   5.592
14580WAT     H143982   1.661   1.845   5.569
14580WAT     H243983   1.614   1.694   5.605
14581WAT      O43984   9.370   9.735   1.476
14581WAT     H143985   9.448   9.674   1.461
14581WAT     H243986   9.329   9.760   1.388
14582WAT      O43987   9.709   0.534   0.108
14582WAT     H143988   9.768   0.574   0.038
14582WAT     H243989   9.734   0.569   0.198
14583WAT      O43990   9.628   3.379   6.065
14583WAT     H143991   9.568   3.308   6.102
14583WAT     H243992   9.620   3.381   5.966
14584WAT      O43993   1.949   5.227   8.014
14584WAT     H143994   1.998   5.248   7.929
14584WAT     H243995   2.005   5.257   8.092
14585WAT      O43996   4.975   7.392   7.990
14585WAT     H143997   5.038   7.435   8.055
14585WAT     H243998   5.004   7.299   7.971
14586WAT      O43999   1.086   2.053   3.293
14586WAT     H144000   0.991   2.081   3.300
14586WAT     H244001   1.091   1.957   3.264
14587WAT      O44002   7.605   6.534   5.232
14587WAT     H144003   7.509   6.544   5.259
14587WAT     H244004   7.611   6.516   5.134
14588WAT      O44005   7.359   5.019   6.177
14588WAT     H144006   7.297   4.970   6.239
14588WAT     H244007   7.338   5.117   6.180
14589WAT      O44008   3.352   7.141   8.280
14589WAT     H144009   3.348   7.056   8.227
14589WAT     H244010   3.443   7.150   8.322
14590WAT      O44011   3.336   1.985   2.795
14590WAT     H144012   3.267   1.924   2.755
14590WAT     H244013   3.423   1.937   2.801
14591WAT      O44014   3.276   9.746   2.276
14591WAT     H144015   3.197   9.757   2.337
14591WAT     H244016   3.267   9.660   2.225
14592WAT      O44017   1.455   8.729   7.880
14592WAT     H144018   1.378   8.783   7.916
14592WAT     H244019   1.451   8.727   7.780
14593WAT      O44020   1.581   0.633   3.776
14593WAT     H144021   1.573   0.538   3.806
14593WAT     H244022   1.554   0.640   3.680
14594WAT      O44023   6.132   6.483   3.088
14594WAT     H144024   6.105   6.449   3.178
14594WAT     H244025   6.085   6.569   3.069
14595WAT      O44026   0.925   1.856   1.059
14595WAT     H144027   0.880   1.786   1.002
14595WAT     H244028   0.940   1.819   1.151
14596WAT      O44029   3.829   3.326   1.780
14596WAT     H144030   3.802   3.390   1.708
14596WAT     H244031   3.903   3.366   1.834
14597WAT      O44032   1.668   0.254   1.794
14597WAT     H144033   1.571   0.274   1.776
14597WAT     H244034   1.725   0.308   1.732
14598WAT      O44035   3.233   3.817   1.564
14598WAT     H144036   3.260   3.800   1.469
14598WAT     H244037   3.246   3.913   1.586
14599WAT      O44038   5.648   1.535   6.888
14599WAT     H144039   5.552   1.556   6.873
14599WAT     H244040   5.691   1.508   6.802
14600WAT      O44041   6.027   7.326   0.624
14600WAT     H144042   5.930   7.326   0.649
14600WAT     H244043   6.073   7.249   0.669
14601WAT      O44044   3.671   2.774   4.815
14601WAT     H144045   3.722   2.814   4.892
14601WAT     H244046   3.662   2.842   4.742
14602WAT      O44047   1.650   9.613   0.207
14602WAT     H144048   1.748   9.634   0.211
14602WAT     H244049   1.624   9.593   0.112
14603WAT      O44050   4.855   0.468   7.549
14603WAT     H144051   4.807   0.530   7.610
14603WAT     H244052   4.879   0.517   7.464
14604WAT      O44053   0.065   3.409   5.729
14604WAT     H144054   0.076   3.309   5.733
14604WAT     H244055  -0.025   3.434   5.765
14605WAT      O44056   6.527   9.745   7.040
14605WAT     H144057   6.441   9.711   7.001
14605WAT     H244058   6.546   9.697   7.126
14606WAT      O44059   2.029   1.743   5.366
14606WAT     H144060   2.118   1.767   5.326
14606WAT     H244061   1.967   1.821   5.358
14607WAT      O44062   6.912   7.336   9.179
14607WAT     H144063   6.956   7.339   9.089
14607WAT     H244064   6.925   7.424   9.225
14608WAT      O44065   7.456   1.968   1.218
14608WAT     H144066   7.530   1.902   1.209
14608WAT     H244067   7.484   2.040   1.282
14609WAT      O44068   8.201   6.167   0.814
14609WAT     H144069   8.175   6.108   0.737
14609WAT     H244070   8.187   6.119   0.900
14610WAT      O44071   8.690   0.098   2.374
14610WAT     H144072   8.603   0.147   2.373
14610WAT     H244073   8.712   0.072   2.468
14611WAT      O44074   1.452   0.942   0.213
14611WAT     H144075   1.522   0.871   0.215
14611WAT     H244076   1.490   1.024   0.169
14612WAT      O44077   4.605   2.601   5.100
14612WAT     H144078   4.683   2.657   5.127
14612WAT     H244079   4.609   2.584   5.001
14613WAT      O44080   3.902   3.022   9.765
14613WAT     H144081   4.000   3.007   9.746
14613WAT     H244082   3.887   3.023   9.863
14614WAT      O44083   3.167   8.991   2.439
14614WAT     H144084   3.214   9.080   2.443
14614WAT     H244085   3.204   8.931   2.509
14615WAT      O44086   8.761   2.455   8.167
14615WAT     H144087   8.687   2.478   8.104
14615WAT     H244088   8.740   2.489   8.258
14616WAT      O44089   3.220   0.548   2.265
14616WAT     H144090   3.267   0.537   2.353
14616WAT     H244091   3.277   0.511   2.192
14617WAT      O44092   2.460   7.269   5.720
14617WAT     H144093   2.462   7.264   5.820
14617WAT     H244094   2.526   7.338   5.689
14618WAT      O44095   8.299   5.436   9.790
14618WAT     H144096   8.318   5.364   9.856
14618WAT     H244097   8.240   5.505   9.831
14619WAT      O44098   3.280   6.650   1.848
14619WAT     H144099   3.269   6.667   1.750
14619WAT     H244100   3.373   6.676   1.875
14620WAT      O44101   6.825   5.402   8.074
14620WAT     H144102   6.755   5.441   8.014
14620WAT     H244103   6.815   5.439   8.166
14621WAT      O44104   7.286   3.177   8.744
14621WAT     H144105   7.189   3.189   8.763
14621WAT     H244106   7.337   3.180   8.830
14622WAT      O44107   0.923   0.951   2.960
14622WAT     H144108   0.989   0.948   3.035
14622WAT     H244109   0.880   0.861   2.950
14623WAT      O44110   0.217   6.324   2.454
14623WAT     H144111   0.316   6.334   2.441
14623WAT     H244112   0.185   6.246   2.400
14624WAT      O44113   8.478   9.769   1.255
14624WAT     H144114   8.430   9.837   1.311
14624WAT     H244115   8.546   9.816   1.198
14625WAT      O44116   4.710   8.855   6.669
14625WAT     H144117   4.777   8.871   6.743
14625WAT     H244118   4.639   8.925   6.674
14626WAT      O44119   8.205   1.274   4.555
14626WAT     H144120   8.226   1.199   4.494
14626WAT     H244121   8.154   1.240   4.634
14627WAT      O44122   5.743   9.173   4.726
14627WAT     H144123   5.770   9.094   4.781
14627WAT     H244124   5.799   9.252   4.750
14628WAT      O44125   9.785   5.475   9.526
14628WAT     H144126   9.800   5.480   9.428
14628WAT     H244127   9.687   5.480   9.545
14629WAT      O44128   4.183   3.603   7.724
14629WAT     H144129   4.123   3.683   7.732
14629WAT     H244130   4.268   3.629   7.680
14630WAT      O44131   9.307   4.112   8.386
14630WAT     H144132   9.276   4.047   8.455
14630WAT     H244133   9.401   4.091   8.359
14631WAT      O44134   9.786   0.075   7.871
14631WAT     H144135   9.772  -0.018   7.840
14631WAT     H244136   9.879   0.105   7.848
14632WAT      O44137   9.590   1.035   4.482
14632WAT     H144138   9.599   1.117   4.539
14632WAT     H244139   9.595   0.954   4.540
14633WAT      O44140   5.347   9.100   6.239
14633WAT     H144141   5.426   9.133   6.188
14633WAT     H244142   5.367   9.008   6.274
14634WAT      O44143   3.826   2.218   1.977
14634WAT     H144144   3.807   2.137   1.921
14634WAT     H244145   3.924   2.230   1.987
14635WAT      O44146   7.893   3.189   9.188
14635WAT     H144147   7.936   3.211   9.100
14635WAT     H244148   7.850   3.099   9.182
14636WAT      O44149   7.985   3.998   5.492
14636WAT     H144150   8.053   4.061   5.453
14636WAT     H244151   8.032   3.921   5.535
14637WAT      O44152   6.187   2.302   0.077
14637WAT     H144153   6.222   2.260  -0.007
14637WAT     H244154   6.087   2.312   0.070
14638WAT      O44155   1.570   8.720   0.966
14638WAT     H144156   1.587   8.655   1.040
14638WAT     H244157   1.548   8.670   0.882
14639WAT      O44158   5.075   1.568   9.507
14639WAT     H144159   5.073   1.489   9.446
14639WAT     H244160   4.984   1.583   9.545
14640WAT      O44161   9.533   9.384   7.303
14640WAT     H144162   9.623   9.424   7.287
14640WAT     H244163   9.479   9.388   7.218
14641WAT      O44164   2.214   7.576   6.723
14641WAT     H144165   2.272   7.600   6.801
14641WAT     H244166   2.211   7.652   6.659
14642WAT      O44167   7.375   2.897   7.359
14642WAT     H144168   7.388   2.982   7.410
14642WAT     H244169   7.368   2.917   7.261
14643WAT      O44170   9.082   9.664   9.080
14643WAT     H144171   9.014   9.737   9.080
14643WAT     H244172   9.132   9.666   8.994
14644WAT      O44173   7.105   2.442   2.980
14644WAT     H144174   7.125   2.345   2.998
14644WAT     H244175   7.148   2.498   3.051
14645WAT      O44176   6.277   4.743   5.758
14645WAT     H144177   6.199   4.736   5.696
14645WAT     H244178   6.334   4.821   5.732
14646WAT      O44179   9.834   9.273   2.068
14646WAT     H144180   9.859   9.176   2.060
14646WAT     H244181   9.916   9.327   2.090
14647WAT      O44182   9.393   2.850   9.710
14647WAT     H144183   9.360   2.763   9.672
14647WAT     H244184   9.349   2.926   9.661
14648WAT      O44185   3.629   1.587   2.655
14648WAT     H144186   3.697   1.537   2.709
14648WAT     H244187   3.653   1.582   2.558
14649WAT      O44188   3.272   2.018   8.686
14649WAT     H144189   3.197   1.960   8.654
14649WAT     H244190   3.298   1.991   8.779
14650WAT      O44191   7.840   7.834   6.246
14650WAT     H144192   7.925   7.868   6.206
14650WAT     H244193   7.764   7.894   6.219
14651WAT      O44194   6.014   5.579   3.185
14651WAT     H144195   5.956   5.502   3.211
14651WAT     H244196   5.995   5.657   3.245
14652WAT      O44197   0.587   9.564   5.037
14652WAT     H144198   0.642   9.648   5.044
14652WAT     H244199   0.493   9.584   5.065
14653WAT      O44200   8.172   9.597   6.905
14653WAT     H144201   8.098   9.531   6.915
14653WAT     H244202   8.199   9.631   6.995
14654WAT      O44203   0.318   7.076   0.353
14654WAT     H144204   0.244   7.121   0.303
14654WAT     H244205   0.395   7.058   0.290
14655WAT      O44206   9.423   8.447   0.732
14655WAT     H144207   9.357   8.494   0.673
14655WAT     H244208   9.475   8.514   0.785
14656WAT      O44209   3.812   0.182   3.756
14656WAT     H144210   3.876   0.126   3.809
14656WAT     H244211   3.734   0.207   3.815
14657WAT      O44212   9.835   0.812   7.937
14657WAT     H144213   9.788   0.736   7.891
14657WAT     H244214   9.768   0.880   7.967
14658WAT      O44215   3.688   8.078   0.462
14658WAT     H144216   3.718   8.171   0.442
14658WAT     H244217   3.642   8.040   0.382
14659WAT      O44218   5.875   1.425   2.052
14659WAT     H144219   5.850   1.509   2.099
14659WAT     H244220   5.870   1.348   2.116
14660WAT      O44221   4.174   0.685   4.404
14660WAT     H144222   4.213   0.777   4.400
14660WAT     H244223   4.100   0.677   4.338
14661WAT      O44224   0.592   6.377   0.990
14661WAT     H144225   0.662   6.413   1.051
14661WAT     H244226   0.634   6.353   0.902
14662WAT      O44227   4.185   5.583   0.844
14662WAT     H144228   4.232   5.655   0.896
14662WAT     H244229   4.167   5.505   0.904
14663WAT      O44230   0.432   4.996   3.652
14663WAT     H144231   0.406   5.092   3.655
14663WAT     H244232   0.410   4.958   3.562
14664WAT      O44233   2.117   3.719   9.062
14664WAT     H144234   2.061   3.726   9.145
14664WAT     H244235   2.196   3.781   9.069
14665WAT      O44236   9.409   2.331   6.753
14665WAT     H144237   9.475   2.405   6.738
14665WAT     H244238   9.441   2.272   6.827
14666WAT      O44239   9.712   8.375   6.894
14666WAT     H144240   9.694   8.463   6.851
14666WAT     H244241   9.706   8.303   6.826
14667WAT      O44242   9.211   3.985   8.602
14667WAT     H144243   9.123   4.016   8.640
14667WAT     H244244   9.233   3.895   8.639
14668WAT      O44245   5.829   1.654   3.040
14668WAT     H144246   5.876   1.573   3.006
14668WAT     H244247   5.797   1.638   3.133
14669WAT      O44248   5.960   4.552   5.106
14669WAT     H144249   5.990   4.509   5.021
14669WAT     H244250   5.884   4.614   5.087
14670WAT      O44251   7.657   0.406   0.330
14670WAT     H144252   7.684   0.458   0.249
14670WAT     H244253   7.651   0.309   0.307
14671WAT      O44254   9.660   8.773   0.394
14671WAT     H144255   9.717   8.816   0.324
14671WAT     H244256   9.675   8.819   0.482
14672WAT      O44257   6.806   1.474   0.165
14672WAT     H144258   6.860   1.425   0.232
14672WAT     H244259   6.823   1.572   0.174
14673WAT      O44260   0.628   3.745   9.000
14673WAT     H144261   0.620   3.676   8.928
14673WAT     H244262   0.543   3.797   9.006
14674WAT      O44263   4.130   2.082   4.668
14674WAT     H144264   4.152   2.036   4.755
14674WAT     H244265   4.198   2.154   4.651
14675WAT      O44266   1.068   1.549   8.854
14675WAT     H144267   1.156   1.568   8.897
14675WAT     H244268   0.999   1.531   8.925
14676WAT      O44269   2.649   7.063   4.738
14676WAT     H144270   2.693   7.150   4.760
14676WAT     H244271   2.566   7.080   4.685
14677WAT      O44272   0.247   5.979   1.357
14677WAT     H144273   0.323   5.930   1.400
14677WAT     H244274   0.183   5.914   1.318
14678WAT      O44275   5.434   3.019   7.615
14678WAT     H144276   5.429   3.087   7.542
14678WAT     H244277   5.342   2.987   7.638
14679WAT      O44278   3.743   4.491   4.655
14679WAT     H144279   3.779   4.570   4.705
14679WAT     H244280   3.643   4.499   4.648
14680WAT      O44281   3.164   7.638   9.468
14680WAT     H144282   3.136   7.733   9.482
14680WAT     H244283   3.150   7.586   9.553
14681WAT      O44284   9.519   5.561   9.551
14681WAT     H144285   9.549   5.655   9.535
14681WAT     H244286   9.435   5.561   9.604
14682WAT      O44287   8.455   5.215   2.246
14682WAT     H144288   8.529   5.217   2.314
14682WAT     H244289   8.450   5.303   2.200
14683WAT      O44290   0.639   0.470   6.826
14683WAT     H144291   0.654   0.373   6.845
14683WAT     H244292   0.559   0.480   6.767
14684WAT      O44293   5.706   5.450   6.389
14684WAT     H144294   5.682   5.547   6.397
14684WAT     H244295   5.664   5.412   6.307
14685WAT      O44296   8.818   3.887   3.243
14685WAT     H144297   8.857   3.909   3.153
14685WAT     H244298   8.742   3.949   3.263
14686WAT      O44299   3.446   8.513   3.848
14686WAT     H144300   3.396   8.582   3.796
14686WAT     H244301   3.382   8.451   3.892
14687WAT      O44302   6.411   0.619   3.594
14687WAT     H144303   6.469   0.614   3.513
14687WAT     H244304   6.466   0.598   3.675
14688WAT      O44305   5.593   3.226   6.181
14688WAT     H144306   5.496   3.221   6.157
14688WAT     H244307   5.642   3.154   6.134
14689WAT      O44308   3.947   9.132   2.707
14689WAT     H144309   3.853   9.099   2.695
14689WAT     H244310   3.986   9.091   2.789
14690WAT      O44311   6.763   9.399   3.806
14690WAT     H144312   6.803   9.412   3.716
14690WAT     H244313   6.811   9.326   3.854
14691WAT      O44314   0.934   2.335   4.791
14691WAT     H144315   0.882   2.253   4.769
14691WAT     H244316   0.885   2.389   4.859
14692WAT      O44317   8.897   8.500   5.353
14692WAT     H144318   8.824   8.487   5.420
14692WAT     H244319   8.894   8.594   5.319
14693WAT      O44320   3.370   0.668   7.235
14693WAT     H144321   3.270   0.659   7.239
14693WAT     H244322   3.397   0.698   7.144
14694WAT      O44323   0.965   9.733   1.118
14694WAT     H144324   0.898   9.795   1.160
14694WAT     H244325   0.926   9.695   1.034
14695WAT      O44326   5.205   7.207   2.700
14695WAT     H144327   5.188   7.187   2.797
14695WAT     H244328   5.119   7.232   2.656
14696WAT      O44329   8.031   1.947   6.521
14696WAT     H144330   8.073   2.037   6.511
14696WAT     H244331   7.932   1.956   6.524
14697WAT      O44332   6.900   3.269   2.976
14697WAT     H144333   6.953   3.223   3.047
14697WAT     H244334   6.939   3.248   2.886
14698WAT      O44335   3.832   1.434   3.889
14698WAT     H144336   3.749   1.468   3.934
14698WAT     H244337   3.838   1.335   3.901
14699WAT      O44338   3.241   3.810   2.666
14699WAT     H144339   3.141   3.816   2.672
14699WAT     H244340   3.266   3.735   2.605
14700WAT      O44341   2.584   7.299   1.251
14700WAT     H144342   2.550   7.209   1.278
14700WAT     H244343   2.682   7.293   1.231
14701WAT      O44344   6.186   6.566   5.614
14701WAT     H144345   6.200   6.631   5.539
14701WAT     H244346   6.240   6.484   5.597
14702WAT      O44347   3.785   4.755   4.439
14702WAT     H144348   3.687   4.767   4.459
14702WAT     H244349   3.826   4.843   4.417
14703WAT      O44350   1.824   2.564   9.689
14703WAT     H144351   1.782   2.595   9.774
14703WAT     H244352   1.843   2.642   9.630
14704WAT      O44353   9.290   1.140   5.124
14704WAT     H144354   9.194   1.161   5.108
14704WAT     H244355   9.345   1.222   5.113
14705WAT      O44356   5.313   2.163   9.548
14705WAT     H144357   5.224   2.126   9.575
14705WAT     H244358   5.334   2.133   9.455
14706WAT      O44359   2.069   9.620   3.727
14706WAT     H144360   2.140   9.675   3.683
14706WAT     H244361   2.110   9.536   3.763
14707WAT      O44362   5.604   6.646   2.036
14707WAT     H144363   5.551   6.693   2.107
14707WAT     H244364   5.553   6.566   2.005
14708WAT      O44365   5.529   7.622   7.285
14708WAT     H144366   5.506   7.602   7.381
14708WAT     H244367   5.576   7.710   7.280
14709WAT      O44368   3.043   3.812   2.955
14709WAT     H144369   3.018   3.798   2.859
14709WAT     H244370   3.120   3.752   2.979
14710WAT      O44371   8.769   2.445   0.177
14710WAT     H144372   8.848   2.388   0.201
14710WAT     H244373   8.765   2.456   0.077
14711WAT      O44374   5.292   8.607   6.097
14711WAT     H144375   5.221   8.677   6.105
14711WAT     H244376   5.261   8.522   6.138
14712WAT      O44377   7.257   3.535   8.737
14712WAT     H144378   7.175   3.592   8.736
14712WAT     H244379   7.245   3.459   8.673
14713WAT      O44380   4.844   7.310   6.864
14713WAT     H144381   4.880   7.270   6.949
14713WAT     H244382   4.837   7.409   6.874
14714WAT      O44383   0.374   1.234   3.032
14714WAT     H144384   0.292   1.213   3.085
14714WAT     H244385   0.455   1.200   3.079
14715WAT      O44386   5.329   4.087   9.562
14715WAT     H144387   5.239   4.044   9.568
14715WAT     H244388   5.382   4.062   9.643
14716WAT      O44389   0.896   3.776   7.367
14716WAT     H144390   0.878   3.869   7.399
14716WAT     H244391   0.810   3.726   7.361
14717WAT      O44392   0.012   9.487   5.603
14717WAT     H144393   0.071   9.561   5.635
14717WAT     H244394   0.056   9.440   5.526
14718WAT      O44395   1.068   3.221   2.765
14718WAT     H144396   1.066   3.220   2.865
14718WAT     H244397   0.995   3.281   2.731
14719WAT      O44398   7.367   4.893   9.668
14719WAT     H144399   7.454   4.870   9.624
14719WAT     H244400   7.382   4.914   9.765
14720WAT      O44401   5.621   2.554   1.372
14720WAT     H144402   5.714   2.589   1.374
14720WAT     H244403   5.557   2.628   1.395
14721WAT      O44404   1.627   0.352   5.306
14721WAT     H144405   1.588   0.385   5.220
14721WAT     H244406   1.653   0.255   5.296
14722WAT      O44407   8.476   8.036   7.727
14722WAT     H144408   8.390   8.006   7.768
14722WAT     H244409   8.488   7.992   7.638
14723WAT      O44410   8.163   5.199   1.163
14723WAT     H144411   8.094   5.131   1.138
14723WAT     H244412   8.251   5.173   1.124
14724WAT      O44413   3.308   6.685   9.697
14724WAT     H144414   3.372   6.684   9.773
14724WAT     H244415   3.226   6.632   9.722
14725WAT      O44416   1.754   4.516   9.243
14725WAT     H144417   1.742   4.587   9.313
14725WAT     H244418   1.829   4.542   9.182
14726WAT      O44419   4.991   0.852   8.068
14726WAT     H144420   5.077   0.877   8.025
14726WAT     H244421   5.008   0.807   8.156
14727WAT      O44422   6.637   5.673   9.866
14727WAT     H144423   6.701   5.741   9.902
14727WAT     H244424   6.553   5.673   9.922
14728WAT      O44425   7.555   5.863   1.217
14728WAT     H144426   7.642   5.868   1.169
14728WAT     H244427   7.495   5.797   1.173
14729WAT      O44428   2.258   6.617   5.819
14729WAT     H144429   2.300   6.569   5.896
14729WAT     H244430   2.192   6.557   5.774
14730WAT      O44431   8.139   2.479   2.023
14730WAT     H144432   8.080   2.422   2.081
14730WAT     H244433   8.215   2.423   1.989
14731WAT      O44434   4.238   9.683   8.497
14731WAT     H144435   4.255   9.654   8.403
14731WAT     H244436   4.256   9.607   8.559
14732WAT      O44437   9.047   3.753   0.047
14732WAT     H144438   9.086   3.667   0.081
14732WAT     H244439   8.948   3.752   0.060
14733WAT      O44440   1.417   3.583   4.202
14733WAT     H144441   1.419   3.682   4.220
14733WAT     H244442   1.357   3.565   4.124
14734WAT      O44443   8.201   8.438   9.478
14734WAT     H144444   8.165   8.370   9.415
14734WAT     H244445   8.221   8.522   9.428
14735WAT      O44446   3.781   8.999   6.298
14735WAT     H144447   3.710   9.052   6.252
14735WAT     H244448   3.804   8.919   6.242
14736WAT      O44449   6.143   9.567   6.452
14736WAT     H144450   6.196   9.518   6.521
14736WAT     H244451   6.195   9.647   6.420
14737WAT      O44452   8.469   4.131   5.722
14737WAT     H144453   8.428   4.112   5.633
14737WAT     H244454   8.569   4.130   5.713
14738WAT      O44455   1.103   9.344   0.132
14738WAT     H144456   1.147   9.254   0.139
14738WAT     H244457   1.142   9.394   0.055
14739WAT      O44458   1.788   6.894   8.569
14739WAT     H144459   1.812   6.983   8.531
14739WAT     H244460   1.770   6.830   8.494
14740WAT      O44461   9.098   6.968   2.698
14740WAT     H144462   9.010   7.015   2.691
14740WAT     H244463   9.115   6.943   2.793
14741WAT      O44464   0.070   9.432   4.830
14741WAT     H144465   0.019   9.427   4.744
14741WAT     H244466   0.019   9.488   4.895
14742WAT      O44467   8.244   9.090   0.664
14742WAT     H144468   8.279   9.135   0.746
14742WAT     H244469   8.213   9.160   0.599
14743WAT      O44470   9.843   7.781   3.163
14743WAT     H144471   9.879   7.789   3.256
14743WAT     H244472   9.744   7.769   3.166
14744WAT      O44473   0.799   9.692   2.362
14744WAT     H144474   0.832   9.628   2.432
14744WAT     H244475   0.797   9.646   2.273
14745WAT      O44476   0.114   7.783   7.794
14745WAT     H144477   0.045   7.730   7.842
14745WAT     H244478   0.199   7.730   7.790
14746WAT      O44479   2.386   0.480   2.529
14746WAT     H144480   2.399   0.496   2.431
14746WAT     H244481   2.374   0.382   2.546
14747WAT      O44482   4.389   1.477   9.583
14747WAT     H144483   4.385   1.558   9.642
14747WAT     H244484   4.300   1.465   9.538
14748WAT      O44485   2.878   0.156   5.621
14748WAT     H144486   2.907   0.091   5.551
14748WAT     H244487   2.950   0.167   5.688
14749WAT      O44488   5.369   1.613   4.111
14749WAT     H144489   5.389   1.696   4.059
14749WAT     H244490   5.434   1.541   4.086
14750WAT      O44491   1.699   0.287   3.097
14750WAT     H144492   1.767   0.246   3.158
14750WAT     H244493   1.671   0.221   3.028
14751WAT      O44494   1.465   2.057   0.262
14751WAT     H144495   1.415   2.092   0.183
14751WAT     H244496   1.542   2.117   0.281
14752WAT      O44497   8.077   5.085   4.740
14752WAT     H144498   8.068   5.007   4.802
14752WAT     H244499   8.045   5.168   4.786
14753WAT      O44500   5.531   0.301   4.289
14753WAT     H144501   5.623   0.288   4.325
14753WAT     H244502   5.500   0.394   4.310
14754WAT      O44503   3.264   5.009   1.184
14754WAT     H144504   3.322   4.937   1.222
14754WAT     H244505   3.299   5.098   1.212
14755WAT      O44506   5.891   4.094   8.627
14755WAT     H144507   5.943   4.067   8.708
14755WAT     H244508   5.860   4.188   8.638
14756WAT      O44509   6.084   5.416   4.373
14756WAT     H144510   6.104   5.417   4.275
14756WAT     H244511   6.070   5.322   4.404
14757WAT      O44512   0.483   9.262   9.379
14757WAT     H144513   0.399   9.213   9.355
14757WAT     H244514   0.530   9.213   9.453
14758WAT      O44515   8.719   9.343   0.286
14758WAT     H144516   8.742   9.247   0.270
14758WAT     H244517   8.766   9.376   0.368
14759WAT      O44518   8.678   3.239   3.686
14759WAT     H144519   8.762   3.187   3.698
14759WAT     H244520   8.600   3.181   3.708
14760WAT      O44521   9.660   6.745   1.379
14760WAT     H144522   9.605   6.722   1.459
14760WAT     H244523   9.752   6.773   1.408
14761WAT      O44524   5.945   0.664   3.669
14761WAT     H144525   5.927   0.692   3.575
14761WAT     H244526   5.864   0.619   3.707
14762WAT      O44527   9.236   4.710   2.369
14762WAT     H144528   9.254   4.618   2.406
14762WAT     H244529   9.315   4.741   2.317
14763WAT      O44530   2.102   0.290   8.102
14763WAT     H144531   2.137   0.295   8.195
14763WAT     H244532   2.079   0.381   8.069
14764WAT      O44533   7.538   0.968   8.771
14764WAT     H144534   7.614   0.995   8.712
14764WAT     H244535   7.566   0.891   8.829
14765WAT      O44536   2.054   3.723   0.975
14765WAT     H144537   1.993   3.771   0.912
14765WAT     H244538   2.029   3.747   1.069
14766WAT      O44539   8.634   2.154   1.728
14766WAT     H144540   8.544   2.180   1.761
14766WAT     H244541   8.644   2.184   1.633
14767WAT      O44542   7.071   1.273   3.606
14767WAT     H144543   7.151   1.251   3.550
14767WAT     H244544   7.094   1.347   3.670
14768WAT      O44545   4.234   1.821   4.468
14768WAT     H144546   4.264   1.768   4.547
14768WAT     H244547   4.134   1.816   4.461
14769WAT      O44548   8.520   5.783   8.128
14769WAT     H144549   8.611   5.775   8.088
14769WAT     H244550   8.519   5.860   8.192
14770WAT      O44551   0.826   3.652   5.608
14770WAT     H144552   0.829   3.741   5.652
14770WAT     H244553   0.744   3.645   5.552
14771WAT      O44554   2.165   9.142   5.954
14771WAT     H144555   2.198   9.084   6.028
14771WAT     H244556   2.109   9.216   5.992
14772WAT      O44557   8.521   7.782   7.857
14772WAT     H144558   8.427   7.816   7.868
14772WAT     H244559   8.584   7.860   7.856
14773WAT      O44560   3.784   5.187   1.561
14773WAT     H144561   3.737   5.143   1.638
14773WAT     H244562   3.858   5.128   1.529
14774WAT      O44563   1.665   2.358   1.293
14774WAT     H144564   1.630   2.414   1.368
14774WAT     H244565   1.603   2.365   1.214
14775WAT      O44566   5.021   1.318   0.216
14775WAT     H144567   5.113   1.331   0.180
14775WAT     H244568   4.955   1.369   0.161
14776WAT      O44569   9.180   3.049   5.183
14776WAT     H144570   9.190   3.146   5.205
14776WAT     H244571   9.218   2.994   5.257
14777WAT      O44572   0.903   8.793   0.159
14777WAT     H144573   0.838   8.718   0.171
14777WAT     H244574   0.989   8.770   0.205
14778WAT      O44575   8.274   8.133   2.602
14778WAT     H144576   8.322   8.097   2.522
14778WAT     H244577   8.217   8.211   2.575
14779WAT      O44578   7.575   6.440   4.435
14779WAT     H144579   7.498   6.479   4.485
14779WAT     H244580   7.609   6.359   4.483
14780WAT      O44581   6.562   5.338   3.195
14780WAT     H144582   6.493   5.283   3.242
14780WAT     H244583   6.555   5.433   3.226
14781WAT      O44584   3.047   1.273   6.577
14781WAT     H144585   2.949   1.290   6.570
14781WAT     H244586   3.066   1.218   6.658
14782WAT      O44587   3.584   7.158   2.882
14782WAT     H144588   3.504   7.106   2.913
14782WAT     H244589   3.643   7.098   2.828
14783WAT      O44590   0.162   4.288   3.031
14783WAT     H144591   0.243   4.252   3.078
14783WAT     H244592   0.153   4.386   3.049
14784WAT      O44593   3.063   0.049   0.340
14784WAT     H144594   3.039   0.086   0.251
14784WAT     H244595   2.981   0.010   0.383
14785WAT      O44596   5.527   5.770   8.070
14785WAT     H144597   5.530   5.733   7.978
14785WAT     H244598   5.601   5.731   8.125
14786WAT      O44599   1.432   6.327   7.997
14786WAT     H144600   1.388   6.324   8.087
14786WAT     H244601   1.385   6.393   7.938
14787WAT      O44602   0.769   5.210   2.964
14787WAT     H144603   0.839   5.198   2.895
14787WAT     H244604   0.706   5.282   2.936
14788WAT      O44605   4.714   9.342   8.264
14788WAT     H144606   4.789   9.408   8.262
14788WAT     H244607   4.689   9.318   8.171
14789WAT      O44608   2.833   8.254   3.141
14789WAT     H144609   2.741   8.277   3.109
14789WAT     H244610   2.899   8.275   3.070
14790WAT      O44611   6.458   2.188   6.712
14790WAT     H144612   6.462   2.149   6.620
14790WAT     H244613   6.506   2.128   6.777
14791WAT      O44614   3.749   4.994   7.762
14791WAT     H144615   3.735   5.089   7.736
14791WAT     H244616   3.757   4.986   7.861
14792WAT      O44617   2.423   2.088   7.828
14792WAT     H144618   2.482   2.169   7.824
14792WAT     H244619   2.460   2.023   7.894
14793WAT      O44620   5.695   6.483   7.594
14793WAT     H144621   5.707   6.581   7.611
14793WAT     H244622   5.599   6.458   7.610
14794WAT      O44623   3.944   9.703   7.921
14794WAT     H144624   3.954   9.626   7.984
14794WAT     H244625   4.018   9.768   7.936
14795WAT      O44626   8.725   4.510   6.594
14795WAT     H144627   8.724   4.421   6.640
14795WAT     H244628   8.814   4.554   6.609
14796WAT      O44629   3.052   1.338   1.464
14796WAT     H144630   2.961   1.314   1.431
14796WAT     H244631   3.108   1.369   1.387
14797WAT      O44632   8.211   9.315   1.564
14797WAT     H144633   8.124   9.270   1.546
14797WAT     H244634   8.265   9.320   1.480
14798WAT      O44635   4.156   5.481   2.296
14798WAT     H144636   4.070   5.494   2.346
14798WAT     H244637   4.230   5.463   2.361
14799WAT      O44638   2.084   5.677   7.569
14799WAT     H144639   2.132   5.590   7.558
14799WAT     H244640   2.103   5.736   7.490
14800WAT      O44641   1.270   5.751   8.653
14800WAT     H144642   1.185   5.700   8.672
14800WAT     H244643   1.304   5.725   8.562
14801WAT      O44644   8.246   1.413   9.521
14801WAT     H144645   8.325   1.447   9.572
14801WAT     H244646   8.263   1.422   9.423
14802WAT      O44647   7.224   0.266   3.984
14802WAT     H144648   7.149   0.271   3.918
14802WAT     H244649   7.194   0.303   4.071
14803WAT      O44650   3.985   2.855   3.676
14803WAT     H144651   4.040   2.938   3.689
14803WAT     H244652   3.921   2.846   3.752
14804WAT      O44653   4.768   6.321   8.041
14804WAT     H144654   4.715   6.399   8.076
14804WAT     H244655   4.730   6.236   8.078
14805WAT      O44656   5.921   6.400   5.637
14805WAT     H144657   5.848   6.468   5.623
14805WAT     H244658   6.009   6.441   5.615
14806WAT      O44659   4.791   9.296   3.029
14806WAT     H144660   4.851   9.217   3.024
14806WAT     H244661   4.844   9.380   3.014
14807WAT      O44662   4.100   9.286   0.254
14807WAT     H144663   4.039   9.269   0.177
14807WAT     H244664   4.133   9.380   0.250
14808WAT      O44665   3.647   6.669   6.534
14808WAT     H144666   3.708   6.691   6.610
14808WAT     H244667   3.694   6.688   6.448
14809WAT      O44668   7.209   9.735   5.846
14809WAT     H144669   7.207   9.708   5.750
14809WAT     H244670   7.247   9.827   5.854
14810WAT      O44671   7.874   6.626   3.193
14810WAT     H144672   7.783   6.596   3.222
14810WAT     H244673   7.866   6.680   3.109
14811WAT      O44674   8.369   8.537   2.696
14811WAT     H144675   8.301   8.543   2.623
14811WAT     H244676   8.433   8.614   2.688
14812WAT      O44677   1.685   9.607   4.697
14812WAT     H144678   1.689   9.524   4.642
14812WAT     H244679   1.614   9.597   4.767
14813WAT      O44680   5.701   0.503   4.536
14813WAT     H144681   5.787   0.541   4.503
14813WAT     H244682   5.716   0.410   4.570
14814WAT      O44683   1.576   8.104   5.564
14814WAT     H144684   1.666   8.107   5.607
14814WAT     H244685   1.567   8.021   5.508
14815WAT      O44686   4.815   9.419   1.153
14815WAT     H144687   4.849   9.326   1.161
14815WAT     H244688   4.804   9.442   1.056
14816WAT      O44689   5.555   5.716   7.791
14816WAT     H144690   5.469   5.743   7.747
14816WAT     H244691   5.622   5.692   7.721
14817WAT      O44692   9.092   4.029   1.939
14817WAT     H144693   9.160   3.965   1.904
14817WAT     H244694   9.108   4.044   2.037
14818WAT      O44695   2.218   6.356   0.373
14818WAT     H144696   2.232   6.264   0.338
14818WAT     H244697   2.277   6.420   0.324
14819WAT      O44698   1.836   5.425   7.410
14819WAT     H144699   1.846   5.523   7.425
14819WAT     H244700   1.918   5.390   7.364
14820WAT      O44701   9.201   5.505   0.906
14820WAT     H144702   9.193   5.406   0.918
14820WAT     H244703   9.239   5.525   0.816
14821WAT      O44704   5.145   3.265   3.542
14821WAT     H144705   5.173   3.227   3.454
14821WAT     H244706   5.208   3.338   3.568
14822WAT      O44707   8.282   2.093   1.369
14822WAT     H144708   8.319   2.133   1.452
14822WAT     H244709   8.245   2.166   1.311
14823WAT      O44710   0.134   4.944   9.499
14823WAT     H144711   0.224   4.968   9.535
14823WAT     H244712   0.141   4.859   9.446
14824WAT      O44713   4.981   3.435   5.583
14824WAT     H144714   4.999   3.396   5.493
14824WAT     H244715   5.023   3.378   5.654
14825WAT      O44716   9.162   0.208   6.718
14825WAT     H144717   9.063   0.196   6.717
14825WAT     H244718   9.194   0.228   6.625
14826WAT      O44719   3.124   4.347   7.167
14826WAT     H144720   3.206   4.375   7.119
14826WAT     H244721   3.141   4.348   7.266
14827WAT      O44722   1.662   9.135   5.633
14827WAT     H144723   1.693   9.044   5.661
14827WAT     H244724   1.588   9.165   5.693
14828WAT      O44725   8.338   4.193   7.444
14828WAT     H144726   8.342   4.218   7.541
14828WAT     H244727   8.243   4.173   7.419
14829WAT      O44728   2.461   7.880   5.895
14829WAT     H144729   2.448   7.856   5.991
14829WAT     H244730   2.386   7.939   5.864
14830WAT      O44731   3.452   6.352   7.633
14830WAT     H144732   3.418   6.415   7.703
14830WAT     H244733   3.382   6.284   7.612
14831WAT      O44734   8.106   7.488   2.331
14831WAT     H144735   8.155   7.539   2.401
14831WAT     H244736   8.084   7.549   2.254
14832WAT      O44737   8.718   2.742   4.454
14832WAT     H144738   8.715   2.648   4.420
14832WAT     H244739   8.708   2.741   4.554
14833WAT      O44740   8.478   4.350   3.559
14833WAT     H144741   8.532   4.270   3.585
14833WAT     H244742   8.531   4.408   3.496
14834WAT      O44743   4.459   4.899   2.097
14834WAT     H144744   4.423   4.831   2.161
14834WAT     H244745   4.487   4.853   2.013
14835WAT      O44746   7.652   3.189   2.892
14835WAT     H144747   7.644   3.105   2.839
14835WAT     H244748   7.564   3.211   2.934
14836WAT      O44749   6.598   7.927   2.704
14836WAT     H144750   6.634   8.020   2.697
14836WAT     H244751   6.498   7.930   2.712
14837WAT      O44752   3.005   6.292   8.123
14837WAT     H144753   3.025   6.272   8.219
14837WAT     H244754   2.954   6.378   8.117
14838WAT      O44755   1.415   8.643   8.513
14838WAT     H144756   1.494   8.590   8.482
14838WAT     H244757   1.332   8.587   8.505
14839WAT      O44758   2.933   4.934   6.415
14839WAT     H144759   3.022   4.900   6.386
14839WAT     H244760   2.889   4.866   6.474
14840WAT      O44761   0.855   0.078   8.741
14840WAT     H144762   0.932   0.057   8.802
14840WAT     H244763   0.771   0.084   8.795
14841WAT      O44764   2.544   2.505   7.224
14841WAT     H144765   2.471   2.437   7.221
14841WAT     H244766   2.617   2.472   7.284
14842WAT      O44767   7.322   4.564   6.867
14842WAT     H144768   7.311   4.589   6.963
14842WAT     H244769   7.234   4.534   6.830
14843WAT      O44770   0.664   5.043   7.153
14843WAT     H144771   0.588   5.103   7.127
14843WAT     H244772   0.660   4.960   7.098
14844WAT      O44773   8.034   2.483   4.272
14844WAT     H144774   8.114   2.424   4.272
14844WAT     H244775   8.063   2.578   4.261
14845WAT      O44776   8.929   0.158   1.466
14845WAT     H144777   8.947   0.168   1.564
14845WAT     H244778   8.903   0.064   1.445
14846WAT      O44779   8.448   1.918   3.132
14846WAT     H144780   8.377   1.978   3.168
14846WAT     H244781   8.426   1.823   3.154
14847WAT      O44782   1.723   9.185   9.636
14847WAT     H144783   1.808   9.235   9.652
14847WAT     H244784   1.731   9.129   9.553
14848WAT      O44785   8.433   9.489   5.414
14848WAT     H144786   8.370   9.503   5.336
14848WAT     H244787   8.410   9.403   5.460
14849WAT      O44788   2.320   1.612   4.613
14849WAT     H144789   2.359   1.659   4.534
14849WAT     H244790   2.276   1.527   4.583
14850WAT      O44791   6.107   0.221   1.430
14850WAT     H144792   6.082   0.310   1.391
14850WAT     H244793   6.156   0.235   1.516
14851WAT      O44794   8.914   1.914   6.791
14851WAT     H144795   8.894   1.876   6.881
14851WAT     H244796   8.920   1.841   6.723
14852WAT      O44797   7.903   0.385   7.862
14852WAT     H144798   7.945   0.313   7.807
14852WAT     H244799   7.910   0.361   7.959
14853WAT      O44800   1.739   3.577   4.415
14853WAT     H144801   1.827   3.534   4.391
14853WAT     H244802   1.720   3.651   4.350
14854WAT      O44803   6.538   7.538   3.877
14854WAT     H144804   6.521   7.469   3.947
14854WAT     H244805   6.552   7.627   3.920
14855WAT      O44806   6.382   9.200   6.216
14855WAT     H144807   6.401   9.102   6.223
14855WAT     H244808   6.328   9.230   6.295
14856WAT      O44809   5.242   7.435   7.388
14856WAT     H144810   5.210   7.527   7.368
14856WAT     H244811   5.233   7.418   7.487
14857WAT      O44812   6.381   0.839   8.918
14857WAT     H144813   6.370   0.938   8.915
14857WAT     H244814   6.315   0.800   8.983
14858WAT      O44815   1.726   7.145   1.650
14858WAT     H144816   1.631   7.159   1.621
14858WAT     H244817   1.743   7.199   1.733
14859WAT      O44818   3.557   2.340   6.588
14859WAT     H144819   3.582   2.401   6.512
14859WAT     H244820   3.530   2.251   6.551
14860WAT      O44821   3.143   1.290   7.192
14860WAT     H144822   3.149   1.230   7.271
14860WAT     H244823   3.082   1.250   7.124
14861WAT      O44824   1.663   2.080   8.378
14861WAT     H144825   1.711   2.024   8.310
14861WAT     H244826   1.586   2.127   8.335
14862WAT      O44827   9.851   5.292   1.685
14862WAT     H144828   9.847   5.363   1.614
14862WAT     H244829   9.944   5.255   1.691
14863WAT      O44830   2.784   2.267   4.004
14863WAT     H144831   2.819   2.345   3.952
14863WAT     H244832   2.837   2.185   3.981
14864WAT      O44833   7.222   4.611   2.334
14864WAT     H144834   7.235   4.557   2.251
14864WAT     H244835   7.306   4.608   2.389
14865WAT      O44836   7.145   5.345   1.739
14865WAT     H144837   7.129   5.303   1.828
14865WAT     H244838   7.221   5.299   1.694
14866WAT      O44839   3.297   7.775   5.722
14866WAT     H144840   3.394   7.752   5.711
14866WAT     H244841   3.264   7.821   5.640
14867WAT      O44842   0.149   0.819   0.848
14867WAT     H144843   0.189   0.870   0.925
14867WAT     H244844   0.146   0.878   0.768
14868WAT      O44845   1.914   8.789   3.170
14868WAT     H144846   2.001   8.806   3.122
14868WAT     H244847   1.859   8.725   3.117
14869WAT      O44848   1.124   8.958   2.908
14869WAT     H144849   1.132   8.860   2.889
14869WAT     H244850   1.038   8.992   2.871
14870WAT      O44851   6.382   8.704   1.164
14870WAT     H144852   6.330   8.714   1.079
14870WAT     H244853   6.472   8.663   1.143
14871WAT      O44854   0.086   3.694   3.030
14871WAT     H144855   0.174   3.699   2.984
14871WAT     H244856   0.069   3.779   3.080
14872WAT      O44857   1.552   7.800   4.191
14872WAT     H144858   1.624   7.740   4.225
14872WAT     H244859   1.584   7.895   4.196
14873WAT      O44860   6.541   4.409   4.296
14873WAT     H144861   6.521   4.507   4.294
14873WAT     H244862   6.462   4.358   4.262
14874WAT      O44863   2.021   7.604   2.523
14874WAT     H144864   1.947   7.537   2.511
14874WAT     H244865   1.983   7.689   2.561
14875WAT      O44866   9.426   8.851   7.743
14875WAT     H144867   9.490   8.891   7.678
14875WAT     H244868   9.476   8.815   7.822
14876WAT      O44869   7.630   9.696   3.178
14876WAT     H144870   7.691   9.669   3.253
14876WAT     H244871   7.673   9.768   3.124
14877WAT      O44872   0.902   0.497   8.721
14877WAT     H144873   0.934   0.446   8.801
14877WAT     H244874   0.969   0.490   8.647
14878WAT      O44875   5.141   6.088   4.790
14878WAT     H144876   5.064   6.050   4.842
14878WAT     H244877   5.197   6.013   4.753
14879WAT      O44878   3.000   9.293   9.340
14879WAT     H144879   2.951   9.342   9.413
14879WAT     H244880   3.069   9.353   9.301
14880WAT      O44881   1.008   3.699   8.588
14880WAT     H144882   0.996   3.600   8.602
14880WAT     H244883   1.052   3.739   8.667
14881WAT      O44884   9.670   2.153   9.878
14881WAT     H144885   9.759   2.143   9.833
14881WAT     H244886   9.614   2.218   9.826
14882WAT      O44887   9.020   8.859   1.031
14882WAT     H144888   8.949   8.908   1.082
14882WAT     H244889   8.978   8.797   0.965
14883WAT      O44890   1.425   4.341   5.669
14883WAT     H144891   1.441   4.250   5.631
14883WAT     H244892   1.424   4.408   5.596
14884WAT      O44893   5.059   0.246   6.338
14884WAT     H144894   5.006   0.246   6.253
14884WAT     H244895   5.131   0.177   6.333
14885WAT      O44896   7.060   1.324   9.871
14885WAT     H144897   7.037   1.365   9.782
14885WAT     H244898   7.018   1.233   9.877
14886WAT      O44899   8.675   1.742   0.691
14886WAT     H144900   8.585   1.722   0.730
14886WAT     H244901   8.730   1.793   0.757
14887WAT      O44902   3.906   7.833   1.435
14887WAT     H144903   3.832   7.856   1.498
14887WAT     H244904   3.966   7.765   1.477
14888WAT      O44905   6.832   2.904   2.891
14888WAT     H144906   6.847   2.806   2.901
14888WAT     H244907   6.749   2.920   2.837
14889WAT      O44908   4.623   0.384   4.052
14889WAT     H144909   4.678   0.303   4.034
14889WAT     H244910   4.681   0.465   4.052
14890WAT      O44911   5.071   8.254   8.902
14890WAT     H144912   5.017   8.233   8.820
14890WAT     H244913   5.167   8.238   8.883
14891WAT      O44914   3.704   8.434   3.893
14891WAT     H144915   3.604   8.440   3.895
14891WAT     H244916   3.741   8.519   3.856
14892WAT      O44917   3.007   6.203   4.136
14892WAT     H144918   2.957   6.246   4.060
14892WAT     H244919   2.945   6.194   4.214
14893WAT      O44920   1.886   5.283   9.001
14893WAT     H144921   1.809   5.250   8.946
14893WAT     H244922   1.971   5.247   8.964
14894WAT      O44923   2.291   7.563   6.233
14894WAT     H144924   2.365   7.629   6.220
14894WAT     H244925   2.299   7.490   6.166
14895WAT      O44926   0.481   0.908   5.824
14895WAT     H144927   0.556   0.862   5.775
14895WAT     H244928   0.458   0.857   5.906
14896WAT      O44929   2.540   3.335   3.906
14896WAT     H144930   2.480   3.395   3.958
14896WAT     H244931   2.499   3.315   3.817
14897WAT      O44932   7.246   3.042   2.755
14897WAT     H144933   7.263   2.996   2.842
14897WAT     H244934   7.290   2.990   2.681
14898WAT      O44935   0.968   0.718   5.267
14898WAT     H144936   0.885   0.742   5.216
14898WAT     H244937   0.982   0.784   5.341
14899WAT      O44938   7.994   8.755   6.642
14899WAT     H144939   7.983   8.664   6.601
14899WAT     H244940   8.015   8.745   6.740
14900WAT      O44941   1.301   4.617   7.089
14900WAT     H144942   1.388   4.601   7.135
14900WAT     H244943   1.240   4.666   7.151
14901WAT      O44944   2.414   5.698   3.994
14901WAT     H144945   2.447   5.709   3.901
14901WAT     H244946   2.480   5.644   4.047
14902WAT      O44947   8.250   4.187   0.327
14902WAT     H144948   8.308   4.232   0.259
14902WAT     H244949   8.168   4.151   0.282
14903WAT      O44950   0.375   1.263   8.224
14903WAT     H144951   0.461   1.237   8.181
14903WAT     H244952   0.375   1.231   8.319
14904WAT      O44953   6.698   3.047   1.768
14904WAT     H144954   6.618   2.996   1.735
14904WAT     H244955   6.714   3.027   1.864
14905WAT      O44956   6.309   4.759   0.171
14905WAT     H144957   6.247   4.683   0.189
14905WAT     H244958   6.339   4.757   0.076
14906WAT      O44959   8.892   5.688   6.854
14906WAT     H144960   8.969   5.719   6.797
14906WAT     H244961   8.866   5.761   6.917
14907WAT      O44962   2.596   0.386   3.931
14907WAT     H144963   2.649   0.304   3.953
14907WAT     H244964   2.626   0.423   3.843
14908WAT      O44965   1.007   7.351   2.848
14908WAT     H144966   1.047   7.443   2.849
14908WAT     H244967   0.921   7.352   2.900
14909WAT      O44968   4.342   1.873   7.061
14909WAT     H144969   4.355   1.922   6.974
14909WAT     H244970   4.254   1.825   7.058
14910WAT      O44971   8.749   4.206   9.025
14910WAT     H144972   8.827   4.264   9.050
14910WAT     H244973   8.735   4.137   9.096
14911WAT      O44974   9.465   7.891   6.433
14911WAT     H144975   9.381   7.839   6.420
14911WAT     H244976   9.515   7.852   6.511
14912WAT      O44977   5.324   7.117   8.818
14912WAT     H144978   5.290   7.163   8.736
14912WAT     H244979   5.325   7.181   8.894
14913WAT      O44980   9.248   1.682   5.251
14913WAT     H144981   9.243   1.609   5.319
14913WAT     H244982   9.174   1.672   5.185
14914WAT      O44983   2.431   0.606   4.490
14914WAT     H144984   2.449   0.682   4.553
14914WAT     H244985   2.481   0.524   4.522
14915WAT      O44986   0.872   6.323   1.965
14915WAT     H144987   0.942   6.376   1.917
14915WAT     H244988   0.797   6.302   1.902
14916WAT      O44989   1.115   8.087   6.430
14916WAT     H144990   1.087   8.109   6.337
14916WAT     H244991   1.101   7.989   6.446
14917WAT      O44992   1.838   3.744   6.530
14917WAT     H144993   1.816   3.685   6.453
14917WAT     H244994   1.754   3.766   6.580
14918WAT      O44995   9.590   9.664   4.830
14918WAT     H144996   9.644   9.730   4.778
14918WAT     H244997   9.603   9.573   4.791
14919WAT      O44998   0.064   7.598   2.717
14919WAT     H144999  -0.029   7.613   2.685
14919WAT     H245000   0.064   7.592   2.817
14920WAT      O45001   8.564   7.872   6.785
14920WAT     H145002   8.519   7.951   6.745
14920WAT     H245003   8.529   7.855   6.877
14921WAT      O45004   2.149   2.735   4.376
14921WAT     H145005   2.229   2.795   4.370
14921WAT     H245006   2.158   2.660   4.311
14922WAT      O45007   5.180   2.786   2.765
14922WAT     H145008   5.209   2.700   2.806
14922WAT     H245009   5.112   2.767   2.694
14923WAT      O45010   6.302   1.113   8.918
14923WAT     H145011   6.225   1.134   8.978
14923WAT     H245012   6.371   1.186   8.926
14924WAT      O45013   5.935   9.087   4.101
14924WAT     H145014   5.871   9.036   4.159
14924WAT     H245015   5.966   9.028   4.027
14925WAT      O45016   1.676   3.933   5.917
14925WAT     H145017   1.621   3.988   5.980
14925WAT     H245018   1.709   3.991   5.843
14926WAT      O45019   6.202   6.866   6.693
14926WAT     H145020   6.231   6.781   6.737
14926WAT     H245021   6.247   6.875   6.605
14927WAT      O45022   8.087   2.939   7.390
14927WAT     H145023   8.040   2.856   7.362
14927WAT     H245024   8.021   3.005   7.425
14928WAT      O45025   1.472   6.479   3.259
14928WAT     H145026   1.448   6.389   3.220
14928WAT     H245027   1.536   6.467   3.334
14929WAT      O45028   2.050   9.118   9.131
14929WAT     H145029   2.032   9.091   9.225
14929WAT     H245030   2.002   9.057   9.068
14930WAT      O45031   9.575   8.147   2.241
14930WAT     H145032   9.637   8.125   2.316
14930WAT     H245033   9.622   8.133   2.154
14931WAT      O45034   8.027   3.848   5.964
14931WAT     H145035   8.078   3.781   6.018
14931WAT     H245036   8.085   3.926   5.944
14932WAT      O45037   6.635   8.067   9.287
14932WAT     H145038   6.706   8.006   9.323
14932WAT     H245039   6.584   8.106   9.363
14933WAT      O45040   9.239   3.215   3.849
14933WAT     H145041   9.158   3.268   3.827
14933WAT     H245042   9.226   3.121   3.817
14934WAT      O45043   1.328   4.917   1.812
14934WAT     H145044   1.410   4.960   1.851
14934WAT     H245045   1.308   4.833   1.862
14935WAT      O45046   6.700   8.910   7.204
14935WAT     H145047   6.793   8.877   7.188
14935WAT     H245048   6.697   9.009   7.192
14936WAT      O45049   2.087   8.051   2.916
14936WAT     H145050   2.084   8.151   2.925
14936WAT     H245051   1.998   8.017   2.886
14937WAT      O45052   6.552   7.498   8.028
14937WAT     H145053   6.562   7.587   7.985
14937WAT     H245054   6.593   7.428   7.971
14938WAT      O45055   6.617   1.713   3.055
14938WAT     H145056   6.552   1.729   2.981
14938WAT     H245057   6.689   1.652   3.023
14939WAT      O45058   3.306   6.617   3.790
14939WAT     H145059   3.280   6.540   3.848
14939WAT     H245060   3.227   6.647   3.737
14940WAT      O45061   5.582   7.052   5.101
14940WAT     H145062   5.504   7.071   5.040
14940WAT     H245063   5.621   6.963   5.079
14941WAT      O45064   8.200   6.933   5.581
14941WAT     H145065   8.277   6.884   5.621
14941WAT     H245066   8.234   7.011   5.528
14942WAT      O45067   1.411   3.676   6.075
14942WAT     H145068   1.406   3.625   6.161
14942WAT     H245069   1.482   3.637   6.017
14943WAT      O45070   6.641   7.968   0.568
14943WAT     H145071   6.665   7.871   0.574
14943WAT     H245072   6.680   8.016   0.646
14944WAT      O45073   4.544   0.658   8.546
14944WAT     H145074   4.582   0.568   8.571
14944WAT     H245075   4.446   0.649   8.530
14945WAT      O45076   6.054   3.157   6.857
14945WAT     H145077   5.988   3.202   6.917
14945WAT     H245078   6.030   3.175   6.761
14946WAT      O45079   4.232   8.217   6.299
14946WAT     H145080   4.155   8.153   6.298
14946WAT     H245081   4.315   8.169   6.272
14947WAT      O45082   7.064   6.788   0.061
14947WAT     H145083   6.987   6.740   0.018
14947WAT     H245084   7.036   6.823   0.150
14948WAT      O45085   3.047   9.075   3.737
14948WAT     H145086   3.068   9.127   3.819
14948WAT     H245087   3.132   9.039   3.698
14949WAT      O45088   6.183   1.463   1.737
14949WAT     H145089   6.209   1.438   1.830
14949WAT     H245090   6.100   1.518   1.739
14950WAT      O45091   3.554   6.129   8.841
14950WAT     H145092   3.505   6.149   8.756
14950WAT     H245093   3.574   6.031   8.846
14951WAT      O45094   3.608   1.972   2.916
14951WAT     H145095   3.703   1.976   2.948
14951WAT     H245096   3.577   2.064   2.893
14952WAT      O45097   3.100   5.129   5.998
14952WAT     H145098   3.069   5.196   6.066
14952WAT     H245099   3.184   5.161   5.954
14953WAT      O45100   1.818   3.314   2.155
14953WAT     H145101   1.751   3.296   2.083
14953WAT     H245102   1.779   3.290   2.244
14954WAT      O45103   0.015   2.853   8.600
14954WAT     H145104   0.088   2.891   8.657
14954WAT     H245105   0.021   2.754   8.598
14955WAT      O45106   1.626   0.970   3.580
14955WAT     H145107   1.673   1.057   3.562
14955WAT     H245108   1.554   0.984   3.648
14956WAT      O45109   1.407   6.868   1.649
14956WAT     H145110   1.453   6.798   1.595
14956WAT     H245111   1.384   6.831   1.739
14957WAT      O45112   4.974   1.873   1.457
14957WAT     H145113   5.065   1.861   1.497
14957WAT     H245114   4.977   1.946   1.389
14958WAT      O45115   9.808   2.553   0.918
14958WAT     H145116   9.738   2.612   0.957
14958WAT     H245117   9.774   2.459   0.913
14959WAT      O45118   4.354   5.030   0.127
14959WAT     H145119   4.270   5.017   0.075
14959WAT     H245120   4.383   5.125   0.122
14960WAT      O45121   8.713   2.525   9.804
14960WAT     H145122   8.630   2.530   9.749
14960WAT     H245123   8.761   2.612   9.801
14961WAT      O45124   0.860   7.310   5.526
14961WAT     H145125   0.898   7.220   5.549
14961WAT     H245126   0.760   7.304   5.527
14962WAT      O45127   2.862   0.671   2.204
14962WAT     H145128   2.938   0.734   2.186
14962WAT     H245129   2.881   0.583   2.162
14963WAT      O45130   5.690   8.918   3.600
14963WAT     H145131   5.694   9.015   3.575
14963WAT     H245132   5.630   8.870   3.536
14964WAT      O45133   1.545   5.164   5.569
14964WAT     H145134   1.456   5.128   5.540
14964WAT     H245135   1.608   5.161   5.491
14965WAT      O45136   9.082   9.484   5.905
14965WAT     H145137   9.045   9.560   5.852
14965WAT     H245138   9.151   9.435   5.851
14966WAT      O45139   4.986   9.466   5.788
14966WAT     H145140   5.069   9.411   5.780
14966WAT     H245141   4.969   9.485   5.885
14967WAT      O45142   7.609   8.308   6.678
14967WAT     H145143   7.680   8.274   6.739
14967WAT     H245144   7.527   8.329   6.731
14968WAT      O45145   3.321   7.065   2.494
14968WAT     H145146   3.365   7.125   2.427
14968WAT     H245147   3.368   6.976   2.494
14969WAT      O45148   0.098   2.815   5.274
14969WAT     H145149   0.038   2.867   5.213
14969WAT     H245150   0.078   2.718   5.265
14970WAT      O45151   0.387   3.550   1.715
14970WAT     H145152   0.335   3.616   1.661
14970WAT     H245153   0.330   3.471   1.735
14971WAT      O45154   1.989   7.568   5.655
14971WAT     H145155   1.962   7.502   5.726
14971WAT     H245156   2.046   7.639   5.696
14972WAT      O45157   0.476   7.370   1.847
14972WAT     H145158   0.469   7.331   1.939
14972WAT     H245159   0.504   7.466   1.853
14973WAT      O45160   8.661   5.521   1.078
14973WAT     H145161   8.644   5.599   1.018
14973WAT     H245162   8.757   5.521   1.106
14974WAT      O45163   2.363   5.825   1.967
14974WAT     H145164   2.371   5.725   1.959
14974WAT     H245165   2.443   5.867   1.924
14975WAT      O45166   4.654   6.756   6.600
14975WAT     H145167   4.667   6.664   6.564
14975WAT     H245168   4.559   6.768   6.628
14976WAT      O45169   7.080   5.230   3.207
14976WAT     H145170   7.076   5.131   3.218
14976WAT     H245171   6.989   5.265   3.186
14977WAT      O45172   2.501   7.774   4.805
14977WAT     H145173   2.443   7.816   4.875
14977WAT     H245174   2.520   7.841   4.733
14978WAT      O45175   8.940   2.573   9.497
14978WAT     H145176   8.999   2.653   9.483
14978WAT     H245177   8.996   2.494   9.521
14979WAT      O45178   3.376   1.943   8.937
14979WAT     H145179   3.326   1.896   9.010
14979WAT     H245180   3.416   2.027   8.974
14980WAT      O45181   6.668   4.242   4.033
14980WAT     H145182   6.597   4.185   4.075
14980WAT     H245183   6.751   4.238   4.088
14981WAT      O45184   2.882   1.171   3.387
14981WAT     H145185   2.874   1.212   3.478
14981WAT     H245186   2.903   1.242   3.320
14982WAT      O45187   7.081   2.489   1.361
14982WAT     H145188   7.030   2.459   1.442
14982WAT     H245189   7.034   2.457   1.279
14983WAT      O45190   5.486   9.735   2.323
14983WAT     H145191   5.431   9.787   2.258
14983WAT     H245192   5.572   9.783   2.341
14984WAT      O45193   2.898   6.923   7.229
14984WAT     H145194   2.895   7.014   7.189
14984WAT     H245195   2.841   6.921   7.312
14985WAT      O45196   9.080   0.939   3.722
14985WAT     H145197   8.999   0.998   3.726
14985WAT     H245198   9.158   0.987   3.763
14986WAT      O45199   8.825   2.819   1.318
14986WAT     H145200   8.893   2.748   1.301
14986WAT     H245201   8.752   2.782   1.377
14987WAT      O45202   7.379   7.571   9.802
14987WAT     H145203   7.301   7.509   9.809
14987WAT     H245204   7.389   7.600   9.706
14988WAT      O45205   0.174   4.426   9.807
14988WAT     H145206   0.214   4.485   9.737
14988WAT     H245207   0.233   4.346   9.821
14989WAT      O45208   3.225   8.676   9.283
14989WAT     H145209   3.239   8.581   9.313
14989WAT     H245210   3.128   8.692   9.268
14990WAT      O45211   6.118   0.529   7.759
14990WAT     H145212   6.163   0.481   7.834
14990WAT     H245213   6.108   0.626   7.782
14991WAT      O45214   0.760   1.455   8.017
14991WAT     H145215   0.814   1.429   8.097
14991WAT     H245216   0.791   1.403   7.938
14992WAT      O45217   2.746   9.405   8.494
14992WAT     H145218   2.725   9.490   8.542
14992WAT     H245219   2.675   9.337   8.514
14993WAT      O45220   2.308   9.018   6.155
14993WAT     H145221   2.266   8.999   6.244
14993WAT     H245222   2.386   8.958   6.141
14994WAT      O45223   9.504   2.534   9.260
14994WAT     H145224   9.438   2.580   9.201
14994WAT     H245225   9.494   2.435   9.250
14995WAT      O45226   1.797   3.608   8.687
14995WAT     H145227   1.849   3.577   8.607
14995WAT     H245228   1.857   3.663   8.746
14996WAT      O45229   3.708   9.469   5.240
14996WAT     H145230   3.723   9.384   5.290
14996WAT     H245231   3.792   9.524   5.243
14997WAT      O45232   2.912   3.405   4.789
14997WAT     H145233   2.926   3.493   4.742
14997WAT     H245234   2.975   3.337   4.752
14998WAT      O45235   6.890   9.487   7.804
14998WAT     H145236   6.930   9.579   7.797
14998WAT     H245237   6.938   9.425   7.743
14999WAT      O45238   8.454   8.760   4.531
14999WAT     H145239   8.448   8.711   4.445
14999WAT     H245240   8.423   8.702   4.606
15000WAT      O45241   3.396   5.671   4.452
15000WAT     H145242   3.346   5.593   4.415
15000WAT     H245243   3.359   5.695   4.542
15001WAT      O45244   8.720   7.590   3.475
15001WAT     H145245   8.654   7.583   3.400
15001WAT     H245246   8.678   7.560   3.560
15002WAT      O45247   8.540   3.866   7.048
15002WAT     H145248   8.542   3.775   7.005
15002WAT     H245249   8.622   3.878   7.104
15003WAT      O45250   1.115   5.503   3.392
15003WAT     H145251   1.132   5.471   3.486
15003WAT     H245252   1.202   5.529   3.351
15004WAT      O45253   8.578   6.494   1.233
15004WAT     H145254   8.567   6.473   1.136
15004WAT     H245255   8.489   6.520   1.271
15005WAT      O45256   4.747   3.304   4.364
15005WAT     H145257   4.685   3.245   4.313
15005WAT     H245258   4.804   3.249   4.425
15006WAT      O45259   5.813   3.347   3.208
15006WAT     H145260   5.830   3.423   3.145
15006WAT     H245261   5.722   3.356   3.248
15007WAT      O45262   3.637   2.927   4.581
15007WAT     H145263   3.579   2.845   4.579
15007WAT     H245264   3.593   3.000   4.529
15008WAT      O45265   0.017   9.136   7.975
15008WAT     H145266   0.093   9.183   7.929
15008WAT     H245267  -0.041   9.093   7.907
15009WAT      O45268   5.168   7.079   7.693
15009WAT     H145269   5.257   7.044   7.718
15009WAT     H245270   5.169   7.105   7.596
15010WAT      O45271   3.682   6.333   1.853
15010WAT     H145272   3.669   6.404   1.784
15010WAT     H245273   3.763   6.353   1.907
15011WAT      O45274   2.621   3.447   6.704
15011WAT     H145275   2.698   3.493   6.748
15011WAT     H245276   2.539   3.504   6.710
15012WAT      O45277   2.424   1.864   5.900
15012WAT     H145278   2.438   1.846   5.998
15012WAT     H245279   2.357   1.937   5.890
15013WAT      O45280   9.718   2.912   9.185
15013WAT     H145281   9.666   2.861   9.253
15013WAT     H245282   9.814   2.884   9.188
15014WAT      O45283   1.663   3.010   5.948
15014WAT     H145284   1.667   3.080   6.019
15014WAT     H245285   1.756   2.989   5.917
15015WAT      O45286   6.291   6.322   0.910
15015WAT     H145287   6.217   6.325   0.978
15015WAT     H245288   6.367   6.380   0.941
15016WAT      O45289   6.029   3.232   9.869
15016WAT     H145290   6.009   3.299   9.940
15016WAT     H245291   5.944   3.192   9.836
15017WAT      O45292   0.040   9.167   3.678
15017WAT     H145293   0.089   9.148   3.593
15017WAT     H245294   0.027   9.266   3.687
15018WAT      O45295   3.623   9.773   7.620
15018WAT     H145296   3.599   9.853   7.567
15018WAT     H245297   3.649   9.800   7.713
15019WAT      O45298   8.170   6.442   2.156
15019WAT     H145299   8.185   6.539   2.178
15019WAT     H245300   8.082   6.413   2.193
15020WAT      O45301   3.310   5.061   4.825
15020WAT     H145302   3.246   5.111   4.884
15020WAT     H245303   3.403   5.080   4.856
15021WAT      O45304   8.401   8.540   8.027
15021WAT     H145305   8.454   8.461   8.057
15021WAT     H245306   8.311   8.510   7.995
15022WAT      O45307   3.350   8.556   0.656
15022WAT     H145308   3.290   8.604   0.592
15022WAT     H245309   3.394   8.622   0.717
15023WAT      O45310   4.399   0.231   1.905
15023WAT     H145311   4.378   0.306   1.968
15023WAT     H245312   4.328   0.227   1.834
15024WAT      O45313   2.129   1.947   0.545
15024WAT     H145314   2.056   1.952   0.477
15024WAT     H245315   2.100   1.887   0.620
15025WAT      O45316   7.126   9.670   4.453
15025WAT     H145317   7.144   9.574   4.432
15025WAT     H245318   7.028   9.687   4.453
15026WAT      O45319   2.505   8.894   7.269
15026WAT     H145320   2.522   8.857   7.361
15026WAT     H245321   2.592   8.910   7.223
15027WAT      O45322   6.303   9.661   0.631
15027WAT     H145323   6.212   9.642   0.669
15027WAT     H245324   6.304   9.636   0.534
15028WAT      O45325   3.130   4.377   7.793
15028WAT     H145326   3.148   4.286   7.754
15028WAT     H245327   3.205   4.404   7.853
15029WAT      O45328   0.344   9.344   8.078
15029WAT     H145329   0.312   9.376   7.989
15029WAT     H245330   0.357   9.244   8.074
15030WAT      O45331   6.615   6.856   5.402
15030WAT     H145332   6.644   6.831   5.494
15030WAT     H245333   6.624   6.955   5.390
15031WAT      O45334   8.546   2.920   5.571
15031WAT     H145335   8.552   2.842   5.509
15031WAT     H245336   8.569   3.004   5.522
15032WAT      O45337   7.349   3.457   3.079
15032WAT     H145338   7.375   3.396   3.004
15032WAT     H245339   7.373   3.414   3.166
15033WAT      O45340   3.587   5.862   8.958
15033WAT     H145341   3.592   5.764   8.939
15033WAT     H245342   3.506   5.881   9.014
15034WAT      O45343   0.540   9.814   9.787
15034WAT     H145344   0.631   9.848   9.763
15034WAT     H245345   0.471   9.863   9.734
15035WAT      O45346   6.912   8.041   2.978
15035WAT     H145347   6.978   7.967   2.963
15035WAT     H245348   6.827   8.002   3.014
15036WAT      O45349   1.748   3.895   1.571
15036WAT     H145350   1.773   3.799   1.584
15036WAT     H245351   1.654   3.900   1.537
15037WAT      O45352   8.236   7.791   6.025
15037WAT     H145353   8.289   7.851   5.964
15037WAT     H245354   8.177   7.731   5.970
15038WAT      O45355   1.745   8.753   8.303
15038WAT     H145356   1.664   8.745   8.245
15038WAT     H245357   1.744   8.680   8.372
15039WAT      O45358   3.337   4.518   0.304
15039WAT     H145359   3.275   4.493   0.377
15039WAT     H245360   3.328   4.453   0.228
15040WAT      O45361   7.410   2.140   5.409
15040WAT     H145362   7.421   2.071   5.481
15040WAT     H245363   7.353   2.215   5.442
15041WAT      O45364   1.333   6.528   9.142
15041WAT     H145365   1.389   6.446   9.157
15041WAT     H245366   1.264   6.536   9.214
15042WAT      O45367   6.571   9.638   8.589
15042WAT     H145368   6.475   9.614   8.576
15042WAT     H245369   6.625   9.554   8.598
15043WAT      O45370   5.423   1.349   3.329
15043WAT     H145371   5.487   1.278   3.362
15043WAT     H245372   5.430   1.356   3.230
15044WAT      O45373   1.158   2.046   1.264
15044WAT     H145374   1.201   2.037   1.174
15044WAT     H245375   1.221   2.015   1.334
15045WAT      O45376   8.449   5.739   7.340
15045WAT     H145377   8.517   5.691   7.395
15045WAT     H245378   8.435   5.690   7.254
15046WAT      O45379   6.967   5.012   4.632
15046WAT     H145380   6.915   4.959   4.700
15046WAT     H245381   7.040   4.956   4.594
15047WAT      O45382   2.261   1.315   3.309
15047WAT     H145383   2.216   1.280   3.391
15047WAT     H245384   2.260   1.415   3.311
15048WAT      O45385   7.679   0.411   1.692
15048WAT     H145386   7.658   0.363   1.778
15048WAT     H245387   7.657   0.508   1.702
15049WAT      O45388   6.009   1.743   5.235
15049WAT     H145389   5.998   1.833   5.277
15049WAT     H245390   6.106   1.728   5.215
15050WAT      O45391   3.015   5.733   0.524
15050WAT     H145392   2.919   5.757   0.542
15050WAT     H245393   3.019   5.666   0.451
15051WAT      O45394   7.394   7.829   8.535
15051WAT     H145395   7.445   7.871   8.459
15051WAT     H245396   7.315   7.780   8.498
15052WAT      O45397   6.554   9.751   9.070
15052WAT     H145398   6.567   9.780   8.975
15052WAT     H245399   6.596   9.661   9.083
15053WAT      O45400   1.181   4.359   1.121
15053WAT     H145401   1.244   4.314   1.185
15053WAT     H245402   1.091   4.315   1.127
15054WAT      O45403   5.817   3.303   2.271
15054WAT     H145404   5.878   3.326   2.347
15054WAT     H245405   5.816   3.204   2.259
15055WAT      O45406   3.483   1.503   4.216
15055WAT     H145407   3.559   1.554   4.174
15055WAT     H245408   3.513   1.411   4.238
15056WAT      O45409   5.149   6.449   5.395
15056WAT     H145410   5.052   6.470   5.387
15056WAT     H245411   5.170   6.366   5.344
15057WAT      O45412   4.606   0.309   8.286
15057WAT     H145413   4.624   0.234   8.351
15057WAT     H245414   4.521   0.354   8.310
15058WAT      O45415   7.343   2.778   2.225
15058WAT     H145416   7.344   2.682   2.197
15058WAT     H245417   7.423   2.825   2.187
15059WAT      O45418   1.082   5.368   1.954
15059WAT     H145419   1.157   5.385   1.890
15059WAT     H245420   1.042   5.455   1.982
15060WAT      O45421   2.550   4.785   4.264
15060WAT     H145422   2.621   4.720   4.237
15060WAT     H245423   2.567   4.873   4.220
15061WAT      O45424   4.490   6.181   9.175
15061WAT     H145425   4.513   6.108   9.111
15061WAT     H245426   4.398   6.214   9.156
15062WAT      O45427   6.188   0.983   7.960
15062WAT     H145428   6.288   0.991   7.963
15062WAT     H245429   6.147   1.075   7.966
15063WAT      O45430   0.776   9.504   3.893
15063WAT     H145431   0.756   9.565   3.816
15063WAT     H245432   0.849   9.441   3.866
15064WAT      O45433   0.141   8.676   2.906
15064WAT     H145434   0.145   8.583   2.942
15064WAT     H245435   0.201   8.684   2.826
15065WAT      O45436   2.270   7.444   2.925
15065WAT     H145437   2.205   7.505   2.878
15065WAT     H245438   2.363   7.479   2.914
15066WAT      O45439   1.886   4.032   7.793
15066WAT     H145440   1.850   4.112   7.744
15066WAT     H245441   1.810   3.978   7.829
15067WAT      O45442   2.697   1.928   7.648
15067WAT     H145443   2.644   1.897   7.570
15067WAT     H245444   2.673   2.022   7.670
15068WAT      O45445   7.085   6.795   8.965
15068WAT     H145446   7.115   6.890   8.958
15068WAT     H245447   7.056   6.775   9.059
15069WAT      O45448   7.809   6.155   8.898
15069WAT     H145449   7.848   6.071   8.863
15069WAT     H245450   7.756   6.136   8.981
15070WAT      O45451   8.853   6.166   5.257
15070WAT     H145452   8.866   6.092   5.323
15070WAT     H245453   8.931   6.170   5.195
15071WAT      O45454   8.658   4.575   4.361
15071WAT     H145455   8.665   4.488   4.410
15071WAT     H245456   8.572   4.620   4.384
15072WAT      O45457   1.013   6.940   6.323
15072WAT     H145458   1.037   6.869   6.389
15072WAT     H245459   1.068   7.022   6.341
15073WAT      O45460   6.499   9.392   0.859
15073WAT     H145461   6.585   9.343   0.871
15073WAT     H245462   6.477   9.442   0.943
15074WAT      O45463   2.747   0.528   4.960
15074WAT     H145464   2.732   0.500   5.055
15074WAT     H245465   2.805   0.461   4.914
15075WAT      O45466   8.481   1.000   7.389
15075WAT     H145467   8.434   0.913   7.399
15075WAT     H245468   8.573   0.985   7.353
15076WAT      O45469   7.405   0.284   7.427
15076WAT     H145470   7.393   0.297   7.526
15076WAT     H245471   7.328   0.327   7.379
15077WAT      O45472   3.475   0.012   8.802
15077WAT     H145473   3.515  -0.021   8.717
15077WAT     H245474   3.453   0.109   8.792
15078WAT      O45475   0.445   8.375   3.160
15078WAT     H145476   0.359   8.398   3.205
15078WAT     H245477   0.427   8.316   3.081
15079WAT      O45478   7.818   2.876   7.753
15079WAT     H145479   7.817   2.968   7.715
15079WAT     H245480   7.724   2.846   7.771
15080WAT      O45481   7.269   6.456   6.549
15080WAT     H145482   7.219   6.528   6.597
15080WAT     H245483   7.349   6.495   6.504
15081WAT      O45484   4.148   4.764   9.761
15081WAT     H145485   4.093   4.834   9.805
15081WAT     H245486   4.094   4.719   9.690
15082WAT      O45487   5.962   9.501   9.552
15082WAT     H145488   5.957   9.444   9.471
15082WAT     H245489   5.879   9.489   9.607
15083WAT      O45490   7.987   5.390   7.821
15083WAT     H145491   7.942   5.349   7.742
15083WAT     H245492   7.921   5.447   7.871
15084WAT      O45493   9.698   2.872   8.399
15084WAT     H145494   9.629   2.800   8.391
15084WAT     H245495   9.773   2.840   8.457
15085WAT      O45496   6.696   1.701   0.846
15085WAT     H145497   6.700   1.640   0.767
15085WAT     H245498   6.729   1.652   0.927
15086WAT      O45499   6.082   5.974   7.016
15086WAT     H145500   6.109   6.002   7.108
15086WAT     H245501   6.067   5.875   7.013
15087WAT      O45502   7.673   5.387   0.686
15087WAT     H145503   7.588   5.435   0.666
15087WAT     H245504   7.714   5.424   0.770
15088WAT      O45505   5.652   3.340   0.692
15088WAT     H145506   5.729   3.400   0.669
15088WAT     H245507   5.686   3.246   0.705
15089WAT      O45508   8.629   6.132   2.642
15089WAT     H145509   8.560   6.155   2.573
15089WAT     H245510   8.610   6.041   2.679
15090WAT      O45511   1.706   0.531   1.351
15090WAT     H145512   1.738   0.438   1.337
15090WAT     H245513   1.681   0.572   1.263
15091WAT      O45514   9.337   1.580   6.379
15091WAT     H145515   9.370   1.675   6.374
15091WAT     H245516   9.359   1.542   6.469
15092WAT      O45517   7.716   1.692   2.381
15092WAT     H145518   7.809   1.710   2.415
15092WAT     H245519   7.713   1.600   2.341
15093WAT      O45520   5.559   6.659   4.654
15093WAT     H145521   5.461   6.641   4.643
15093WAT     H245522   5.597   6.594   4.719
15094WAT      O45523   2.823   8.252   8.329
15094WAT     H145524   2.916   8.244   8.294
15094WAT     H245525   2.818   8.214   8.421
15095WAT      O45526   4.724   9.677   6.540
15095WAT     H145527   4.632   9.710   6.563
15095WAT     H245528   4.748   9.707   6.448
15096WAT      O45529   5.475   1.904   4.181
15096WAT     H145530   5.392   1.897   4.237
15096WAT     H245531   5.453   1.881   4.086
15097WAT      O45532   2.646   9.094   0.078
15097WAT     H145533   2.609   9.049  -0.004
15097WAT     H245534   2.746   9.082   0.080
15098WAT      O45535   6.859   0.722   1.303
15098WAT     H145536   6.850   0.624   1.289
15098WAT     H245537   6.782   0.769   1.261
15099WAT      O45538   6.569   5.748   8.436
15099WAT     H145539   6.619   5.678   8.486
15099WAT     H245540   6.522   5.706   8.358
15100WAT      O45541   8.524   6.690   5.837
15100WAT     H145542   8.443   6.696   5.778
15100WAT     H245543   8.534   6.597   5.870
15101WAT      O45544   5.930   7.216   9.820
15101WAT     H145545   6.005   7.197   9.756
15101WAT     H245546   5.855   7.152   9.803
15102WAT      O45547   5.327   9.007   5.479
15102WAT     H145548   5.340   8.914   5.446
15102WAT     H245549   5.366   9.072   5.413
15103WAT      O45550   7.418   1.559   1.715
15103WAT     H145551   7.391   1.620   1.640
15103WAT     H245552   7.502   1.511   1.690
15104WAT      O45553   6.606   4.188   0.304
15104WAT     H145554   6.641   4.130   0.377
15104WAT     H245555   6.665   4.268   0.293
15105WAT      O45556   2.255   1.246   1.864
15105WAT     H145557   2.269   1.292   1.776
15105WAT     H245558   2.344   1.222   1.903
15106WAT      O45559   2.941   0.405   3.415
15106WAT     H145560   2.991   0.335   3.364
15106WAT     H245561   2.955   0.494   3.373
15107WAT      O45562   8.252   6.362   6.208
15107WAT     H145563   8.338   6.388   6.251
15107WAT     H245564   8.181   6.352   6.279
15108WAT      O45565   1.850   5.795   0.653
15108WAT     H145566   1.773   5.858   0.661
15108WAT     H245567   1.928   5.831   0.705
15109WAT      O45568   5.479   9.171   0.732
15109WAT     H145569   5.471   9.108   0.809
15109WAT     H245570   5.393   9.222   0.721
15110WAT      O45571   9.283   7.933   5.826
15110WAT     H145572   9.194   7.921   5.872
15110WAT     H245573   9.328   7.845   5.816
15111WAT      O45574   6.096   4.485   3.300
15111WAT     H145575   6.178   4.526   3.259
15111WAT     H245576   6.121   4.398   3.344
15112WAT      O45577   9.799   9.181   0.200
15112WAT     H145578   9.700   9.169   0.213
15112WAT     H245579   9.823   9.161   0.105
15113WAT      O45580   8.733   0.683   1.061
15113WAT     H145581   8.698   0.667   1.154
15113WAT     H245582   8.657   0.705   1.001
15114WAT      O45583   2.905   3.691   5.065
15114WAT     H145584   2.842   3.613   5.074
15114WAT     H245585   2.985   3.676   5.123
15115WAT      O45586   9.131   2.494   5.637
15115WAT     H145587   9.225   2.463   5.625
15115WAT     H245588   9.076   2.465   5.559
15116WAT      O45589   0.295   1.785   4.078
15116WAT     H145590   0.199   1.803   4.100
15116WAT     H245591   0.305   1.774   3.979
15117WAT      O45592   2.759   0.174   3.985
15117WAT     H145593   2.853   0.193   3.958
15117WAT     H245594   2.759   0.112   4.064
15118WAT      O45595   0.039   6.454   6.034
15118WAT     H145596  -0.018   6.495   5.963
15118WAT     H245597   0.131   6.437   5.998
15119WAT      O45598   4.853   7.049   8.988
15119WAT     H145599   4.940   7.058   9.036
15119WAT     H245600   4.864   7.074   8.892
15120WAT      O45601   4.978   7.934   8.578
15120WAT     H145602   5.039   7.875   8.631
15120WAT     H245603   5.011   8.029   8.582
15121WAT      O45604   7.770   0.394   8.809
15121WAT     H145605   7.815   0.369   8.895
15121WAT     H245606   7.776   0.317   8.745
15122WAT      O45607   3.013   5.065   8.250
15122WAT     H145608   3.048   5.060   8.157
15122WAT     H245609   2.973   4.977   8.276
15123WAT      O45610   3.414   1.481   3.008
15123WAT     H145611   3.497   1.446   3.051
15123WAT     H245612   3.433   1.569   2.963
15124WAT      O45613   9.273   4.658   1.621
15124WAT     H145614   9.174   4.668   1.626
15124WAT     H245615   9.302   4.582   1.679
15125WAT      O45616   4.202   2.973   1.997
15125WAT     H145617   4.299   2.956   1.979
15125WAT     H245618   4.150   2.961   1.913
15126WAT      O45619   9.229   8.023   8.423
15126WAT     H145620   9.314   8.047   8.470
15126WAT     H245621   9.152   8.034   8.485
15127WAT      O45622   6.635   4.329   5.979
15127WAT     H145623   6.538   4.307   5.983
15127WAT     H245624   6.689   4.244   5.986
15128WAT      O45625   4.295   1.355   7.710
15128WAT     H145626   4.248   1.423   7.767
15128WAT     H245627   4.230   1.283   7.686
15129WAT      O45628   3.611   4.356   3.509
15129WAT     H145629   3.641   4.297   3.434
15129WAT     H245630   3.538   4.311   3.560
15130WAT      O45631   1.634   6.413   5.623
15130WAT     H145632   1.723   6.385   5.659
15130WAT     H245633   1.645   6.496   5.569
15131WAT      O45634   8.793   0.615   6.336
15131WAT     H145635   8.818   0.560   6.415
15131WAT     H245636   8.775   0.555   6.258
15132WAT      O45637   0.496   4.981   2.266
15132WAT     H145638   0.559   5.049   2.228
15132WAT     H245639   0.540   4.932   2.340
15133WAT      O45640   8.279   1.988   3.766
15133WAT     H145641   8.234   1.917   3.713
15133WAT     H245642   8.217   2.022   3.837
15134WAT      O45643   1.288   4.826   3.827
15134WAT     H145644   1.193   4.854   3.839
15134WAT     H245645   1.347   4.883   3.884
15135WAT      O45646   3.668   9.171   0.282
15135WAT     H145647   3.708   9.082   0.265
15135WAT     H245648   3.572   9.160   0.310
15136WAT      O45649   3.612   8.635   8.796
15136WAT     H145650   3.611   8.655   8.894
15136WAT     H245651   3.529   8.583   8.772
15137WAT      O45652   2.211   3.694   5.630
15137WAT     H145653   2.254   3.623   5.686
15137WAT     H245654   2.187   3.772   5.688
15138WAT      O45655   2.955   4.916   5.994
15138WAT     H145656   3.021   4.989   5.976
15138WAT     H245657   2.905   4.936   6.078
15139WAT      O45658   3.002   0.568   6.567
15139WAT     H145659   3.085   0.587   6.515
15139WAT     H245660   2.954   0.490   6.527
15140WAT      O45661   6.775   8.852   7.745
15140WAT     H145662   6.747   8.882   7.654
15140WAT     H245663   6.707   8.788   7.782
15141WAT      O45664   9.710   1.899   5.394
15141WAT     H145665   9.769   1.838   5.340
15141WAT     H245666   9.701   1.863   5.486
15142WAT      O45667   9.708   3.437   5.347
15142WAT     H145668   9.631   3.427   5.410
15142WAT     H245669   9.683   3.404   5.257
15143WAT      O45670   1.705   2.049   6.449
15143WAT     H145671   1.769   2.125   6.436
15143WAT     H245672   1.685   2.039   6.546
15144WAT      O45673   0.027   7.332   2.647
15144WAT     H145674  -0.072   7.326   2.633
15144WAT     H245675   0.051   7.422   2.682
15145WAT      O45676   6.218   1.895   0.127
15145WAT     H145677   6.272   1.905   0.043
15145WAT     H245678   6.125   1.930   0.110
15146WAT      O45679   4.134   6.895   9.490
15146WAT     H145680   4.131   6.876   9.589
15146WAT     H245681   4.120   6.992   9.474
15147WAT      O45682   6.030   4.476   4.370
15147WAT     H145683   6.032   4.376   4.375
15147WAT     H245684   6.115   4.513   4.406
15148WAT      O45685   1.164   5.797   5.737
15148WAT     H145686   1.187   5.853   5.817
15148WAT     H245687   1.133   5.857   5.663
15149WAT      O45688   8.797   0.584   5.686
15149WAT     H145689   8.788   0.616   5.780
15149WAT     H245690   8.790   0.484   5.684
15150WAT      O45691   9.306   2.797   7.286
15150WAT     H145692   9.272   2.709   7.318
15150WAT     H245693   9.328   2.855   7.364
15151WAT      O45694   7.134   7.610   3.558
15151WAT     H145695   7.060   7.569   3.610
15151WAT     H245696   7.125   7.586   3.462
15152WAT      O45697   0.296   9.814   5.173
15152WAT     H145698   0.364   9.877   5.135
15152WAT     H245699   0.295   9.821   5.272
15153WAT      O45700   9.714   1.629   4.401
15153WAT     H145701   9.619   1.608   4.379
15153WAT     H245702   9.774   1.589   4.332
15154WAT      O45703   9.030   9.693   5.318
15154WAT     H145704   9.015   9.595   5.308
15154WAT     H245705   9.050   9.715   5.413
15155WAT      O45706   0.276   3.774   7.383
15155WAT     H145707   0.362   3.816   7.353
15155WAT     H245708   0.287   3.739   7.476
15156WAT      O45709   3.139   5.210   1.884
15156WAT     H145710   3.123   5.304   1.855
15156WAT     H245711   3.156   5.153   1.803
15157WAT      O45712   9.379   1.510   8.882
15157WAT     H145713   9.324   1.559   8.948
15157WAT     H245714   9.476   1.533   8.895
15158WAT      O45715   5.732   6.382   9.648
15158WAT     H145716   5.784   6.456   9.607
15158WAT     H245717   5.760   6.294   9.608
15159WAT      O45718   5.975   0.324   8.882
15159WAT     H145719   5.969   0.227   8.857
15159WAT     H245720   6.030   0.334   8.964
15160WAT      O45721   6.370   2.734   1.219
15160WAT     H145722   6.316   2.654   1.246
15160WAT     H245723   6.391   2.729   1.121
15161WAT      O45724   3.687   3.526   3.620
15161WAT     H145725   3.630   3.466   3.563
15161WAT     H245726   3.686   3.493   3.714
15162WAT      O45727   1.988   1.871   4.219
15162WAT     H145728   2.022   1.962   4.244
15162WAT     H245729   2.057   1.802   4.240
15163WAT      O45730   8.070   6.992   5.818
15163WAT     H145731   8.135   6.982   5.743
15163WAT     H245732   8.024   6.905   5.834
15164WAT      O45733   5.332   3.977   1.193
15164WAT     H145734   5.291   4.058   1.235
15164WAT     H245735   5.285   3.895   1.225
15165WAT      O45736   3.660   3.602   4.928
15165WAT     H145737   3.580   3.617   4.986
15165WAT     H245738   3.648   3.650   4.841
15166WAT      O45739   5.108   4.782   2.598
15166WAT     H145740   5.177   4.797   2.527
15166WAT     H245741   5.019   4.813   2.565
15167WAT      O45742   2.754   1.040   2.289
15167WAT     H145743   2.723   1.074   2.201
15167WAT     H245744   2.847   1.073   2.308
15168WAT      O45745   4.197   7.199   5.611
15168WAT     H145746   4.177   7.163   5.520
15168WAT     H245747   4.295   7.222   5.617
15169WAT      O45748   5.454   0.046   1.126
15169WAT     H145749   5.381   0.113   1.115
15169WAT     H245750   5.536   0.091   1.162
15170WAT      O45751   2.629   3.060   3.651
15170WAT     H145752   2.706   3.080   3.712
15170WAT     H245753   2.557   3.127   3.666
15171WAT      O45754   4.203   3.639   0.745
15171WAT     H145755   4.241   3.565   0.801
15171WAT     H245756   4.257   3.650   0.662
15172WAT      O45757   4.793   6.446   1.991
15172WAT     H145758   4.795   6.387   2.071
15172WAT     H245759   4.887   6.469   1.964
15173WAT      O45760   7.470   6.204   9.775
15173WAT     H145761   7.425   6.198   9.864
15173WAT     H245762   7.502   6.298   9.761
15174WAT      O45763   6.711   2.308   8.730
15174WAT     H145764   6.641   2.238   8.740
15174WAT     H245765   6.775   2.282   8.657
15175WAT      O45766   5.250   5.839   6.647
15175WAT     H145767   5.292   5.783   6.576
15175WAT     H245768   5.305   5.834   6.730
15176WAT      O45769   6.320   1.468   2.953
15176WAT     H145770   6.378   1.550   2.946
15176WAT     H245771   6.266   1.458   2.869
15177WAT      O45772   6.441   8.741   0.616
15177WAT     H145773   6.494   8.681   0.675
15177WAT     H245774   6.449   8.835   0.649
15178WAT      O45775   1.564   9.822   1.029
15178WAT     H145776   1.522   9.912   1.033
15178WAT     H245777   1.493   9.752   1.025
15179WAT      O45778   6.530   1.404   2.641
15179WAT     H145779   6.437   1.405   2.604
15179WAT     H245780   6.587   1.469   2.592
15180WAT      O45781   0.159   4.206   4.952
15180WAT     H145782   0.182   4.216   4.855
15180WAT     H245783   0.089   4.273   4.977
15181WAT      O45784   1.882   6.569   3.813
15181WAT     H145785   1.913   6.637   3.746
15181WAT     H245786   1.934   6.485   3.802
15182WAT      O45787   4.456   4.506   4.418
15182WAT     H145788   4.480   4.434   4.352
15182WAT     H245789   4.395   4.572   4.373
15183WAT      O45790   1.823   1.455   6.428
15183WAT     H145791   1.762   1.376   6.418
15183WAT     H245792   1.802   1.502   6.513
15184WAT      O45793   1.816   0.405   9.552
15184WAT     H145794   1.723   0.444   9.548
15184WAT     H245795   1.820   0.324   9.494
15185WAT      O45796   9.099   6.771   8.211
15185WAT     H145797   9.096   6.870   8.193
15185WAT     H245798   9.010   6.731   8.190
15186WAT      O45799   3.372   3.797   4.305
15186WAT     H145800   3.319   3.829   4.383
15186WAT     H245801   3.316   3.735   4.250
15187WAT      O45802   8.421   7.753   4.458
15187WAT     H145803   8.513   7.757   4.496
15187WAT     H245804   8.389   7.659   4.458
15188WAT      O45805   1.238   3.244   2.566
15188WAT     H145806   1.147   3.250   2.609
15188WAT     H245807   1.288   3.329   2.585
15189WAT      O45808   6.164   2.640   0.862
15189WAT     H145809   6.139   2.557   0.912
15189WAT     H245810   6.231   2.692   0.916
15190WAT      O45811   2.931   3.856   0.286
15190WAT     H145812   2.913   3.936   0.342
15190WAT     H245813   2.860   3.787   0.302
15191WAT      O45814   3.902   5.851   9.603
15191WAT     H145815   3.805   5.873   9.617
15191WAT     H245816   3.939   5.907   9.530
15192WAT      O45817   4.930   0.069   0.069
15192WAT     H145818   5.028   0.066   0.048
15192WAT     H245819   4.878   0.085  -0.015
15193WAT      O45820   9.026   2.639   1.293
15193WAT     H145821   9.046   2.545   1.267
15193WAT     H245822   9.064   2.658   1.383
15194WAT      O45823   6.298   9.137   2.039
15194WAT     H145824   6.371   9.193   2.002
15194WAT     H245825   6.244   9.098   1.964
15195WAT      O45826   6.770   6.153   5.984
15195WAT     H145827   6.784   6.252   5.996
15195WAT     H245828   6.859   6.109   5.970
15196WAT      O45829   4.183   8.679   0.846
15196WAT     H145830   4.086   8.698   0.833
15196WAT     H245831   4.197   8.635   0.935
15197WAT      O45832   3.918   9.062   8.012
15197WAT     H145833   3.845   9.130   8.005
15197WAT     H245834   3.965   9.053   7.923
15198WAT      O45835   9.631   3.439   7.965
15198WAT     H145836   9.731   3.440   7.958
15198WAT     H245837   9.597   3.533   7.971
15199WAT      O45838   4.497   1.604   8.654
15199WAT     H145839   4.499   1.584   8.556
15199WAT     H245840   4.554   1.538   8.703
15200WAT      O45841   8.251   3.099   9.242
15200WAT     H145842   8.327   3.165   9.244
15200WAT     H245843   8.191   3.119   9.164
15201WAT      O45844   0.186   7.787   0.567
15201WAT     H145845   0.114   7.731   0.525
15201WAT     H245846   0.199   7.759   0.662
15202WAT      O45847   6.532   2.134   7.777
15202WAT     H145848   6.516   2.197   7.853
15202WAT     H245849   6.530   2.185   7.691
15203WAT      O45850   3.300   3.160   4.669
15203WAT     H145851   3.327   3.193   4.760
15203WAT     H245852   3.207   3.191   4.650
15204WAT      O45853   4.629   9.762   6.235
15204WAT     H145854   4.608   9.673   6.276
15204WAT     H245855   4.558   9.786   6.170
15205WAT      O45856   0.554   8.276   9.777
15205WAT     H145857   0.620   8.283   9.852
15205WAT     H245858   0.488   8.351   9.783
15206WAT      O45859   2.327   0.468   6.412
15206WAT     H145860   2.335   0.371   6.434
15206WAT     H245861   2.417   0.506   6.391
15207WAT      O45862   9.183   1.084   6.860
15207WAT     H145863   9.088   1.065   6.837
15207WAT     H245864   9.239   1.003   6.839
15208WAT      O45865   2.629   3.160   2.971
15208WAT     H145866   2.671   3.080   3.012
15208WAT     H245867   2.606   3.226   3.043
15209WAT      O45868   8.774   3.171   2.494
15209WAT     H145869   8.780   3.222   2.408
15209WAT     H245870   8.811   3.228   2.568
15210WAT      O45871   7.062   8.663   7.702
15210WAT     H145872   7.031   8.568   7.712
15210WAT     H245873   7.041   8.713   7.786
15211WAT      O45874   6.851   8.845   9.369
15211WAT     H145875   6.846   8.866   9.466
15211WAT     H245876   6.916   8.770   9.353
15212WAT      O45877   3.261   2.680   5.860
15212WAT     H145878   3.233   2.724   5.775
15212WAT     H245879   3.350   2.637   5.847
15213WAT      O45880   0.030   3.715   7.796
15213WAT     H145881   0.032   3.766   7.709
15213WAT     H245882  -0.008   3.773   7.867
15214WAT      O45883   6.317   6.296   3.836
15214WAT     H145884   6.365   6.234   3.774
15214WAT     H245885   6.223   6.264   3.849
15215WAT      O45886   5.367   1.351   4.741
15215WAT     H145887   5.390   1.401   4.658
15215WAT     H245888   5.421   1.387   4.817
15216WAT      O45889   4.165   2.547   1.438
15216WAT     H145890   4.144   2.585   1.528
15216WAT     H245891   4.082   2.512   1.396
15217WAT      O45892   0.121   8.748   8.823
15217WAT     H145893   0.143   8.805   8.744
15217WAT     H245894   0.155   8.655   8.807
15218WAT      O45895   7.916   1.205   7.557
15218WAT     H145896   7.874   1.264   7.626
15218WAT     H245897   7.950   1.121   7.600
15219WAT      O45898   4.250   2.465   8.585
15219WAT     H145899   4.219   2.399   8.516
15219WAT     H245900   4.202   2.552   8.572
15220WAT      O45901   4.423   7.413   5.759
15220WAT     H145902   4.395   7.485   5.695
15220WAT     H245903   4.349   7.397   5.824
15221WAT      O45904   0.466   0.525   8.626
15221WAT     H145905   0.512   0.503   8.540
15221WAT     H245906   0.528   0.575   8.686
15222WAT      O45907   1.601   6.235   7.310
15222WAT     H145908   1.671   6.165   7.315
15222WAT     H245909   1.581   6.256   7.214
15223WAT      O45910   3.821   0.618   9.129
15223WAT     H145911   3.886   0.556   9.172
15223WAT     H245912   3.819   0.602   9.030
15224WAT      O45913   1.742   7.691   6.068
15224WAT     H145914   1.681   7.642   6.130
15224WAT     H245915   1.688   7.746   6.004
15225WAT      O45916   3.078   5.428   2.820
15225WAT     H145917   3.018   5.379   2.757
15225WAT     H245918   3.023   5.481   2.884
15226WAT      O45919   3.682   3.126   1.214
15226WAT     H145920   3.734   3.047   1.179
15226WAT     H245921   3.743   3.204   1.223
15227WAT      O45922   7.217   4.487   9.240
15227WAT     H145923   7.265   4.434   9.171
15227WAT     H245924   7.263   4.574   9.254
15228WAT      O45925   3.815   3.582   7.036
15228WAT     H145926   3.904   3.542   7.058
15228WAT     H245927   3.828   3.678   7.011
15229WAT      O45928   9.327   3.309   2.505
15229WAT     H145929   9.286   3.359   2.430
15229WAT     H245930   9.346   3.373   2.581
15230WAT      O45931   5.585   5.425   6.160
15230WAT     H145932   5.497   5.470   6.160
15230WAT     H245933   5.589   5.359   6.085
15231WAT      O45934   9.808   4.705   0.133
15231WAT     H145935   9.785   4.802   0.145
15231WAT     H245936   9.726   4.649   0.146
15232WAT      O45937   5.640   5.066   2.602
15232WAT     H145938   5.704   5.135   2.637
15232WAT     H245939   5.576   5.041   2.675
15233WAT      O45940   4.463   7.722   2.998
15233WAT     H145941   4.453   7.740   2.900
15233WAT     H245942   4.518   7.639   3.011
15234WAT      O45943   4.823   7.302   9.608
15234WAT     H145944   4.726   7.289   9.626
15234WAT     H245945   4.856   7.229   9.548
15235WAT      O45946   1.947   7.122   3.098
15235WAT     H145947   2.012   7.195   3.119
15235WAT     H245948   1.906   7.138   3.009
15236WAT      O45949   8.353   3.246   8.779
15236WAT     H145950   8.453   3.241   8.782
15236WAT     H245951   8.322   3.222   8.687
15237WAT      O45952   3.716   5.009   8.040
15237WAT     H145953   3.621   5.003   8.011
15237WAT     H245954   3.724   4.980   8.136
15238WAT      O45955   0.982   7.680   2.500
15238WAT     H145956   0.923   7.690   2.420
15238WAT     H245957   0.988   7.583   2.526
15239WAT      O45958   4.000   0.211   0.095
15239WAT     H145959   3.969   0.176   0.007
15239WAT     H245960   3.989   0.141   0.165
15240WAT      O45961   7.312   4.374   3.693
15240WAT     H145962   7.406   4.342   3.689
15240WAT     H245963   7.308   4.466   3.732
15241WAT      O45964   2.033   7.835   7.332
15241WAT     H145965   1.983   7.871   7.412
15241WAT     H245966   2.128   7.866   7.335
15242WAT      O45967   3.974   3.423   9.066
15242WAT     H145968   4.001   3.518   9.055
15242WAT     H245969   4.046   3.372   9.113
15243WAT      O45970   1.464   5.055   7.316
15243WAT     H145971   1.551   5.104   7.307
15243WAT     H245972   1.459   5.013   7.407
15244WAT      O45973   7.714   7.490   8.823
15244WAT     H145974   7.774   7.417   8.789
15244WAT     H245975   7.686   7.470   8.917
15245WAT      O45976   4.027   1.872   5.014
15245WAT     H145977   4.093   1.928   5.064
15245WAT     H245978   3.934   1.903   5.035
15246WAT      O45979   1.020   5.083   1.588
15246WAT     H145980   0.983   5.143   1.658
15246WAT     H245981   0.955   5.074   1.512
15247WAT      O45982   4.686   6.847   8.974
15247WAT     H145983   4.709   6.760   9.019
15247WAT     H245984   4.749   6.918   9.004
15248WAT      O45985   2.530   5.297   5.904
15248WAT     H145986   2.446   5.334   5.944
15248WAT     H245987   2.608   5.316   5.964
15249WAT      O45988   5.267   2.192   7.125
15249WAT     H145989   5.223   2.275   7.160
15249WAT     H245990   5.263   2.120   7.195
15250WAT      O45991   2.707   7.222   4.477
15250WAT     H145992   2.734   7.257   4.566
15250WAT     H245993   2.758   7.139   4.457
15251WAT      O45994   0.339   8.363   1.449
15251WAT     H145995   0.286   8.382   1.531
15251WAT     H245996   0.277   8.348   1.372
15252WAT      O45997   1.797   8.106   6.885
15252WAT     H145998   1.797   8.173   6.960
15252WAT     H245999   1.887   8.064   6.878
15253WAT      O46000   7.327   4.886   8.564
15253WAT     H146001   7.284   4.879   8.654
15253WAT     H246002   7.424   4.863   8.571
15254WAT      O46003   0.888   8.684   2.191
15254WAT     H146004   0.809   8.633   2.227
15254WAT     H246005   0.925   8.637   2.111
15255WAT      O46006   9.043   1.183   2.884
15255WAT     H146007   9.008   1.143   2.969
15255WAT     H246008   9.136   1.217   2.899
15256WAT      O46009   7.072   1.904   0.982
15256WAT     H146010   7.167   1.879   1.000
15256WAT     H246011   7.025   1.920   1.068
15257WAT      O46012   0.716   4.638   7.233
15257WAT     H146013   0.676   4.691   7.158
15257WAT     H246014   0.694   4.681   7.320
15258WAT      O46015   6.100   8.878   7.873
15258WAT     H146016   6.186   8.920   7.901
15258WAT     H246017   6.024   8.930   7.911
15259WAT      O46018   9.069   1.395   4.280
15259WAT     H146019   9.105   1.345   4.202
15259WAT     H246020   9.011   1.470   4.248
15260WAT      O46021   0.306   4.533   0.534
15260WAT     H146022   0.350   4.501   0.450
15260WAT     H246023   0.304   4.633   0.534
15261WAT      O46024   3.794   1.882   2.133
15261WAT     H146025   3.789   1.895   2.034
15261WAT     H246026   3.729   1.942   2.178
15262WAT      O46027   8.053   3.318   0.717
15262WAT     H146028   7.977   3.376   0.689
15262WAT     H246029   8.053   3.310   0.817
15263WAT      O46030   1.584   7.236   2.045
15263WAT     H146031   1.625   7.261   1.957
15263WAT     H246032   1.652   7.189   2.101
15264WAT      O46033   3.365   1.814   1.840
15264WAT     H146034   3.270   1.845   1.833
15264WAT     H246035   3.425   1.894   1.844
15265WAT      O46036   5.370   8.272   4.129
15265WAT     H146037   5.354   8.202   4.060
15265WAT     H246038   5.285   8.292   4.178
15266WAT      O46039   8.525   4.502   9.736
15266WAT     H146040   8.426   4.494   9.747
15266WAT     H246041   8.565   4.529   9.824
15267WAT      O46042   4.446   1.488   8.394
15267WAT     H146043   4.512   1.425   8.353
15267WAT     H246044   4.440   1.571   8.339
15268WAT      O46045   0.830   3.040   1.111
15268WAT     H146046   0.849   3.032   1.013
15268WAT     H246047   0.796   3.132   1.131
15269WAT      O46048   0.046   8.553   9.304
15269WAT     H146049   0.000   8.642   9.303
15269WAT     H246050   0.104   8.545   9.222
15270WAT      O46051   0.533   9.385   3.998
15270WAT     H146052   0.459   9.401   3.932
15270WAT     H246053   0.619   9.419   3.961
15271WAT      O46054   6.066   6.681   0.228
15271WAT     H146055   6.067   6.680   0.328
15271WAT     H246056   6.160   6.686   0.193
15272WAT      O46057   2.291   9.466   8.211
15272WAT     H146058   2.270   9.369   8.198
15272WAT     H246059   2.214   9.511   8.258
15273WAT      O46060   0.399   6.908   6.685
15273WAT     H146061   0.477   6.902   6.623
15273WAT     H246062   0.342   6.827   6.674
15274WAT      O46063   7.000   8.994   3.237
15274WAT     H146064   6.932   9.005   3.164
15274WAT     H246065   7.072   9.062   3.225
15275WAT      O46066   4.070   9.821   6.249
15275WAT     H146067   4.078   9.754   6.323
15275WAT     H246068   3.993   9.797   6.190
15276WAT      O46069   8.436   4.935   4.255
15276WAT     H146070   8.529   4.933   4.220
15276WAT     H246071   8.372   4.953   4.180
15277WAT      O46072   8.489   8.466   7.432
15277WAT     H146073   8.475   8.563   7.410
15277WAT     H246074   8.502   8.456   7.531
15278WAT      O46075   0.764   4.907   4.922
15278WAT     H146076   0.765   4.845   4.843
15278WAT     H246077   0.783   4.854   5.005
15279WAT      O46078   1.310   2.190   6.572
15279WAT     H146079   1.219   2.149   6.561
15279WAT     H246080   1.379   2.117   6.576
15280WAT      O46081   3.348   6.872   3.867
15280WAT     H146082   3.363   6.926   3.784
15280WAT     H246083   3.353   6.775   3.844
15281WAT      O46084   8.883   6.843   6.234
15281WAT     H146085   8.796   6.890   6.219
15281WAT     H246086   8.958   6.901   6.204
15282WAT      O46087   1.892   3.976   3.981
15282WAT     H146088   1.808   3.958   3.931
15282WAT     H246089   1.872   3.981   4.079
15283WAT      O46090   9.219   9.407   6.693
15283WAT     H146091   9.151   9.342   6.727
15283WAT     H246092   9.272   9.364   6.619
15284WAT      O46093   9.475   4.610   6.230
15284WAT     H146094   9.479   4.702   6.269
15284WAT     H246095   9.380   4.578   6.232
15285WAT      O46096   1.927   8.959   0.768
15285WAT     H146097   1.858   8.945   0.697
15285WAT     H246098   1.885   8.947   0.858
15286WAT      O46099   9.404   7.071   8.753
15286WAT     H146100   9.456   6.989   8.727
15286WAT     H246101   9.315   7.069   8.707
15287WAT      O46102   8.170   5.065   5.896
15287WAT     H146103   8.168   4.965   5.895
15287WAT     H246104   8.184   5.097   5.990
15288WAT      O46105   1.507   1.703   4.413
15288WAT     H146106   1.595   1.741   4.442
15288WAT     H246107   1.446   1.696   4.492
15289WAT      O46108   3.445   6.241   8.016
15289WAT     H146109   3.529   6.223   7.965
15289WAT     H246110   3.450   6.332   8.058
15290WAT      O46111   5.958   3.048   5.614
15290WAT     H146112   5.983   2.954   5.590
15290WAT     H246113   5.859   3.060   5.602
15291WAT      O46114   2.896   4.436   6.230
15291WAT     H146115   2.860   4.378   6.158
15291WAT     H246116   2.972   4.491   6.195
15292WAT      O46117   2.638   8.680   6.106
15292WAT     H146118   2.575   8.713   6.176
15292WAT     H246119   2.728   8.722   6.120
15293WAT      O46120   2.989   8.956   9.352
15293WAT     H146121   2.978   9.051   9.322
15293WAT     H246122   3.042   8.953   9.437
15294WAT      O46123   4.180   7.785   2.462
15294WAT     H146124   4.183   7.827   2.553
15294WAT     H246125   4.089   7.797   2.422
15295WAT      O46126   0.381   6.313   4.191
15295WAT     H146127   0.420   6.378   4.127
15295WAT     H246128   0.325   6.247   4.141
15296WAT      O46129   1.213   9.144   6.873
15296WAT     H146130   1.237   9.123   6.967
15296WAT     H246131   1.119   9.114   6.855
15297WAT      O46132   3.914   4.045   7.344
15297WAT     H146133   3.894   4.093   7.429
15297WAT     H246134   4.009   4.062   7.317
15298WAT      O46135   4.257   6.265   8.521
15298WAT     H146136   4.298   6.175   8.539
15298WAT     H246137   4.250   6.316   8.606
15299WAT      O46138   1.806   2.988   8.648
15299WAT     H146139   1.724   2.942   8.684
15299WAT     H246140   1.837   3.056   8.714
15300WAT      O46141   5.939   2.339   5.503
15300WAT     H146142   5.847   2.350   5.540
15300WAT     H246143   5.954   2.243   5.478
15301WAT      O46144   6.521   8.649   0.269
15301WAT     H146145   6.541   8.724   0.332
15301WAT     H246146   6.525   8.562   0.317
15302WAT      O46147   8.074   9.620   4.898
15302WAT     H146148   7.987   9.580   4.869
15302WAT     H246149   8.072   9.638   4.996
15303WAT      O46150   2.469   5.042   9.682
15303WAT     H146151   2.441   5.129   9.641
15303WAT     H246152   2.389   4.983   9.691
15304WAT      O46153   0.604   5.145   1.001
15304WAT     H146154   0.645   5.115   0.915
15304WAT     H246155   0.625   5.242   1.015
15305WAT      O46156   4.784   1.164   0.692
15305WAT     H146157   4.882   1.142   0.689
15305WAT     H246158   4.759   1.190   0.785
15306WAT      O46159   2.168   8.594   0.763
15306WAT     H146160   2.253   8.557   0.801
15306WAT     H246161   2.163   8.571   0.666
15307WAT      O46162   1.775   6.818   3.593
15307WAT     H146163   1.692   6.803   3.646
15307WAT     H246164   1.767   6.771   3.505
15308WAT      O46165   5.090   5.873   8.987
15308WAT     H146166   5.098   5.908   8.894
15308WAT     H246167   5.013   5.918   9.033
15309WAT      O46168   9.196   3.875   2.868
15309WAT     H146169   9.121   3.810   2.853
15309WAT     H246170   9.282   3.836   2.836
15310WAT      O46171   6.387   0.521   4.369
15310WAT     H146172   6.365   0.423   4.364
15310WAT     H246173   6.308   0.574   4.337
15311WAT      O46174   9.872   9.770   5.986
15311WAT     H146175   9.804   9.771   6.058
15311WAT     H246176   9.847   9.704   5.916
15312WAT      O46177   3.673   4.370   9.049
15312WAT     H146178   3.604   4.418   9.104
15312WAT     H246179   3.714   4.434   8.984
15313WAT      O46180   8.256   0.005   0.774
15313WAT     H146181   8.186   0.038   0.838
15313WAT     H246182   8.345   0.002   0.820
15314WAT      O46183   1.945   8.935   1.389
15314WAT     H146184   1.855   8.973   1.371
15314WAT     H246185   1.975   8.882   1.309
15315WAT      O46186   6.626   7.910   4.532
15315WAT     H146187   6.533   7.873   4.530
15315WAT     H246188   6.649   7.948   4.442
15316WAT      O46189   6.652   6.986   7.337
15316WAT     H146190   6.624   7.072   7.295
15316WAT     H246191   6.746   6.995   7.370
15317WAT      O46192   5.372   8.977   0.129
15317WAT     H146193   5.471   8.961   0.133
15317WAT     H246194   5.324   8.892   0.152
15318WAT      O46195   8.231   9.298   9.023
15318WAT     H146196   8.243   9.345   8.936
15318WAT     H246197   8.268   9.206   9.017
15319WAT      O46198   8.750   5.362   6.689
15319WAT     H146199   8.836   5.322   6.656
15319WAT     H246200   8.678   5.293   6.686
15320WAT      O46201   7.590   4.222   8.311
15320WAT     H146202   7.496   4.196   8.288
15320WAT     H246203   7.610   4.312   8.272
15321WAT      O46204   7.310   5.239   5.138
15321WAT     H146205   7.350   5.245   5.046
15321WAT     H246206   7.298   5.143   5.162
15322WAT      O46207   6.312   3.799   6.536
15322WAT     H146208   6.355   3.745   6.463
15322WAT     H246209   6.346   3.893   6.531
15323WAT      O46210   0.991   1.765   2.856
15323WAT     H146211   0.942   1.833   2.801
15323WAT     H246212   1.072   1.734   2.806
15324WAT      O46213   8.118   4.172   0.560
15324WAT     H146214   8.049   4.242   0.581
15324WAT     H246215   8.171   4.201   0.480
15325WAT      O46216   0.719   8.652   4.902
15325WAT     H146217   0.658   8.647   4.823
15325WAT     H246218   0.792   8.718   4.885
15326WAT      O46219   0.717   2.885   7.238
15326WAT     H146220   0.780   2.910   7.165
15326WAT     H246221   0.652   2.960   7.254
15327WAT      O46222   0.864   2.240   2.238
15327WAT     H146223   0.846   2.144   2.216
15327WAT     H246224   0.895   2.287   2.155
15328WAT      O46225   6.458   3.422   9.483
15328WAT     H146226   6.553   3.392   9.478
15328WAT     H246227   6.447   3.482   9.562
15329WAT      O46228   3.345   8.568   8.362
15329WAT     H146229   3.249   8.541   8.368
15329WAT     H246230   3.384   8.534   8.276
15330WAT      O46231   4.564   0.599   3.377
15330WAT     H146232   4.629   0.673   3.365
15330WAT     H246233   4.593   0.519   3.323
15331WAT      O46234   7.258   2.038   0.699
15331WAT     H146235   7.331   1.971   0.684
15331WAT     H246236   7.248   2.096   0.618
15332WAT      O46237   8.442   6.361   9.127
15332WAT     H146238   8.409   6.270   9.151
15332WAT     H246239   8.365   6.419   9.100
15333WAT      O46240   8.629   6.100   7.835
15333WAT     H146241   8.638   6.167   7.762
15333WAT     H246242   8.705   6.035   7.831
15334WAT      O46243   5.722   3.207   9.778
15334WAT     H146244   5.715   3.298   9.819
15334WAT     H246245   5.632   3.176   9.747
15335WAT      O46246   2.193   3.799   8.182
15335WAT     H146247   2.167   3.703   8.171
15335WAT     H246248   2.258   3.808   8.257
15336WAT      O46249   4.068   6.441   2.352
15336WAT     H146250   4.145   6.503   2.361
15336WAT     H246251   4.044   6.404   2.442
15337WAT      O46252   2.278   4.323   7.153
15337WAT     H146253   2.235   4.267   7.224
15337WAT     H246254   2.216   4.333   7.076
15338WAT      O46255   9.599   4.141   8.380
15338WAT     H146256   9.616   4.225   8.432
15338WAT     H246257   9.664   4.135   8.303
15339WAT      O46258   9.402   8.164   0.680
15339WAT     H146259   9.415   8.260   0.705
15339WAT     H246260   9.482   8.111   0.707
15340WAT      O46261   2.255   3.034   0.506
15340WAT     H146262   2.355   3.025   0.497
15340WAT     H246263   2.224   2.983   0.586
15341WAT      O46264   7.672   4.011   6.770
15341WAT     H146265   7.761   4.014   6.725
15341WAT     H246266   7.610   4.076   6.726
15342WAT      O46267   2.928   4.966   9.074
15342WAT     H146268   2.877   4.936   9.155
15342WAT     H246269   2.892   4.919   8.993
15343WAT      O46270   7.977   5.531   6.489
15343WAT     H146271   7.896   5.485   6.525
15343WAT     H246272   7.987   5.621   6.532
15344WAT      O46273   3.567   5.100   7.103
15344WAT     H146274   3.575   5.057   7.013
15344WAT     H246275   3.471   5.097   7.133
15345WAT      O46276   9.464   9.756   5.052
15345WAT     H146277   9.394   9.695   5.090
15345WAT     H246278   9.497   9.718   4.965
15346WAT      O46279   1.755   6.461   7.950
15346WAT     H146280   1.709   6.437   8.036
15346WAT     H246281   1.713   6.543   7.911
15347WAT      O46282   4.552   5.853   1.202
15347WAT     H146283   4.514   5.777   1.149
15347WAT     H246284   4.636   5.886   1.159
15348WAT      O46285   5.230   9.735   1.601
15348WAT     H146286   5.147   9.767   1.556
15348WAT     H246287   5.244   9.638   1.580
15349WAT      O46288   5.245   6.526   5.891
15349WAT     H146289   5.174   6.523   5.821
15349WAT     H246290   5.212   6.577   5.971
15350WAT      O46291   4.131   0.743   7.843
15350WAT     H146292   4.223   0.769   7.813
15350WAT     H246293   4.064   0.807   7.806
15351WAT      O46294   5.239   1.873   1.557
15351WAT     H146295   5.269   1.785   1.521
15351WAT     H246296   5.298   1.946   1.523
15352WAT      O46297   0.207   4.185   1.366
15352WAT     H146298   0.159   4.270   1.343
15352WAT     H246299   0.277   4.167   1.296
15353WAT      O46300   1.381   5.508   3.951
15353WAT     H146301   1.439   5.585   3.976
15353WAT     H246302   1.304   5.541   3.896
15354WAT      O46303   8.522   5.708   2.529
15354WAT     H146304   8.582   5.759   2.467
15354WAT     H246305   8.467   5.643   2.475
15355WAT      O46306   5.770   6.544   3.139
15355WAT     H146307   5.754   6.567   3.043
15355WAT     H246308   5.762   6.445   3.152
15356WAT      O46309   1.675   4.653   4.113
15356WAT     H146310   1.676   4.665   4.014
15356WAT     H246311   1.596   4.701   4.152
15357WAT      O46312   1.107   8.942   9.419
15357WAT     H146313   1.086   9.030   9.461
15357WAT     H246314   1.174   8.954   9.346
15358WAT      O46315   1.634   6.215   3.040
15358WAT     H146316   1.603   6.255   2.954
15358WAT     H246317   1.624   6.116   3.036
15359WAT      O46318   8.251   8.965   7.666
15359WAT     H146319   8.156   8.995   7.677
15359WAT     H246320   8.261   8.873   7.705
15360WAT      O46321   6.996   7.348   7.670
15360WAT     H146322   7.045   7.385   7.591
15360WAT     H246323   7.044   7.372   7.754
15361WAT      O46324   3.084   5.831   4.464
15361WAT     H146325   3.074   5.733   4.445
15361WAT     H246326   3.155   5.870   4.405
15362WAT      O46327   6.867   0.019   7.642
15362WAT     H146328   6.935  -0.008   7.710
15362WAT     H246329   6.913   0.050   7.559
15363WAT      O46330   8.921   9.422   5.342
15363WAT     H146331   8.849   9.480   5.379
15363WAT     H246332   8.887   9.373   5.261
15364WAT      O46333   0.738   1.954   2.997
15364WAT     H146334   0.716   1.859   3.016
15364WAT     H246335   0.784   1.961   2.908
15365WAT      O46336   8.315   0.726   8.605
15365WAT     H146337   8.244   0.789   8.636
15365WAT     H246338   8.311   0.641   8.657
15366WAT      O46339   9.309   6.105   1.518
15366WAT     H146340   9.298   6.187   1.574
15366WAT     H246341   9.335   6.131   1.425
15367WAT      O46342   3.708   5.745   0.611
15367WAT     H146343   3.797   5.786   0.633
15367WAT     H246344   3.667   5.794   0.534
15368WAT      O46345   0.597   8.279   0.744
15368WAT     H146346   0.601   8.183   0.716
15368WAT     H246347   0.551   8.332   0.674
15369WAT      O46348   6.004   4.100   3.527
15369WAT     H146349   6.078   4.167   3.523
15369WAT     H246350   6.038   4.015   3.567
15370WAT      O46351   8.311   3.753   8.816
15370WAT     H146352   8.355   3.684   8.873
15370WAT     H246353   8.235   3.795   8.867
15371WAT      O46354   3.273   7.715   8.547
15371WAT     H146355   3.217   7.652   8.600
15371WAT     H246356   3.364   7.724   8.589
15372WAT      O46357   7.937   4.996   8.112
15372WAT     H146358   7.951   5.029   8.205
15372WAT     H246359   7.971   4.902   8.104
15373WAT      O46360   3.601   0.564   2.038
15373WAT     H146361   3.637   0.634   2.100
15373WAT     H246362   3.582   0.604   1.949
15374WAT      O46363   7.253   2.948   5.379
15374WAT     H146364   7.236   3.007   5.458
15374WAT     H246365   7.167   2.927   5.334
15375WAT      O46366   4.820   4.406   6.850
15375WAT     H146367   4.753   4.462   6.802
15375WAT     H246368   4.786   4.312   6.856
15376WAT      O46369   7.592   2.256   6.482
15376WAT     H146370   7.496   2.228   6.483
15376WAT     H246371   7.623   2.273   6.575
15377WAT      O46372   7.117   9.796   1.598
15377WAT     H146373   7.113   9.721   1.532
15377WAT     H246374   7.073   9.877   1.559
15378WAT      O46375   6.532   3.272   5.524
15378WAT     H146376   6.593   3.342   5.561
15378WAT     H246377   6.437   3.294   5.548
15379WAT      O46378   3.528   8.712   0.815
15379WAT     H146379   3.459   8.754   0.872
15379WAT     H246380   3.611   8.695   0.869
15380WAT      O46381   9.178   1.443   8.513
15380WAT     H146382   9.263   1.416   8.558
15380WAT     H246383   9.144   1.367   8.458
15381WAT      O46384   4.904   3.186   1.454
15381WAT     H146385   4.814   3.201   1.413
15381WAT     H246386   4.931   3.091   1.441
15382WAT      O46387   2.121   0.133   5.203
15382WAT     H146388   2.082   0.041   5.210
15382WAT     H246389   2.052   0.200   5.230
15383WAT      O46390   5.825   5.114   8.070
15383WAT     H146391   5.885   5.130   7.992
15383WAT     H246392   5.729   5.119   8.040
15384WAT      O46393   7.027   9.257   6.551
15384WAT     H146394   6.939   9.228   6.516
15384WAT     H246395   7.064   9.187   6.613
15385WAT      O46396   1.059   5.934   5.205
15385WAT     H146397   0.983   5.994   5.231
15385WAT     H246398   1.134   5.946   5.270
15386WAT      O46399   1.170   1.091   1.272
15386WAT     H146400   1.202   1.152   1.344
15386WAT     H246401   1.106   1.140   1.213
15387WAT      O46402   2.375   1.178   2.289
15387WAT     H146403   2.295   1.149   2.237
15387WAT     H246404   2.413   1.101   2.339
15388WAT      O46405   2.988   1.662   5.661
15388WAT     H146406   2.916   1.611   5.706
15388WAT     H246407   3.026   1.608   5.586
15389WAT      O46408   3.297   7.886   2.631
15389WAT     H146409   3.197   7.881   2.626
15389WAT     H246410   3.328   7.849   2.719
15390WAT      O46411   6.331   9.758   6.348
15390WAT     H146412   6.405   9.690   6.342
15390WAT     H246413   6.326   9.808   6.261
15391WAT      O46414   1.231   4.133   8.127
15391WAT     H146415   1.312   4.110   8.181
15391WAT     H246416   1.227   4.074   8.046
15392WAT      O46417   8.228   9.457   9.752
15392WAT     H146418   8.305   9.476   9.691
15392WAT     H246419   8.239   9.509   9.837
15393WAT      O46420   1.595   8.043   6.730
15393WAT     H146421   1.659   8.087   6.794
15393WAT     H246422   1.590   7.945   6.750
15394WAT      O46423   0.469   4.805   8.975
15394WAT     H146424   0.478   4.898   8.940
15394WAT     H246425   0.508   4.741   8.910
15395WAT      O46426   7.272   5.520   9.275
15395WAT     H146427   7.302   5.558   9.188
15395WAT     H246428   7.199   5.453   9.258
15396WAT      O46429   9.763   3.487   1.606
15396WAT     H146430   9.794   3.510   1.698
15396WAT     H246431   9.793   3.395   1.583
15397WAT      O46432   1.794   5.928   6.200
15397WAT     H146433   1.749   5.886   6.121
15397WAT     H246434   1.725   5.955   6.267
15398WAT      O46435   8.921   4.402   3.473
15398WAT     H146436   8.893   4.359   3.388
15398WAT     H246437   8.972   4.336   3.529
15399WAT      O46438   7.775   7.193   5.265
15399WAT     H146439   7.743   7.129   5.195
15399WAT     H246440   7.697   7.247   5.298
15400WAT      O46441   0.432   0.020   7.084
15400WAT     H146442   0.484   0.017   7.169
15400WAT     H246443   0.495   0.020   7.006
15401WAT      O46444   2.328   5.183   3.981
15401WAT     H146445   2.313   5.093   4.020
15401WAT     H246446   2.340   5.250   4.054
15402WAT      O46447   0.868   2.880   0.847
15402WAT     H146448   0.941   2.840   0.902
15402WAT     H246449   0.788   2.820   0.850
15403WAT      O46450   4.547   5.485   1.534
15403WAT     H146451   4.532   5.443   1.445
15403WAT     H246452   4.540   5.585   1.526
15404WAT      O46453   8.985   4.797   6.410
15404WAT     H146454   9.079   4.813   6.379
15404WAT     H246455   8.939   4.734   6.346
15405WAT      O46456   2.355   9.545   8.583
15405WAT     H146457   2.382   9.477   8.514
15405WAT     H246458   2.260   9.570   8.569
15406WAT      O46459   7.236   2.587   8.076
15406WAT     H146460   7.138   2.606   8.069
15406WAT     H246461   7.268   2.549   7.989
15407WAT      O46462   0.451   2.118   5.578
15407WAT     H146463   0.386   2.089   5.508
15407WAT     H246464   0.466   2.216   5.572
15408WAT      O46465   0.103   0.113   4.474
15408WAT     H146466   0.158   0.091   4.555
15408WAT     H246467   0.151   0.183   4.420
15409WAT      O46468   8.066   7.746   4.120
15409WAT     H146469   8.067   7.727   4.218
15409WAT     H246470   8.147   7.798   4.095
15410WAT      O46471   4.918   1.103   0.359
15410WAT     H146472   4.938   1.178   0.295
15410WAT     H246473   5.004   1.059   0.386
15411WAT      O46474   0.437   6.555   0.527
15411WAT     H146475   0.342   6.530   0.509
15411WAT     H246476   0.482   6.480   0.577
15412WAT      O46477   3.142   7.494   4.884
15412WAT     H146478   3.134   7.394   4.884
15412WAT     H246479   3.230   7.520   4.922
15413WAT      O46480   9.272   6.255   5.317
15413WAT     H146481   9.333   6.333   5.329
15413WAT     H246482   9.203   6.277   5.248
15414WAT      O46483   7.869   2.426   3.038
15414WAT     H146484   7.872   2.421   2.938
15414WAT     H246485   7.859   2.335   3.076
15415WAT      O46486   9.276   9.095   9.282
15415WAT     H146487   9.237   9.023   9.340
15415WAT     H246488   9.372   9.107   9.305
15416WAT      O46489   3.925   5.300   2.219
15416WAT     H146490   3.961   5.394   2.217
15416WAT     H246491   3.889   5.276   2.129
15417WAT      O46492   2.775   2.195   0.402
15417WAT     H146493   2.683   2.231   0.411
15417WAT     H246494   2.802   2.195   0.306
15418WAT      O46495   3.766   5.405   6.133
15418WAT     H146496   3.779   5.399   6.232
15418WAT     H246497   3.794   5.319   6.091
15419WAT      O46498   7.331   9.504   4.098
15419WAT     H146499   7.363   9.497   4.193
15419WAT     H246500   7.394   9.456   4.038
15420WAT      O46501   4.736   1.426   2.038
15420WAT     H146502   4.682   1.347   2.009
15420WAT     H246503   4.755   1.484   1.960
15421WAT      O46504   1.952   8.940   6.366
15421WAT     H146505   1.927   8.888   6.447
15421WAT     H246506   2.036   8.903   6.327
15422WAT      O46507   6.912   3.176   9.384
15422WAT     H146508   6.980   3.112   9.422
15422WAT     H246509   6.846   3.125   9.328
15423WAT      O46510   1.697   5.904   3.968
15423WAT     H146511   1.763   5.842   3.926
15423WAT     H246512   1.624   5.925   3.903
15424WAT      O46513   1.126   5.527   8.335
15424WAT     H146514   1.105   5.431   8.354
15424WAT     H246515   1.085   5.553   8.248
15425WAT      O46516   5.711   0.576   2.372
15425WAT     H146517   5.623   0.582   2.417
15425WAT     H246518   5.705   0.514   2.294
15426WAT      O46519   9.880   4.923   6.688
15426WAT     H146520   9.850   4.828   6.679
15426WAT     H246521   9.980   4.927   6.690
15427WAT      O46522   3.842   9.365   0.828
15427WAT     H146523   3.904   9.303   0.781
15427WAT     H246524   3.873   9.460   0.815
15428WAT      O46525   2.723   2.083   5.984
15428WAT     H146526   2.681   2.014   5.925
15428WAT     H246527   2.716   2.173   5.941
15429WAT      O46528   2.899   6.374   9.831
15429WAT     H146529   2.915   6.308   9.757
15429WAT     H246530   2.936   6.337   9.916
15430WAT      O46531   7.730   8.181   2.081
15430WAT     H146532   7.658   8.113   2.096
15430WAT     H246533   7.689   8.265   2.046
15431WAT      O46534   2.346   7.835   7.670
15431WAT     H146535   2.382   7.748   7.638
15431WAT     H246536   2.254   7.821   7.708
15432WAT      O46537   2.841   3.354   6.433
15432WAT     H146538   2.781   3.281   6.468
15432WAT     H246539   2.851   3.343   6.334
15433WAT      O46540   5.156   8.559   8.295
15433WAT     H146541   5.095   8.573   8.217
15433WAT     H246542   5.121   8.485   8.352
15434WAT      O46543   6.807   5.183   7.567
15434WAT     H146544   6.790   5.156   7.472
15434WAT     H246545   6.742   5.255   7.593
15435WAT      O46546   3.793   6.754   6.750
15435WAT     H146547   3.754   6.834   6.796
15435WAT     H246548   3.893   6.757   6.758
15436WAT      O46549   7.467   3.677   7.710
15436WAT     H146550   7.540   3.667   7.642
15436WAT     H246551   7.415   3.760   7.689
15437WAT      O46552   8.112   3.950   0.702
15437WAT     H146553   8.100   4.026   0.637
15437WAT     H246554   8.119   3.864   0.652
15438WAT      O46555   6.442   6.827   1.343
15438WAT     H146556   6.412   6.766   1.416
15438WAT     H246557   6.542   6.829   1.341
15439WAT      O46558   3.121   6.471   2.001
15439WAT     H146559   3.037   6.486   1.948
15439WAT     H246560   3.197   6.520   1.958
15440WAT      O46561   5.057   7.052   1.201
15440WAT     H146562   5.029   7.129   1.143
15440WAT     H246563   5.148   7.071   1.238
15441WAT      O46564   1.594   8.335   8.915
15441WAT     H146565   1.544   8.398   8.855
15441WAT     H246566   1.634   8.386   8.991
15442WAT      O46567   0.950   5.427   6.705
15442WAT     H146568   1.021   5.375   6.752
15442WAT     H246569   0.862   5.410   6.749
15443WAT      O46570   0.360   2.255   6.079
15443WAT     H146571   0.373   2.354   6.070
15443WAT     H246572   0.402   2.209   6.001
15444WAT      O46573   2.768   7.147   5.323
15444WAT     H146574   2.826   7.097   5.387
15444WAT     H246575   2.791   7.245   5.326
15445WAT      O46576   6.863   8.308   4.354
15445WAT     H146577   6.887   8.388   4.299
15445WAT     H246578   6.778   8.268   4.320
15446WAT      O46579   6.038   5.350   7.916
15446WAT     H146580   6.127   5.368   7.874
15446WAT     H246581   6.006   5.259   7.889
15447WAT      O46582   7.107   6.176   6.966
15447WAT     H146583   7.030   6.112   6.967
15447WAT     H246584   7.127   6.203   6.872
15448WAT      O46585   4.653   1.263   0.469
15448WAT     H146586   4.683   1.186   0.413
15448WAT     H246587   4.664   1.240   0.566
15449WAT      O46588   6.928   2.633   7.067
15449WAT     H146589   6.868   2.683   7.130
15449WAT     H246590   6.883   2.548   7.039
15450WAT      O46591   2.431   9.084   8.905
15450WAT     H146592   2.477   9.172   8.894
15450WAT     H246593   2.334   9.100   8.922
15451WAT      O46594   9.331   5.631   9.347
15451WAT     H146595   9.369   5.688   9.274
15451WAT     H246596   9.404   5.603   9.409
15452WAT      O46597   0.146   7.506   3.467
15452WAT     H146598   0.201   7.425   3.446
15452WAT     H246599   0.064   7.478   3.517
15453WAT      O46600   1.145   1.465   4.217
15453WAT     H146601   1.182   1.488   4.307
15453WAT     H246602   1.219   1.431   4.158
15454WAT      O46603   6.847   1.903   4.507
15454WAT     H146604   6.803   1.865   4.426
15454WAT     H246605   6.831   2.002   4.510
15455WAT      O46606   5.745   1.032   4.626
15455WAT     H146607   5.725   1.065   4.534
15455WAT     H246608   5.661   1.029   4.680
15456WAT      O46609   5.206   5.543   6.543
15456WAT     H146610   5.302   5.566   6.530
15456WAT     H246611   5.167   5.512   6.456
15457WAT      O46612   4.095   8.860   5.348
15457WAT     H146613   4.031   8.802   5.298
15457WAT     H246614   4.179   8.871   5.294
15458WAT      O46615   3.717   6.636   4.917
15458WAT     H146616   3.754   6.685   4.997
15458WAT     H246617   3.781   6.564   4.890
15459WAT      O46618   3.189   0.388   0.196
15459WAT     H146619   3.268   0.439   0.228
15459WAT     H246620   3.125   0.374   0.271
15460WAT      O46621   1.394   4.857   0.396
15460WAT     H146622   1.493   4.874   0.404
15460WAT     H246623   1.374   4.818   0.306
15461WAT      O46624   5.022   3.251   9.060
15461WAT     H146625   4.970   3.245   9.145
15461WAT     H246626   5.106   3.198   9.068
15462WAT      O46627   8.865   7.194   6.473
15462WAT     H146628   8.819   7.168   6.388
15462WAT     H246629   8.920   7.276   6.457
15463WAT      O46630   5.312   0.525   0.539
15463WAT     H146631   5.356   0.502   0.452
15463WAT     H246632   5.354   0.473   0.613
15464WAT      O46633   4.739   4.057   6.659
15464WAT     H146634   4.708   3.989   6.593
15464WAT     H246635   4.823   4.100   6.627
15465WAT      O46636   9.267   0.055   3.365
15465WAT     H146637   9.189   0.009   3.407
15465WAT     H246638   9.352   0.010   3.394
15466WAT      O46639   9.233   7.968   0.819
15466WAT     H146640   9.260   8.040   0.756
15466WAT     H246641   9.312   7.936   0.870
15467WAT      O46642   9.310   7.261   5.573
15467WAT     H146643   9.369   7.216   5.639
15467WAT     H246644   9.260   7.335   5.617
15468WAT      O46645   8.376   2.641   9.343
15468WAT     H146646   8.403   2.732   9.310
15468WAT     H246647   8.345   2.648   9.438
15469WAT      O46648   1.594   0.896   4.857
15469WAT     H146649   1.507   0.878   4.904
15469WAT     H246650   1.578   0.905   4.759
15470WAT      O46651   2.824   8.785   9.234
15470WAT     H146652   2.869   8.853   9.291
15470WAT     H246653   2.800   8.826   9.146
15471WAT      O46654   4.718   2.350   1.429
15471WAT     H146655   4.674   2.322   1.344
15471WAT     H246656   4.651   2.353   1.503
15472WAT      O46657   8.937   6.805   0.791
15472WAT     H146658   8.838   6.798   0.782
15472WAT     H246659   8.978   6.816   0.700
15473WAT      O46660   2.939   0.688   1.892
15473WAT     H146661   3.022   0.660   1.938
15473WAT     H246662   2.907   0.775   1.930
15474WAT      O46663   8.918   5.219   8.883
15474WAT     H146664   8.822   5.238   8.899
15474WAT     H246665   8.947   5.260   8.796
15475WAT      O46666   4.713   5.608   6.229
15475WAT     H146667   4.696   5.694   6.277
15475WAT     H246668   4.771   5.549   6.285
15476WAT      O46669   5.427   3.247   2.134
15476WAT     H146670   5.440   3.149   2.119
15476WAT     H246671   5.511   3.296   2.111
15477WAT      O46672   5.740   6.381   0.367
15477WAT     H146673   5.817   6.400   0.307
15477WAT     H246674   5.758   6.299   0.421
15478WAT      O46675   8.421   6.195   2.490
15478WAT     H146676   8.458   6.151   2.408
15478WAT     H246677   8.391   6.288   2.467
15479WAT      O46678   6.399   7.721   3.146
15479WAT     H146679   6.483   7.751   3.102
15479WAT     H246680   6.416   7.705   3.243
15480WAT      O46681   7.947   1.207   0.259
15480WAT     H146682   7.872   1.260   0.298
15480WAT     H246683   7.992   1.153   0.330
15481WAT      O46684   3.630   6.459   9.194
15481WAT     H146685   3.634   6.513   9.109
15481WAT     H246686   3.723   6.448   9.230
15482WAT      O46687   1.973   2.327   9.085
15482WAT     H146688   1.902   2.343   9.154
15482WAT     H246689   1.929   2.312   8.996
15483WAT      O46690   6.257   7.249   7.465
15483WAT     H146691   6.353   7.267   7.488
15483WAT     H246692   6.252   7.201   7.377
15484WAT      O46693   6.116   2.778   6.584
15484WAT     H146694   6.178   2.838   6.535
15484WAT     H246695   6.025   2.819   6.587
15485WAT      O46696   0.902   2.453   9.249
15485WAT     H146697   0.968   2.525   9.268
15485WAT     H246698   0.943   2.387   9.185
15486WAT      O46699   5.303   4.935   8.175
15486WAT     H146700   5.286   5.004   8.246
15486WAT     H246701   5.389   4.888   8.195
15487WAT      O46702   7.338   4.378   9.005
15487WAT     H146703   7.346   4.468   8.962
15487WAT     H246704   7.422   4.326   8.989
15488WAT      O46705   6.351   4.105   0.932
15488WAT     H146706   6.427   4.065   0.983
15488WAT     H246707   6.359   4.204   0.931
15489WAT      O46708   2.516   9.331   8.783
15489WAT     H146709   2.504   9.430   8.796
15489WAT     H246710   2.613   9.310   8.775
15490WAT      O46711   3.852   3.947   6.140
15490WAT     H146712   3.818   4.011   6.209
15490WAT     H246713   3.887   3.865   6.187
15491WAT      O46714   6.612   3.958   1.995
15491WAT     H146715   6.594   3.870   2.037
15491WAT     H246716   6.708   3.962   1.965
15492WAT      O46717   4.477   6.745   7.511
15492WAT     H146718   4.542   6.744   7.436
15492WAT     H246719   4.511   6.804   7.584
15493WAT      O46720   9.050   2.416   8.880
15493WAT     H146721   9.085   2.473   8.955
15493WAT     H246722   9.117   2.413   8.806
15494WAT      O46723   6.246   6.324   7.154
15494WAT     H146724   6.283   6.394   7.216
15494WAT     H246725   6.169   6.278   7.198
15495WAT      O46726   2.751   6.154   8.048
15495WAT     H146727   2.786   6.098   8.123
15495WAT     H246728   2.822   6.218   8.018
15496WAT      O46729   0.874   3.283   7.552
15496WAT     H146730   0.820   3.306   7.471
15496WAT     H246731   0.920   3.196   7.537
15497WAT      O46732   0.423   6.559   9.544
15497WAT     H146733   0.447   6.656   9.542
15497WAT     H246734   0.400   6.532   9.638
15498WAT      O46735   5.063   6.512   3.056
15498WAT     H146736   5.151   6.551   3.030
15498WAT     H246737   5.006   6.501   2.974
15499WAT      O46738   9.196   7.006   8.592
15499WAT     H146739   9.187   7.074   8.519
15499WAT     H246740   9.168   6.916   8.558
15500WAT      O46741   0.318   6.899   4.777
15500WAT     H146742   0.384   6.958   4.823
15500WAT     H246743   0.298   6.820   4.835
15501WAT      O46744   7.081   7.780   2.570
15501WAT     H146745   7.117   7.688   2.555
15501WAT     H246746   7.000   7.793   2.512
15502WAT      O46747   8.158   6.124   8.779
15502WAT     H146748   8.087   6.054   8.777
15502WAT     H246749   8.121   6.210   8.743
15503WAT      O46750   2.536   8.656   3.127
15503WAT     H146751   2.628   8.626   3.150
15503WAT     H246752   2.534   8.690   3.033
15504WAT      O46753   9.873   2.546   4.322
15504WAT     H146754   9.923   2.619   4.276
15504WAT     H246755   9.840   2.481   4.255
15505WAT      O46756   0.990   8.026   5.698
15505WAT     H146757   1.000   8.002   5.602
15505WAT     H246758   1.031   8.115   5.715
15506WAT      O46759   7.312   2.284   8.939
15506WAT     H146760   7.242   2.254   9.003
15506WAT     H246761   7.355   2.368   8.973
15507WAT      O46762   4.441   2.330   8.720
15507WAT     H146763   4.413   2.235   8.722
15507WAT     H246764   4.368   2.386   8.681
15508WAT      O46765   6.611   0.929   1.642
15508WAT     H146766   6.654   1.004   1.593
15508WAT     H246767   6.641   0.931   1.738
15509WAT      O46768   4.435   8.160   7.133
15509WAT     H146769   4.399   8.072   7.102
15509WAT     H246770   4.526   8.174   7.095
15510WAT      O46771   8.715   6.667   9.323
15510WAT     H146772   8.777   6.732   9.366
15510WAT     H246773   8.644   6.717   9.273
15511WAT      O46774   9.494   3.056   3.770
15511WAT     H146775   9.414   3.056   3.830
15511WAT     H246776   9.488   2.979   3.706
15512WAT      O46777   2.146   0.007   1.111
15512WAT     H146778   2.121  -0.076   1.061
15512WAT     H246779   2.096   0.011   1.197
15513WAT      O46780   0.447   5.176   1.552
15513WAT     H146781   0.536   5.145   1.586
15513WAT     H246782   0.454   5.271   1.523
15514WAT      O46783   9.125   2.428   1.151
15514WAT     H146784   9.072   2.350   1.118
15514WAT     H246785   9.193   2.454   1.083
15515WAT      O46786   4.092   3.002   7.410
15515WAT     H146787   4.057   2.978   7.319
15515WAT     H246788   4.165   2.938   7.435
15516WAT      O46789   8.393   2.689   0.456
15516WAT     H146790   8.415   2.623   0.384
15516WAT     H246791   8.293   2.691   0.469
15517WAT      O46792   0.856   4.041   7.463
15517WAT     H146793   0.913   4.040   7.545
15517WAT     H246794   0.795   4.120   7.466
15518WAT      O46795   1.212   4.396   3.551
15518WAT     H146796   1.255   4.308   3.570
15518WAT     H246797   1.242   4.463   3.619
15519WAT      O46798   9.275   0.204   6.030
15519WAT     H146799   9.297   0.245   6.118
15519WAT     H246800   9.337   0.238   5.960
15520WAT      O46801   6.489   8.005   2.236
15520WAT     H146802   6.390   8.010   2.254
15520WAT     H246803   6.530   7.939   2.299
15521WAT      O46804   9.060   1.496   8.018
15521WAT     H146805   9.107   1.566   8.072
15521WAT     H246806   8.989   1.454   8.074
15522WAT      O46807   6.238   5.836   3.814
15522WAT     H146808   6.320   5.889   3.835
15522WAT     H246809   6.244   5.746   3.857
15523WAT      O46810   3.849   2.786   2.872
15523WAT     H146811   3.811   2.870   2.909
15523WAT     H246812   3.897   2.736   2.944
15524WAT      O46813   5.332   3.394   7.170
15524WAT     H146814   5.248   3.446   7.184
15524WAT     H246815   5.398   3.449   7.120
15525WAT      O46816   3.037   5.734   8.990
15525WAT     H146817   3.097   5.661   8.955
15525WAT     H246818   3.090   5.793   9.052
15526WAT      O46819   1.512   0.438   1.007
15526WAT     H146820   1.437   0.501   1.030
15526WAT     H246821   1.486   0.345   1.034
15527WAT      O46822   6.400   8.122   5.852
15527WAT     H146823   6.354   8.145   5.765
15527WAT     H246824   6.364   8.182   5.924
15528WAT      O46825   6.311   9.641   7.835
15528WAT     H146826   6.377   9.604   7.900
15528WAT     H246827   6.243   9.696   7.884
15529WAT      O46828   9.093   3.669   7.143
15529WAT     H146829   9.121   3.723   7.064
15529WAT     H246830   9.007   3.704   7.179
15530WAT      O46831   0.173   5.430   3.768
15530WAT     H146832   0.259   5.482   3.778
15530WAT     H246833   0.112   5.479   3.705
15531WAT      O46834   9.241   0.712   1.400
15531WAT     H146835   9.273   0.672   1.486
15531WAT     H246836   9.144   0.732   1.407
15532WAT      O46837   2.835   7.741   1.707
15532WAT     H146838   2.879   7.811   1.763
15532WAT     H246839   2.743   7.771   1.681
15533WAT      O46840   2.402   4.852   1.315
15533WAT     H146841   2.490   4.813   1.340
15533WAT     H246842   2.372   4.814   1.227
15534WAT      O46843   1.693   9.019   5.014
15534WAT     H146844   1.652   9.105   4.983
15534WAT     H246845   1.709   9.023   5.112
15535WAT      O46846   4.723   3.842   4.467
15535WAT     H146847   4.715   3.742   4.463
15535WAT     H246848   4.718   3.872   4.562
15536WAT      O46849   0.549   3.422   5.725
15536WAT     H146850   0.602   3.388   5.803
15536WAT     H246851   0.478   3.356   5.701
15537WAT      O46852   7.761   7.397   0.595
15537WAT     H146853   7.831   7.466   0.580
15537WAT     H246854   7.752   7.340   0.514
15538WAT      O46855   1.845   0.633   3.854
15538WAT     H146856   1.845   0.629   3.954
15538WAT     H246857   1.784   0.563   3.817
15539WAT      O46858   2.645   4.413   3.483
15539WAT     H146859   2.653   4.331   3.539
15539WAT     H246860   2.699   4.402   3.399
15540WAT      O46861   0.546   9.463   5.641
15540WAT     H146862   0.461   9.451   5.590
15540WAT     H246863   0.529   9.521   5.721
15541WAT      O46864   9.596   2.559   2.951
15541WAT     H146865   9.578   2.657   2.941
15541WAT     H246866   9.681   2.536   2.905
15542WAT      O46867   2.037   1.543   1.737
15542WAT     H146868   1.988   1.480   1.796
15542WAT     H246869   2.126   1.564   1.777
15543WAT      O46870   6.647   1.707   6.201
15543WAT     H146871   6.584   1.676   6.273
15543WAT     H246872   6.702   1.630   6.170
15544WAT      O46873   4.361   4.158   8.791
15544WAT     H146874   4.279   4.105   8.771
15544WAT     H246875   4.385   4.215   8.712
15545WAT      O46876   3.747   6.339   8.956
15545WAT     H146877   3.658   6.296   8.941
15545WAT     H246878   3.764   6.408   8.886
15546WAT      O46879   3.519   7.879   3.599
15546WAT     H146880   3.573   7.906   3.520
15546WAT     H246881   3.442   7.942   3.610
15547WAT      O46882   3.080   1.989   1.263
15547WAT     H146883   3.104   1.995   1.166
15547WAT     H246884   3.086   1.894   1.293
15548WAT      O46885   3.760   3.390   4.376
15548WAT     H146886   3.715   3.322   4.318
15548WAT     H246887   3.737   3.481   4.343
15549WAT      O46888   6.447   2.287   8.275
15549WAT     H146889   6.523   2.250   8.330
15549WAT     H246890   6.365   2.231   8.289
15550WAT      O46891   4.379   8.989   1.927
15550WAT     H146892   4.478   9.006   1.932
15550WAT     H246893   4.358   8.900   1.968
15551WAT      O46894   1.412   3.231   9.446
15551WAT     H146895   1.387   3.300   9.513
15551WAT     H246896   1.359   3.244   9.363
15552WAT      O46897   2.555   4.669   7.086
15552WAT     H146898   2.551   4.580   7.132
15552WAT     H246899   2.466   4.690   7.046
15553WAT      O46900   6.459   6.709   3.213
15553WAT     H146901   6.366   6.723   3.247
15553WAT     H246902   6.487   6.615   3.232
15554WAT      O46903   9.230   9.113   3.925
15554WAT     H146904   9.240   9.160   4.013
15554WAT     H246905   9.320   9.097   3.885
15555WAT      O46906   4.155   6.124   8.819
15555WAT     H146907   4.244   6.167   8.805
15555WAT     H246908   4.084   6.195   8.823
15556WAT      O46909   8.764   4.856   6.727
15556WAT     H146910   8.837   4.920   6.750
15556WAT     H246911   8.706   4.895   6.655
15557WAT      O46912   2.547   1.434   1.867
15557WAT     H146913   2.539   1.356   1.930
15557WAT     H246914   2.560   1.518   1.920
15558WAT      O46915   8.406   5.536   1.360
15558WAT     H146916   8.344   5.538   1.438
15558WAT     H246917   8.355   5.556   1.276
15559WAT      O46918   5.590   6.952   0.216
15559WAT     H146919   5.673   6.899   0.232
15559WAT     H246920   5.513   6.891   0.204
15560WAT      O46921   3.576   7.783   7.148
15560WAT     H146922   3.506   7.721   7.184
15560WAT     H246923   3.588   7.766   7.050
15561WAT      O46924   6.126   8.349   4.175
15561WAT     H146925   6.118   8.390   4.083
15561WAT     H246926   6.054   8.280   4.187
15562WAT      O46927   7.813   7.559   4.326
15562WAT     H146928   7.824   7.480   4.264
15562WAT     H246929   7.728   7.548   4.378
15563WAT      O46930   3.952   3.339   6.085
15563WAT     H146931   3.853   3.325   6.087
15563WAT     H246932   3.972   3.430   6.047
15564WAT      O46933   4.541   9.025   4.158
15564WAT     H146934   4.544   9.049   4.061
15564WAT     H246935   4.631   9.042   4.199
15565WAT      O46936   5.824   0.616   4.074
15565WAT     H146937   5.786   0.539   4.023
15565WAT     H246938   5.812   0.600   4.172
15566WAT      O46939   0.375   0.328   9.610
15566WAT     H146940   0.430   0.383   9.546
15566WAT     H246941   0.290   0.376   9.630
15567WAT      O46942   6.281   8.532   9.051
15567WAT     H146943   6.216   8.603   9.075
15567WAT     H246944   6.360   8.573   9.006
15568WAT      O46945   9.495   3.765   2.030
15568WAT     H146946   9.573   3.709   2.002
15568WAT     H246947   9.504   3.857   1.992
15569WAT      O46948   2.747   2.966   1.208
15569WAT     H146949   2.673   2.951   1.142
15569WAT     H246950   2.755   2.885   1.267
15570WAT      O46951   4.778   9.489   5.454
15570WAT     H146952   4.717   9.553   5.500
15570WAT     H246953   4.825   9.432   5.522
15571WAT      O46954   1.970   6.174   7.686
15571WAT     H146955   1.893   6.236   7.671
15571WAT     H246956   2.051   6.211   7.639
15572WAT      O46957   5.272   4.626   7.604
15572WAT     H146958   5.352   4.572   7.629
15572WAT     H246959   5.273   4.713   7.654
15573WAT      O46960   7.214   2.803   0.757
15573WAT     H146961   7.266   2.732   0.709
15573WAT     H246962   7.191   2.877   0.694
15574WAT      O46963   6.763   5.769   8.104
15574WAT     H146964   6.810   5.717   8.033
15574WAT     H246965   6.665   5.770   8.085
15575WAT      O46966   8.749   5.186   9.472
15575WAT     H146967   8.833   5.194   9.418
15575WAT     H246968   8.770   5.200   9.568
15576WAT      O46969   8.091   4.287   3.258
15576WAT     H146970   8.168   4.347   3.236
15576WAT     H246971   8.110   4.242   3.346
15577WAT      O46972   6.428   5.074   6.232
15577WAT     H146973   6.347   5.043   6.182
15577WAT     H246974   6.400   5.133   6.307
15578WAT      O46975   3.063   5.998   9.884
15578WAT     H146976   3.031   6.072   9.943
15578WAT     H246977   3.052   5.911   9.932
15579WAT      O46978   6.967   2.027   3.946
15579WAT     H146979   6.973   1.936   3.987
15579WAT     H246980   6.981   2.021   3.848
15580WAT      O46981   2.810   3.247   7.052
15580WAT     H146982   2.767   3.198   6.976
15580WAT     H246983   2.845   3.182   7.119
15581WAT      O46984   5.568   0.702   8.545
15581WAT     H146985   5.571   0.688   8.446
15581WAT     H246986   5.621   0.783   8.569
15582WAT      O46987   6.909   1.512   1.321
15582WAT     H146988   6.961   1.433   1.288
15582WAT     H246989   6.961   1.557   1.394
15583WAT      O46990   0.359   1.265   5.579
15583WAT     H146991   0.335   1.269   5.482
15583WAT     H246992   0.459   1.260   5.588
15584WAT      O46993   6.429   1.586   7.932
15584WAT     H146994   6.514   1.639   7.930
15584WAT     H246995   6.445   1.495   7.893
15585WAT      O46996   3.409   0.503   2.467
15585WAT     H146997   3.480   0.440   2.499
15585WAT     H246998   3.424   0.593   2.509
15586WAT      O46999   2.075   6.556   6.478
15586WAT     H147000   2.003   6.523   6.539
15586WAT     H247001   2.145   6.601   6.532
15587WAT      O47002   4.553   1.749   5.997
15587WAT     H147003   4.582   1.707   5.911
15587WAT     H247004   4.464   1.793   5.984
15588WAT      O47005   5.990   9.366   7.152
15588WAT     H147006   5.953   9.325   7.235
15588WAT     H247007   5.915   9.396   7.093
15589WAT      O47008   9.369   1.373   4.967
15589WAT     H147009   9.462   1.405   4.952
15589WAT     H247010   9.350   1.297   4.905
15590WAT      O47011   0.752   6.496   4.129
15590WAT     H147012   0.783   6.400   4.125
15590WAT     H247013   0.762   6.538   4.039
15591WAT      O47014   2.156   8.476   4.291
15591WAT     H147015   2.144   8.377   4.288
15591WAT     H247016   2.094   8.519   4.225
15592WAT      O47017   3.240   3.507   4.755
15592WAT     H147018   3.186   3.570   4.810
15592WAT     H247019   3.233   3.415   4.794
15593WAT      O47020   3.152   4.150   6.412
15593WAT     H147021   3.097   4.068   6.427
15593WAT     H247022   3.093   4.227   6.391
15594WAT      O47023   3.266   3.247   3.364
15594WAT     H147024   3.345   3.297   3.327
15594WAT     H247025   3.182   3.284   3.326
15595WAT      O47026   7.165   2.189   1.115
15595WAT     H147027   7.139   2.123   1.044
15595WAT     H247028   7.083   2.223   1.160
15596WAT      O47029   9.004   5.497   1.595
15596WAT     H147030   8.914   5.475   1.558
15596WAT     H247031   9.047   5.567   1.538
15597WAT      O47032   1.977   5.755   2.658
15597WAT     H147033   1.915   5.828   2.632
15597WAT     H247034   1.931   5.667   2.649
15598WAT      O47035   3.750   4.066   9.830
15598WAT     H147036   3.651   4.051   9.834
15598WAT     H247037   3.796   4.008   9.897
15599WAT      O47038   0.175   3.000   7.240
15599WAT     H147039   0.121   2.986   7.157
15599WAT     H247040   0.114   3.014   7.318
15600WAT      O47041   9.593   3.863   9.326
15600WAT     H147042   9.628   3.952   9.298
15600WAT     H247043   9.517   3.837   9.266
15601WAT      O47044   8.301   8.345   2.875
15601WAT     H147045   8.365   8.274   2.903
15601WAT     H247046   8.347   8.412   2.818
15602WAT      O47047   4.937   8.221   9.153
15602WAT     H147048   4.978   8.194   9.065
15602WAT     H247049   4.841   8.194   9.155
15603WAT      O47050   3.380   3.442   0.550
15603WAT     H147051   3.302   3.496   0.520
15603WAT     H247052   3.376   3.352   0.508
15604WAT      O47053   3.785   0.945   9.625
15604WAT     H147054   3.686   0.959   9.622
15604WAT     H247055   3.827   1.018   9.679
15605WAT      O47056   0.702   4.326   8.500
15605WAT     H147057   0.776   4.278   8.548
15605WAT     H247058   0.687   4.284   8.411
15606WAT      O47059   8.453   1.813   4.572
15606WAT     H147060   8.400   1.732   4.599
15606WAT     H247061   8.528   1.785   4.511
15607WAT      O47062   8.262   6.976   1.397
15607WAT     H147063   8.310   6.912   1.337
15607WAT     H247064   8.266   7.068   1.357
15608WAT      O47065   9.795   4.160   8.171
15608WAT     H147066   9.831   4.128   8.083
15608WAT     H247067   9.869   4.199   8.226
15609WAT      O47068   5.762   8.273   6.216
15609WAT     H147069   5.770   8.372   6.206
15609WAT     H247070   5.670   8.244   6.191
15610WAT      O47071   6.940   6.389   8.411
15610WAT     H147072   6.903   6.301   8.381
15610WAT     H247073   6.892   6.420   8.493
15611WAT      O47074   3.829   5.375   6.405
15611WAT     H147075   3.785   5.311   6.468
15611WAT     H247076   3.900   5.425   6.454
15612WAT      O47077   9.331   8.871   7.326
15612WAT     H147078   9.386   8.949   7.354
15612WAT     H247079   9.276   8.895   7.246
15613WAT      O47080   5.862   9.557   9.156
15613WAT     H147081   5.947   9.608   9.165
15613WAT     H247082   5.874   9.466   9.196
15614WAT      O47083   7.865   0.720   4.640
15614WAT     H147084   7.839   0.747   4.547
15614WAT     H247085   7.800   0.758   4.706
15615WAT      O47086   9.480   3.520   8.520
15615WAT     H147087   9.431   3.435   8.537
15615WAT     H247088   9.502   3.563   8.608
15616WAT      O47089   3.534   9.461   4.831
15616WAT     H147090   3.465   9.501   4.891
15616WAT     H247091   3.489   9.407   4.760
15617WAT      O47092   5.842   5.980   6.239
15617WAT     H147093   5.921   6.031   6.272
15617WAT     H247094   5.872   5.912   6.171
15618WAT      O47095   4.460   4.287   9.127
15618WAT     H147096   4.372   4.259   9.167
15618WAT     H247097   4.510   4.206   9.097
15619WAT      O47098   1.930   1.655   2.452
15619WAT     H147099   1.988   1.606   2.387
15619WAT     H247100   1.834   1.627   2.439
15620WAT      O47101   7.911   3.974   3.472
15620WAT     H147102   7.945   3.913   3.543
15620WAT     H247103   7.987   4.029   3.436
15621WAT      O47104   4.250   9.425   8.597
15621WAT     H147105   4.186   9.359   8.559
15621WAT     H247106   4.343   9.390   8.587
15622WAT      O47107   6.208   1.018   6.834
15622WAT     H147108   6.292   1.063   6.863
15622WAT     H247109   6.221   0.975   6.744
15623WAT      O47110   1.088   4.586   5.317
15623WAT     H147111   1.052   4.679   5.308
15623WAT     H247112   1.176   4.580   5.270
15624WAT      O47113   6.407   2.787   5.587
15624WAT     H147114   6.367   2.813   5.675
15624WAT     H247115   6.335   2.762   5.523
15625WAT      O47116   8.786   5.351   0.489
15625WAT     H147117   8.806   5.351   0.587
15625WAT     H247118   8.746   5.440   0.464
15626WAT      O47119   8.189   7.174   9.047
15626WAT     H147120   8.271   7.156   9.103
15626WAT     H247121   8.216   7.217   8.961
15627WAT      O47122   9.549   3.660   1.699
15627WAT     H147123   9.586   3.598   1.630
15627WAT     H247124   9.559   3.619   1.789
15628WAT      O47125   4.335   7.228   1.321
15628WAT     H147126   4.421   7.199   1.280
15628WAT     H247127   4.353   7.301   1.387
15629WAT      O47128   1.536   2.121   1.437
15629WAT     H147129   1.551   2.175   1.354
15629WAT     H247130   1.570   2.171   1.516
15630WAT      O47131   4.644   0.838   1.997
15630WAT     H147132   4.621   0.865   1.904
15630WAT     H247133   4.743   0.842   2.010
15631WAT      O47134   5.286   4.745   6.675
15631WAT     H147135   5.204   4.689   6.687
15631WAT     H247136   5.322   4.731   6.584
15632WAT      O47137   0.130   0.318   1.909
15632WAT     H147138   0.032   0.328   1.893
15632WAT     H247139   0.148   0.321   2.007
15633WAT      O47140   5.416   4.664   7.946
15633WAT     H147141   5.513   4.643   7.955
15633WAT     H247142   5.398   4.706   7.857
15634WAT      O47143   6.891   4.324   5.189
15634WAT     H147144   6.922   4.233   5.219
15634WAT     H247145   6.802   4.343   5.229
15635WAT      O47146   9.561   4.336   9.377
15635WAT     H147147   9.614   4.253   9.361
15635WAT     H247148   9.579   4.370   9.469
15636WAT      O47149   4.068   5.196   8.282
15636WAT     H147150   4.030   5.129   8.218
15636WAT     H247151   4.155   5.163   8.318
15637WAT      O47152   2.767   6.273   3.564
15637WAT     H147153   2.721   6.360   3.548
15637WAT     H247154   2.830   6.254   3.489
15638WAT      O47155   6.137   4.276   9.885
15638WAT     H147156   6.236   4.266   9.893
15638WAT     H247157   6.115   4.328   9.803
15639WAT      O47158   8.806   4.477   6.900
15639WAT     H147159   8.735   4.410   6.881
15639WAT     H247160   8.766   4.569   6.904
15640WAT      O47161   1.143   4.057   2.716
15640WAT     H147162   1.081   4.127   2.752
15640WAT     H247163   1.207   4.100   2.652
15641WAT      O47164   5.334   3.178   6.116
15641WAT     H147165   5.320   3.116   6.194
15641WAT     H247166   5.247   3.196   6.072
15642WAT      O47167   2.824   4.689   1.401
15642WAT     H147168   2.816   4.590   1.410
15642WAT     H247169   2.761   4.721   1.330
15643WAT      O47170   6.686   0.289   6.501
15643WAT     H147171   6.692   0.337   6.588
15643WAT     H247172   6.623   0.336   6.440
15644WAT      O47173   2.179   5.406   1.119
15644WAT     H147174   2.156   5.428   1.025
15644WAT     H247175   2.194   5.308   1.129
15645WAT      O47176   6.853   1.667   3.583
15645WAT     H147177   6.843   1.665   3.682
15645WAT     H247178   6.921   1.736   3.558
15646WAT      O47179   6.481   4.928   9.378
15646WAT     H147180   6.497   5.026   9.365
15646WAT     H247181   6.547   4.876   9.324
15647WAT      O47182   6.858   7.667   5.737
15647WAT     H147183   6.953   7.694   5.720
15647WAT     H247184   6.833   7.592   5.676
15648WAT      O47185   6.890   7.761   8.346
15648WAT     H147186   6.858   7.705   8.422
15648WAT     H247187   6.977   7.725   8.312
15649WAT      O47188   0.415   9.688   7.706
15649WAT     H147189   0.335   9.715   7.760
15649WAT     H247190   0.488   9.658   7.768
15650WAT      O47191   1.883   5.638   8.562
15650WAT     H147192   1.848   5.548   8.587
15650WAT     H247193   1.966   5.628   8.506
15651WAT      O47194   6.509   7.896   1.988
15651WAT     H147195   6.485   7.951   2.068
15651WAT     H247196   6.478   7.942   1.905
15652WAT      O47197   0.534   1.755   3.017
15652WAT     H147198   0.515   1.771   2.920
15652WAT     H247199   0.475   1.815   3.073
15653WAT      O47200   9.082   7.497   2.604
15653WAT     H147201   9.075   7.559   2.682
15653WAT     H247202   8.996   7.447   2.594
15654WAT      O47203   5.906   5.766   9.077
15654WAT     H147204   5.929   5.670   9.059
15654WAT     H247205   5.889   5.778   9.174
15655WAT      O47206   7.548   4.857   3.012
15655WAT     H147207   7.494   4.789   3.061
15655WAT     H247208   7.610   4.811   2.948
15656WAT      O47209   8.441   0.769   1.238
15656WAT     H147210   8.531   0.729   1.253
15656WAT     H247211   8.431   0.852   1.293
15657WAT      O47212   9.213   8.396   3.413
15657WAT     H147213   9.163   8.446   3.343
15657WAT     H247214   9.311   8.414   3.405
15658WAT      O47215   7.482   0.901   7.657
15658WAT     H147216   7.470   0.994   7.621
15658WAT     H247217   7.558   0.900   7.722
15659WAT      O47218   8.307   3.449   6.613
15659WAT     H147219   8.292   3.546   6.630
15659WAT     H247220   8.373   3.438   6.538
15660WAT      O47221   6.864   7.644   1.205
15660WAT     H147222   6.936   7.594   1.253
15660WAT     H247223   6.889   7.740   1.197
15661WAT      O47224   6.670   5.532   1.582
15661WAT     H147225   6.589   5.496   1.627
15661WAT     H247226   6.746   5.468   1.592
15662WAT      O47227   7.460   4.921   8.895
15662WAT     H147228   7.500   4.956   8.980
15662WAT     H247229   7.508   4.838   8.867
15663WAT      O47230   2.420   9.526   3.178
15663WAT     H147231   2.398   9.605   3.122
15663WAT     H247232   2.336   9.481   3.209
15664WAT      O47233   9.414   7.635   5.365
15664WAT     H147234   9.321   7.628   5.401
15664WAT     H247235   9.462   7.549   5.381
15665WAT      O47236   3.305   1.457   4.022
15665WAT     H147237   3.318   1.358   4.014
15665WAT     H247238   3.370   1.494   4.088
15666WAT      O47239   4.461   5.649   8.224
15666WAT     H147240   4.555   5.666   8.196
15666WAT     H247241   4.399   5.698   8.163
15667WAT      O47242   1.934   4.948   3.824
15667WAT     H147243   1.951   4.914   3.732
15667WAT     H247244   1.943   4.873   3.890
15668WAT      O47245   7.481   5.447   5.255
15668WAT     H147246   7.425   5.379   5.207
15668WAT     H247247   7.538   5.402   5.324
15669WAT      O47248   9.210   0.008   8.103
15669WAT     H147249   9.111   0.019   8.112
15669WAT     H247250   9.251   0.095   8.076
15670WAT      O47251   5.007   0.118   0.801
15670WAT     H147252   4.925   0.116   0.859
15670WAT     H247253   5.073   0.050   0.834
15671WAT      O47254   5.125   1.831   9.184
15671WAT     H147255   5.052   1.769   9.156
15671WAT     H247256   5.213   1.784   9.177
15672WAT      O47257   6.696   6.051   2.414
15672WAT     H147258   6.623   6.103   2.369
15672WAT     H247259   6.662   6.013   2.500
15673WAT      O47260   3.807   2.549   4.681
15673WAT     H147261   3.775   2.630   4.731
15673WAT     H247262   3.729   2.502   4.639
15674WAT      O47263   5.566   0.081   8.113
15674WAT     H147264   5.512   0.017   8.169
15674WAT     H247265   5.569   0.170   8.158
15675WAT      O47266   4.155   2.050   6.212
15675WAT     H147267   4.116   2.057   6.304
15675WAT     H247268   4.249   2.084   6.213
15676WAT      O47269   2.095   7.879   4.189
15676WAT     H147270   2.184   7.923   4.203
15676WAT     H247271   2.100   7.784   4.221
15677WAT      O47272   7.109   2.820   7.384
15677WAT     H147273   7.202   2.856   7.385
15677WAT     H247274   7.052   2.876   7.324
15678WAT      O47275   3.730   2.589   4.077
15678WAT     H147276   3.650   2.586   4.018
15678WAT     H247277   3.702   2.608   4.171
15679WAT      O47278   9.114   2.158   8.760
15679WAT     H147279   9.081   2.201   8.677
15679WAT     H247280   9.100   2.219   8.838
15680WAT      O47281   6.667   2.971   2.033
15680WAT     H147282   6.567   2.970   2.035
15680WAT     H247283   6.702   2.877   2.036
15681WAT      O47284   1.399   3.112   5.983
15681WAT     H147285   1.377   3.049   6.058
15681WAT     H247286   1.477   3.077   5.932
15682WAT      O47287   1.998   8.945   1.644
15682WAT     H147288   1.980   8.938   1.546
15682WAT     H247289   2.089   8.907   1.664
15683WAT      O47290   1.600   7.441   5.736
15683WAT     H147291   1.636   7.395   5.654
15683WAT     H247292   1.596   7.376   5.812
15684WAT      O47293   2.112   8.617   6.066
15684WAT     H147294   2.059   8.673   6.003
15684WAT     H247295   2.058   8.537   6.093
15685WAT      O47296   0.892   0.309   0.016
15685WAT     H147297   0.829   0.233   0.001
15685WAT     H247298   0.930   0.303   0.108
15686WAT      O47299   0.853   3.441   5.276
15686WAT     H147300   0.821   3.386   5.353
15686WAT     H247301   0.946   3.474   5.296
15687WAT      O47302   8.119   8.963   3.125
15687WAT     H147303   8.199   8.903   3.124
15687WAT     H247304   8.124   9.023   3.205
15688WAT      O47305   5.523   1.729   6.158
15688WAT     H147306   5.447   1.774   6.111
15688WAT     H247307   5.577   1.677   6.092
15689WAT      O47308   4.228   9.593   0.786
15689WAT     H147309   4.206   9.613   0.690
15689WAT     H247310   4.232   9.494   0.799
15690WAT      O47311   5.457   9.347   1.051
15690WAT     H147312   5.446   9.426   0.991
15690WAT     H247313   5.375   9.290   1.047
15691WAT      O47314   5.244   9.681   0.456
15691WAT     H147315   5.339   9.686   0.485
15691WAT     H247316   5.198   9.767   0.477
15692WAT      O47317   7.896   1.148   3.557
15692WAT     H147318   7.960   1.154   3.481
15692WAT     H247319   7.843   1.064   3.550
15693WAT      O47320   3.870   6.530   2.202
15693WAT     H147321   3.784   6.492   2.235
15693WAT     H247322   3.944   6.506   2.265
15694WAT      O47323   7.520   5.094   2.496
15694WAT     H147324   7.451   5.042   2.446
15694WAT     H247325   7.478   5.176   2.536
15695WAT      O47326   6.917   3.126   0.456
15695WAT     H147327   6.858   3.150   0.379
15695WAT     H247328   6.861   3.116   0.538
15696WAT      O47329   0.704   1.330   1.707
15696WAT     H147330   0.705   1.266   1.630
15696WAT     H247331   0.730   1.282   1.791
15697WAT      O47332   9.843   2.457   6.368
15697WAT     H147333   9.922   2.428   6.312
15697WAT     H247334   9.871   2.464   6.463
15698WAT      O47335   1.958   8.091   9.573
15698WAT     H147336   2.023   8.124   9.504
15698WAT     H247337   1.886   8.159   9.587
15699WAT      O47338   5.873   8.410   2.368
15699WAT     H147339   5.948   8.393   2.433
15699WAT     H247340   5.864   8.508   2.352
15700WAT      O47341   2.403   2.330   8.100
15700WAT     H147342   2.431   2.422   8.127
15700WAT     H247343   2.392   2.273   8.181
15701WAT      O47344   6.968   7.162   3.086
15701WAT     H147345   6.878   7.198   3.059
15701WAT     H247346   6.975   7.066   3.059
15702WAT      O47347   0.959   6.410   9.057
15702WAT     H147348   0.968   6.341   9.129
15702WAT     H247349   0.864   6.418   9.029
15703WAT      O47350   8.544   4.143   6.923
15703WAT     H147351   8.554   4.081   7.000
15703WAT     H247352   8.514   4.233   6.956
15704WAT      O47353   5.849   7.103   6.676
15704WAT     H147354   5.750   7.109   6.680
15704WAT     H247355   5.882   7.042   6.749
15705WAT      O47356   0.096   1.637   8.393
15705WAT     H147357   0.165   1.651   8.322
15705WAT     H247358   0.007   1.625   8.350
15706WAT      O47359   3.220   9.503   7.923
15706WAT     H147360   3.231   9.463   7.832
15706WAT     H247361   3.303   9.550   7.950
15707WAT      O47362   7.782   9.441   9.047
15707WAT     H147363   7.849   9.385   9.000
15707WAT     H247364   7.779   9.532   9.004
15708WAT      O47365   5.758   5.480   0.995
15708WAT     H147366   5.750   5.482   0.895
15708WAT     H247367   5.812   5.401   1.023
15709WAT      O47368   8.080   1.247   6.009
15709WAT     H147369   8.123   1.277   5.924
15709WAT     H247370   8.047   1.326   6.059
15710WAT      O47371   4.640   8.556   6.900
15710WAT     H147372   4.628   8.596   6.809
15710WAT     H247373   4.579   8.478   6.911
15711WAT      O47374   9.452   6.525   7.258
15711WAT     H147375   9.366   6.523   7.309
15711WAT     H247376   9.495   6.615   7.268
15712WAT      O47377   9.376   4.412   8.455
15712WAT     H147378   9.365   4.464   8.371
15712WAT     H247379   9.287   4.380   8.487
15713WAT      O47380   1.105   4.130   1.536
15713WAT     H147381   1.008   4.127   1.510
15713WAT     H247382   1.148   4.043   1.515
15714WAT      O47383   6.633   4.633   0.597
15714WAT     H147384   6.632   4.639   0.497
15714WAT     H247385   6.728   4.636   0.630
15715WAT      O47386   6.727   6.317   0.434
15715WAT     H147387   6.803   6.289   0.376
15715WAT     H247388   6.727   6.263   0.518
15716WAT      O47389   0.293   6.814   8.400
15716WAT     H147390   0.325   6.761   8.321
15716WAT     H247391   0.372   6.844   8.453
15717WAT      O47392   6.404   6.706   9.128
15717WAT     H147393   6.427   6.785   9.072
15717WAT     H247394   6.477   6.691   9.195
15718WAT      O47395   5.407   3.558   0.021
15718WAT     H147396   5.356   3.631  -0.024
15718WAT     H247397   5.385   3.470  -0.021
15719WAT      O47398   0.873   4.275   8.693
15719WAT     H147399   0.916   4.334   8.761
15719WAT     H247400   0.930   4.194   8.679
15720WAT      O47401   8.404   3.845   6.775
15720WAT     H147402   8.466   3.846   6.854
15720WAT     H247403   8.442   3.788   6.703
15721WAT      O47404   1.608   9.373   4.571
15721WAT     H147405   1.558   9.418   4.498
15721WAT     H247406   1.546   9.310   4.620
15722WAT      O47407   9.014   2.893   7.603
15722WAT     H147408   9.026   2.810   7.657
15722WAT     H247409   8.999   2.869   7.507
15723WAT      O47410   3.122   8.202   1.670
15723WAT     H147411   3.166   8.277   1.621
15723WAT     H247412   3.027   8.225   1.690
15724WAT      O47413   0.099   1.983   8.075
15724WAT     H147414  -0.001   1.975   8.068
15724WAT     H247415   0.124   2.025   8.162
15725WAT      O47416   7.744   5.365   3.248
15725WAT     H147417   7.764   5.317   3.334
15725WAT     H247418   7.645   5.370   3.236
15726WAT      O47419   6.668   3.741   9.342
15726WAT     H147420   6.745   3.678   9.343
15726WAT     H247421   6.604   3.714   9.270
15727WAT      O47422   9.579   7.528   4.999
15727WAT     H147423   9.558   7.622   5.027
15727WAT     H247424   9.615   7.477   5.078
15728WAT      O47425   2.529   8.647   2.241
15728WAT     H147426   2.505   8.724   2.183
15728WAT     H247427   2.527   8.676   2.337
15729WAT      O47428   8.727   9.150   4.529
15729WAT     H147429   8.757   9.236   4.571
15729WAT     H247430   8.736   9.156   4.430
15730WAT      O47431   8.275   4.589   0.408
15730WAT     H147432   8.340   4.661   0.431
15730WAT     H247433   8.304   4.543   0.324
15731WAT      O47434   7.461   3.506   4.996
15731WAT     H147435   7.558   3.518   4.979
15731WAT     H247436   7.420   3.594   5.020
15732WAT      O47437   2.178   4.319   5.092
15732WAT     H147438   2.191   4.221   5.104
15732WAT     H247439   2.085   4.337   5.063
15733WAT      O47440   2.143   2.033   9.583
15733WAT     H147441   2.234   2.051   9.545
15733WAT     H247442   2.077   2.095   9.543
15734WAT      O47443   3.000   6.800   9.839
15734WAT     H147444   3.006   6.881   9.781
15734WAT     H247445   2.917   6.749   9.816
15735WAT      O47446   4.511   5.153   1.099
15735WAT     H147447   4.499   5.232   1.159
15735WAT     H247448   4.468   5.171   1.010
15736WAT      O47449   1.894   5.865   1.060
15736WAT     H147450   1.873   5.770   1.039
15736WAT     H247451   1.926   5.872   1.154
15737WAT      O47452   9.615   9.685   0.103
15737WAT     H147453   9.632   9.718   0.011
15737WAT     H247454   9.651   9.751   0.169
15738WAT      O47455   1.310   4.582   4.638
15738WAT     H147456   1.256   4.500   4.618
15738WAT     H247457   1.249   4.656   4.667
15739WAT      O47458   9.042   6.527   5.578
15739WAT     H147459   8.994   6.612   5.559
15739WAT     H247460   9.039   6.468   5.497
15740WAT      O47461   5.756   9.418   9.699
15740WAT     H147462   5.782   9.409   9.795
15740WAT     H247463   5.701   9.340   9.671
15741WAT      O47464   8.486   3.223   2.139
15741WAT     H147465   8.539   3.147   2.102
15741WAT     H247466   8.465   3.206   2.235
15742WAT      O47467   7.705   7.012   5.048
15742WAT     H147468   7.735   6.923   5.014
15742WAT     H247469   7.749   7.085   4.994
15743WAT      O47470   1.465   7.138   1.562
15743WAT     H147471   1.454   7.050   1.609
15743WAT     H247472   1.504   7.122   1.472
15744WAT      O47473   2.252   1.116   8.762
15744WAT     H147474   2.282   1.191   8.822
15744WAT     H247475   2.225   1.038   8.817
15745WAT      O47476   8.584   8.059   9.228
15745WAT     H147477   8.584   7.975   9.174
15745WAT     H247478   8.494   8.074   9.267
15746WAT      O47479   8.352   5.041   0.752
15746WAT     H147480   8.253   5.050   0.756
15746WAT     H247481   8.382   4.965   0.810
15747WAT      O47482   0.844   2.767   5.913
15747WAT     H147483   0.851   2.834   5.839
15747WAT     H247484   0.776   2.798   5.979
15748WAT      O47485   3.170   2.828   8.605
15748WAT     H147486   3.261   2.845   8.568
15748WAT     H247487   3.134   2.913   8.644
15749WAT      O47488   8.698   5.547   4.871
15749WAT     H147489   8.784   5.533   4.822
15749WAT     H247490   8.643   5.463   4.866
15750WAT      O47491   2.342   6.855   8.995
15750WAT     H147492   2.308   6.765   9.024
15750WAT     H247493   2.265   6.913   8.968
15751WAT      O47494   2.633   5.879   9.297
15751WAT     H147495   2.644   5.862   9.199
15751WAT     H247496   2.658   5.798   9.348
15752WAT      O47497   7.443   5.455   1.449
15752WAT     H147498   7.403   5.514   1.519
15752WAT     H247499   7.530   5.493   1.419
15753WAT      O47500   7.852   6.600   5.308
15753WAT     H147501   7.755   6.578   5.299
15753WAT     H247502   7.902   6.563   5.231
15754WAT      O47503   0.577   0.447   8.405
15754WAT     H147504   0.564   0.411   8.313
15754WAT     H247505   0.668   0.421   8.438
15755WAT      O47506   8.748   1.446   2.036
15755WAT     H147507   8.842   1.464   2.065
15755WAT     H247508   8.686   1.468   2.111
15756WAT      O47509   1.076   4.046   0.560
15756WAT     H147510   1.131   4.076   0.637
15756WAT     H247511   1.087   3.947   0.548
15757WAT      O47512   0.052   2.532   2.626
15757WAT     H147513   0.149   2.510   2.636
15757WAT     H247514   0.015   2.482   2.547
15758WAT      O47515   4.414   2.657   4.158
15758WAT     H147516   4.431   2.623   4.250
15758WAT     H247517   4.500   2.684   4.115
15759WAT      O47518   0.429   2.413   0.305
15759WAT     H147519   0.405   2.484   0.371
15759WAT     H247520   0.529   2.412   0.293
15760WAT      O47521   3.654   9.110   5.161
15760WAT     H147522   3.627   9.117   5.257
15760WAT     H247523   3.573   9.120   5.103
15761WAT      O47524   6.475   5.895   6.914
15761WAT     H147525   6.463   5.964   6.986
15761WAT     H247526   6.385   5.860   6.886
15762WAT      O47527   7.132   7.437   7.880
15762WAT     H147528   7.177   7.513   7.833
15762WAT     H247529   7.125   7.457   7.978
15763WAT      O47530   0.394   1.541   1.213
15763WAT     H147531   0.367   1.626   1.260
15763WAT     H247532   0.317   1.477   1.213
15764WAT      O47533   1.519   5.088   3.671
15764WAT     H147534   1.599   5.058   3.722
15764WAT     H247535   1.483   5.012   3.617
15765WAT      O47536   8.011   4.700   2.316
15765WAT     H147537   8.096   4.708   2.264
15765WAT     H247538   7.954   4.781   2.300
15766WAT      O47539   8.665   9.366   8.966
15766WAT     H147540   8.751   9.388   9.011
15766WAT     H247541   8.624   9.449   8.929
15767WAT      O47542   3.026   4.093   4.868
15767WAT     H147543   2.980   4.091   4.779
15767WAT     H247544   3.072   4.182   4.879
15768WAT      O47545   5.493   0.520   3.084
15768WAT     H147546   5.448   0.438   3.049
15768WAT     H247547   5.427   0.595   3.087
15769WAT      O47548   1.295   4.988   4.477
15769WAT     H147549   1.247   4.924   4.418
15769WAT     H247550   1.289   4.958   4.572
15770WAT      O47551   2.250   4.128   8.914
15770WAT     H147552   2.297   4.215   8.932
15770WAT     H247553   2.157   4.146   8.882
15771WAT      O47554   5.583   7.610   4.274
15771WAT     H147555   5.541   7.541   4.216
15771WAT     H247556   5.585   7.698   4.226
15772WAT      O47557   0.260   9.598   9.366
15772WAT     H147558   0.229   9.527   9.303
15772WAT     H247559   0.358   9.614   9.353
15773WAT      O47560   1.094   6.688   1.793
15773WAT     H147561   1.085   6.724   1.700
15773WAT     H247562   1.146   6.753   1.849
15774WAT      O47563   5.232   9.792   3.607
15774WAT     H147564   5.193   9.880   3.635
15774WAT     H247565   5.314   9.807   3.553
15775WAT      O47566   0.969   6.098   9.554
15775WAT     H147567   1.003   6.015   9.598
15775WAT     H247568   1.043   6.165   9.549
15776WAT      O47569   2.361   2.039   4.029
15776WAT     H147570   2.365   2.123   3.975
15776WAT     H247571   2.351   1.961   3.967
15777WAT      O47572   9.092   1.312   7.275
15777WAT     H147573   9.188   1.313   7.302
15777WAT     H247574   9.038   1.262   7.343
15778WAT      O47575   3.674   5.594   2.829
15778WAT     H147576   3.683   5.571   2.926
15778WAT     H247577   3.626   5.521   2.781
15779WAT      O47578   4.237   4.396   7.306
15779WAT     H147579   4.291   4.464   7.354
15779WAT     H247580   4.287   4.309   7.301
15780WAT      O47581   8.723   8.790   6.606
15780WAT     H147582   8.763   8.701   6.627
15780WAT     H247583   8.796   8.856   6.587
15781WAT      O47584   8.809   9.446   8.442
15781WAT     H147585   8.840   9.369   8.498
15781WAT     H247586   8.772   9.412   8.356
15782WAT      O47587   3.218   3.080   0.827
15782WAT     H147588   3.301   3.081   0.881
15782WAT     H247589   3.158   3.155   0.855
15783WAT      O47590   7.307   8.509   1.452
15783WAT     H147591   7.345   8.418   1.468
15783WAT     H247592   7.215   8.500   1.413
15784WAT      O47593   8.943   4.236   4.617
15784WAT     H147594   8.995   4.231   4.532
15784WAT     H247595   8.927   4.143   4.652
15785WAT      O47596   6.270   9.768   5.082
15785WAT     H147597   6.201   9.696   5.079
15785WAT     H247598   6.305   9.778   5.175
15786WAT      O47599   8.569   4.739   6.536
15786WAT     H147600   8.633   4.670   6.570
15786WAT     H247601   8.539   4.714   6.444
15787WAT      O47602   7.316   6.675   9.217
15787WAT     H147603   7.376   6.609   9.170
15787WAT     H247604   7.370   6.728   9.282
15788WAT      O47605   2.112   6.804   8.367
15788WAT     H147606   2.126   6.902   8.349
15788WAT     H247607   2.014   6.786   8.372
15789WAT      O47608   9.389   6.597   5.550
15789WAT     H147609   9.377   6.542   5.633
15789WAT     H247610   9.432   6.541   5.479
15790WAT      O47611   2.265   4.856   5.981
15790WAT     H147612   2.344   4.860   5.920
15790WAT     H247613   2.224   4.947   5.990
15791WAT      O47614   0.181   9.693   3.645
15791WAT     H147615   0.243   9.622   3.677
15791WAT     H247616   0.121   9.722   3.720
15792WAT      O47617   4.769   3.484   4.705
15792WAT     H147618   4.775   3.394   4.748
15792WAT     H247619   4.740   3.551   4.773
15793WAT      O47620   5.835   9.259   9.055
15793WAT     H147621   5.760   9.325   9.049
15793WAT     H247622   5.815   9.181   8.997
15794WAT      O47623   6.546   0.118   0.926
15794WAT     H147624   6.538   0.019   0.913
15794WAT     H247625   6.546   0.164   0.837
15795WAT      O47626   0.656   4.216   5.007
15795WAT     H147627   0.679   4.121   5.031
15795WAT     H247628   0.709   4.243   4.926
15796WAT      O47629   5.637   3.779   1.445
15796WAT     H147630   5.705   3.772   1.371
15796WAT     H247631   5.605   3.687   1.469
15797WAT      O47632   8.556   4.350   8.492
15797WAT     H147633   8.632   4.397   8.536
15797WAT     H247634   8.573   4.342   8.394
15798WAT      O47635   5.651   3.825   6.611
15798WAT     H147636   5.706   3.749   6.575
15798WAT     H247637   5.688   3.912   6.578
15799WAT      O47638   0.102   0.659   4.968
15799WAT     H147639   0.081   0.709   5.051
15799WAT     H247640   0.198   0.631   4.969
15800WAT      O47641   3.341   8.803   2.155
15800WAT     H147642   3.277   8.764   2.221
15800WAT     H247643   3.307   8.789   2.062
15801WAT      O47644   7.763   7.188   9.823
15801WAT     H147645   7.687   7.191   9.889
15801WAT     H247646   7.734   7.137   9.742
15802WAT      O47647   0.482   3.195   3.712
15802WAT     H147648   0.433   3.282   3.711
15802WAT     H247649   0.425   3.125   3.755
15803WAT      O47650   1.814   5.847   1.492
15803WAT     H147651   1.759   5.801   1.562
15803WAT     H247652   1.815   5.945   1.510
15804WAT      O47653   9.192   6.801   2.962
15804WAT     H147654   9.276   6.850   2.985
15804WAT     H247655   9.135   6.790   3.044
15805WAT      O47656   5.957   3.365   9.252
15805WAT     H147657   5.900   3.285   9.230
15805WAT     H247658   5.967   3.422   9.170
15806WAT      O47659   0.385   4.822   0.539
15806WAT     H147660   0.464   4.848   0.594
15806WAT     H247661   0.311   4.889   0.553
15807WAT      O47662   9.528   8.450   6.617
15807WAT     H147663   9.594   8.379   6.642
15807WAT     H247664   9.544   8.531   6.674
15808WAT      O47665   2.607   4.681   7.412
15808WAT     H147666   2.521   4.630   7.412
15808WAT     H247667   2.674   4.633   7.355
15809WAT      O47668   6.114   3.040   8.906
15809WAT     H147669   6.117   3.140   8.908
15809WAT     H247670   6.178   3.006   8.838
15810WAT      O47671   2.583   9.065   3.001
15810WAT     H147672   2.637   8.988   3.034
15810WAT     H247673   2.615   9.150   3.044
15811WAT      O47674   7.437   3.435   4.136
15811WAT     H147675   7.347   3.416   4.096
15811WAT     H247676   7.451   3.534   4.139
15812WAT      O47677   4.569   1.036   7.833
15812WAT     H147678   4.669   1.039   7.828
15812WAT     H247679   4.540   0.942   7.849
15813WAT      O47680   0.614   7.109   0.725
15813WAT     H147681   0.620   7.132   0.823
15813WAT     H247682   0.546   7.036   0.713
15814WAT      O47683   1.808   9.791   5.715
15814WAT     H147684   1.747   9.790   5.795
15814WAT     H247685   1.894   9.746   5.738
15815WAT      O47686   7.959   7.873   0.339
15815WAT     H147687   7.939   7.793   0.396
15815WAT     H247688   8.003   7.943   0.395
15816WAT      O47689   8.548   0.135   0.538
15816WAT     H147690   8.554   0.036   0.553
15816WAT     H247691   8.640   0.174   0.539
15817WAT      O47692   6.573   6.081   7.489
15817WAT     H147693   6.523   6.020   7.428
15817WAT     H247694   6.670   6.054   7.492
15818WAT      O47695   0.478   5.761   4.152
15818WAT     H147696   0.527   5.681   4.116
15818WAT     H247697   0.500   5.841   4.097
15819WAT      O47698   7.904   0.127   3.206
15819WAT     H147699   7.855   0.064   3.266
15819WAT     H247700   8.000   0.131   3.233
15820WAT      O47701   0.702   3.145   8.714
15820WAT     H147702   0.635   3.106   8.776
15820WAT     H247703   0.794   3.133   8.752
15821WAT      O47704   6.023   9.768   1.712
15821WAT     H147705   6.050   9.701   1.781
15821WAT     H247706   6.033   9.728   1.621
15822WAT      O47707   3.180   9.468   8.990
15822WAT     H147708   3.254   9.476   8.923
15822WAT     H247709   3.101   9.520   8.959
15823WAT      O47710   4.211   7.994   0.177
15823WAT     H147711   4.224   8.077   0.232
15823WAT     H247712   4.131   7.944   0.210
15824WAT      O47713   4.874   0.809   1.498
15824WAT     H147714   4.943   0.770   1.437
15824WAT     H247715   4.783   0.784   1.467
15825WAT      O47716   6.675   5.060   8.647
15825WAT     H147717   6.591   5.093   8.602
15825WAT     H247718   6.679   4.960   8.637
15826WAT      O47719   0.589   7.344   6.213
15826WAT     H147720   0.498   7.319   6.247
15826WAT     H247721   0.588   7.440   6.184
15827WAT      O47722   0.388   6.727   4.586
15827WAT     H147723   0.434   6.652   4.633
15827WAT     H247724   0.360   6.796   4.653
15828WAT      O47725   7.519   7.141   1.687
15828WAT     H147726   7.581   7.210   1.649
15828WAT     H247727   7.433   7.142   1.638
15829WAT      O47728   8.274   5.913   9.889
15829WAT     H147729   8.274   5.950   9.796
15829WAT     H247730   8.204   5.842   9.897
15830WAT      O47731   7.840   3.093   7.339
15830WAT     H147732   7.778   3.023   7.303
15830WAT     H247733   7.917   3.105   7.277
15831WAT      O47734   1.290   1.636   9.020
15831WAT     H147735   1.375   1.662   8.975
15831WAT     H247736   1.271   1.700   9.095
15832WAT      O47737   6.832   2.748   5.043
15832WAT     H147738   6.813   2.844   5.019
15832WAT     H247739   6.776   2.722   5.122
15833WAT      O47740   5.265   5.195   1.222
15833WAT     H147741   5.286   5.235   1.312
15833WAT     H247742   5.206   5.115   1.235
15834WAT      O47743   2.455   1.132   3.760
15834WAT     H147744   2.479   1.082   3.843
15834WAT     H247745   2.356   1.127   3.746
15835WAT      O47746   7.647   6.130   9.125
15835WAT     H147747   7.569   6.137   9.063
15835WAT     H247748   7.662   6.034   9.148
15836WAT      O47749   3.075   7.017   9.672
15836WAT     H147750   2.993   7.034   9.618
15836WAT     H247751   3.137   6.957   9.621
15837WAT      O47752   6.267   8.461   8.236
15837WAT     H147753   6.237   8.399   8.163
15837WAT     H247754   6.224   8.550   8.223
15838WAT      O47755   7.838   2.805   7.056
15838WAT     H147756   7.779   2.853   7.120
15838WAT     H247757   7.862   2.865   6.980
15839WAT      O47758   6.011   8.730   1.363
15839WAT     H147759   5.994   8.821   1.327
15839WAT     H247760   5.973   8.661   1.301
15840WAT      O47761   3.455   3.454   9.840
15840WAT     H147762   3.417   3.367   9.809
15840WAT     H247763   3.511   3.494   9.768
15841WAT      O47764   7.244   6.736   8.243
15841WAT     H147765   7.257   6.674   8.166
15841WAT     H247766   7.256   6.831   8.213
15842WAT      O47767   2.489   9.160   6.419
15842WAT     H147768   2.544   9.093   6.469
15842WAT     H247769   2.461   9.121   6.331
15843WAT      O47770   5.513   9.318   2.587
15843WAT     H147771   5.520   9.240   2.648
15843WAT     H247772   5.591   9.319   2.524
15844WAT      O47773   8.593   7.561   3.236
15844WAT     H147774   8.659   7.609   3.179
15844WAT     H247775   8.500   7.588   3.209
15845WAT      O47776   9.783   3.943   4.152
15845WAT     H147777   9.855   3.896   4.204
15845WAT     H247778   9.694   3.922   4.192
15846WAT      O47779   5.367   0.788   0.783
15846WAT     H147780   5.290   0.726   0.797
15846WAT     H247781   5.332   0.877   0.754
15847WAT      O47782   0.954   5.173   9.125
15847WAT     H147783   1.051   5.185   9.104
15847WAT     H247784   0.944   5.101   9.195
15848WAT      O47785   5.291   6.008   3.292
15848WAT     H147786   5.338   6.039   3.375
15848WAT     H247787   5.197   5.982   3.315
15849WAT      O47788   9.678   0.053   2.667
15849WAT     H147789   9.599   0.057   2.606
15849WAT     H247790   9.759   0.027   2.615
15850WAT      O47791   4.746   2.540   2.670
15850WAT     H147792   4.671   2.473   2.667
15850WAT     H247793   4.767   2.561   2.765
15851WAT      O47794   9.674   8.106   2.844
15851WAT     H147795   9.584   8.091   2.803
15851WAT     H247796   9.666   8.175   2.916
15852WAT      O47797   7.345   0.793   1.231
15852WAT     H147798   7.411   0.860   1.197
15852WAT     H247799   7.388   0.703   1.236
15853WAT      O47800   0.825   0.889   6.678
15853WAT     H147801   0.857   0.794   6.680
15853WAT     H247802   0.886   0.944   6.622
15854WAT      O47803   8.162   1.685   9.201
15854WAT     H147804   8.237   1.633   9.159
15854WAT     H247805   8.106   1.725   9.129
15855WAT      O47806   2.010   6.748   4.165
15855WAT     H147807   2.072   6.690   4.112
15855WAT     H247808   1.916   6.723   4.144
15856WAT      O47809   6.118   5.730   7.848
15856WAT     H147810   6.159   5.640   7.832
15856WAT     H247811   6.165   5.798   7.791
15857WAT      O47812   6.369   1.920   3.685
15857WAT     H147813   6.363   2.012   3.648
15857WAT     H247814   6.295   1.905   3.750
15858WAT      O47815   4.656   2.234   5.687
15858WAT     H147816   4.676   2.328   5.713
15858WAT     H247817   4.738   2.178   5.699
15859WAT      O47818   4.894   9.771   7.565
15859WAT     H147819   4.933   9.760   7.656
15859WAT     H247820   4.968   9.781   7.498
15860WAT      O47821   6.622   7.331   6.087
15860WAT     H147822   6.530   7.326   6.127
15860WAT     H247823   6.634   7.419   6.041
15861WAT      O47824   6.234   4.363   6.530
15861WAT     H147825   6.283   4.323   6.453
15861WAT     H247826   6.299   4.408   6.592
15862WAT      O47827   9.546   3.148   6.812
15862WAT     H147828   9.475   3.091   6.854
15862WAT     H247829   9.600   3.092   6.749
15863WAT      O47830   4.521   3.617   3.984
15863WAT     H147831   4.621   3.618   3.979
15863WAT     H247832   4.491   3.667   4.065
15864WAT      O47833   3.828   7.730   4.850
15864WAT     H147834   3.919   7.689   4.849
15864WAT     H247835   3.799   7.749   4.756
15865WAT      O47836   2.448   7.891   1.103
15865WAT     H147837   2.492   7.846   1.026
15865WAT     H247838   2.391   7.967   1.071
15866WAT      O47839   9.397   2.431   1.907
15866WAT     H147840   9.440   2.514   1.872
15866WAT     H247841   9.386   2.439   2.007
15867WAT      O47842   6.074   5.845   3.589
15867WAT     H147843   6.085   5.862   3.686
15867WAT     H247844   5.980   5.814   3.571
15868WAT      O47845   5.065   5.885   7.568
15868WAT     H147846   5.025   5.853   7.654
15868WAT     H247847   5.042   5.820   7.495
15869WAT      O47848   6.993   2.855   1.218
15869WAT     H147849   7.005   2.856   1.119
15869WAT     H247850   6.948   2.940   1.247
15870WAT      O47851   4.598   0.800   4.821
15870WAT     H147852   4.574   0.895   4.796
15870WAT     H247853   4.681   0.800   4.875
15871WAT      O47854   2.675   9.445   6.058
15871WAT     H147855   2.691   9.537   6.021
15871WAT     H247856   2.580   9.437   6.088
15872WAT      O47857   5.925   8.302   0.509
15872WAT     H147858   5.950   8.311   0.412
15872WAT     H247859   5.840   8.351   0.526
15873WAT      O47860   0.509   3.044   2.524
15873WAT     H147861   0.521   3.034   2.623
15873WAT     H247862   0.413   3.032   2.501
15874WAT      O47863   8.573   9.580   3.949
15874WAT     H147864   8.501   9.568   3.881
15874WAT     H247865   8.587   9.677   3.967
15875WAT      O47866   2.552   4.153   2.228
15875WAT     H147867   2.526   4.163   2.324
15875WAT     H247868   2.531   4.238   2.179
15876WAT      O47869   8.929   1.902   9.025
15876WAT     H147870   8.881   1.814   9.026
15876WAT     H247871   8.866   1.974   9.054
15877WAT      O47872   6.270   6.710   3.888
15877WAT     H147873   6.337   6.650   3.845
15877WAT     H247874   6.285   6.804   3.860
15878WAT      O47875   7.629   7.778   8.165
15878WAT     H147876   7.641   7.686   8.201
15878WAT     H247877   7.561   7.827   8.220
15879WAT      O47878   4.455   6.624   1.580
15879WAT     H147879   4.483   6.538   1.537
15879WAT     H247880   4.536   6.676   1.608
15880WAT      O47881   1.036   3.589   7.216
15880WAT     H147882   0.985   3.655   7.271
15880WAT     H247883   1.076   3.520   7.275
15881WAT      O47884   2.610   6.170   8.760
15881WAT     H147885   2.648   6.083   8.729
15881WAT     H247886   2.574   6.159   8.853
15882WAT      O47887   7.977   6.035   6.146
15882WAT     H147888   7.985   6.003   6.240
15882WAT     H247889   7.881   6.054   6.126
15883WAT      O47890   3.723   1.178   2.823
15883WAT     H147891   3.740   1.182   2.724
15883WAT     H247892   3.625   1.183   2.840
15884WAT      O47893   6.739   0.967   2.689
15884WAT     H147894   6.727   0.894   2.757
15884WAT     H247895   6.796   0.933   2.614
15885WAT      O47896   3.080   8.674   6.712
15885WAT     H147897   3.107   8.769   6.720
15885WAT     H247898   3.026   8.647   6.792
15886WAT      O47899   8.964   6.780   5.578
15886WAT     H147900   9.055   6.808   5.610
15886WAT     H247901   8.945   6.822   5.489
15887WAT      O47902   4.632   6.555   2.861
15887WAT     H147903   4.539   6.529   2.835
15887WAT     H247904   4.648   6.651   2.839
15888WAT      O47905   6.148   4.744   7.947
15888WAT     H147906   6.183   4.694   8.026
15888WAT     H247907   6.225   4.768   7.887
15889WAT      O47908   5.610   6.980   8.265
15889WAT     H147909   5.646   6.898   8.221
15889WAT     H247910   5.574   7.041   8.194
15890WAT      O47911   6.068   6.700   4.552
15890WAT     H147912   5.990   6.736   4.604
15890WAT     H247913   6.047   6.607   4.522
15891WAT      O47914   9.144   6.619   1.137
15891WAT     H147915   9.189   6.663   1.214
15891WAT     H247916   9.128   6.523   1.159
15892WAT      O47917   8.148   6.524   7.101
15892WAT     H147918   8.087   6.454   7.139
15892WAT     H247919   8.211   6.556   7.172
15893WAT      O47920   3.971   9.014   7.250
15893WAT     H147921   3.931   9.105   7.237
15893WAT     H247922   4.069   9.018   7.233
15894WAT      O47923   8.777   0.759   5.131
15894WAT     H147924   8.859   0.810   5.158
15894WAT     H247925   8.763   0.683   5.194
15895WAT      O47926   2.482   3.441   6.448
15895WAT     H147927   2.518   3.449   6.541
15895WAT     H247928   2.447   3.349   6.433
15896WAT      O47929   2.777   6.570   7.354
15896WAT     H147930   2.808   6.490   7.404
15896WAT     H247931   2.711   6.622   7.409
15897WAT      O47932   7.451   3.830   6.520
15897WAT     H147933   7.504   3.823   6.436
15897WAT     H247934   7.506   3.796   6.597
15898WAT      O47935   6.547   4.494   4.000
15898WAT     H147936   6.600   4.410   4.015
15898WAT     H247937   6.552   4.551   4.081
15899WAT      O47938   0.256   4.411   3.490
15899WAT     H147939   0.217   4.490   3.443
15899WAT     H247940   0.189   4.375   3.555
15900WAT      O47941   4.429   8.451   5.676
15900WAT     H147942   4.346   8.490   5.716
15900WAT     H247943   4.432   8.352   5.695
15901WAT      O47944   3.150   1.150   6.814
15901WAT     H147945   3.192   1.091   6.883
15901WAT     H247946   3.210   1.228   6.796
15902WAT      O47947   5.571   2.141   6.449
15902WAT     H147948   5.521   2.055   6.453
15902WAT     H247949   5.648   2.133   6.385
15903WAT      O47950   9.670   0.655   5.191
15903WAT     H147951   9.642   0.636   5.097
15903WAT     H247952   9.675   0.570   5.242
15904WAT      O47953   1.745   8.233   8.585
15904WAT     H147954   1.799   8.160   8.627
15904WAT     H247955   1.776   8.322   8.619
15905WAT      O47956   8.559   1.269   8.016
15905WAT     H147957   8.494   1.211   8.064
15905WAT     H247958   8.552   1.253   7.917
15906WAT      O47959   4.123   7.209   4.147
15906WAT     H147960   4.080   7.254   4.225
15906WAT     H247961   4.221   7.197   4.165
15907WAT      O47962   2.634   9.707   8.840
15907WAT     H147963   2.721   9.669   8.872
15907WAT     H247964   2.646   9.747   8.749
15908WAT      O47965   5.665   1.329   2.899
15908WAT     H147966   5.613   1.321   2.814
15908WAT     H247967   5.613   1.384   2.965
15909WAT      O47968   5.545   2.752   4.192
15909WAT     H147969   5.495   2.677   4.148
15909WAT     H247970   5.600   2.799   4.124
15910WAT      O47971   9.740   5.744   5.899
15910WAT     H147972   9.723   5.678   5.825
15910WAT     H247973   9.654   5.766   5.945
15911WAT      O47974   1.461   4.251   6.318
15911WAT     H147975   1.367   4.217   6.313
15911WAT     H247976   1.506   4.213   6.399
15912WAT      O47977   9.117   7.055   8.115
15912WAT     H147978   9.122   7.021   8.021
15912WAT     H247979   9.040   7.118   8.124
15913WAT      O47980   4.762   2.499   5.754
15913WAT     H147981   4.745   2.544   5.666
15913WAT     H247982   4.744   2.564   5.828
15914WAT      O47983   1.081   5.882   6.594
15914WAT     H147984   1.049   5.907   6.502
15914WAT     H247985   1.028   5.804   6.627
15915WAT      O47986   0.278   8.427   9.466
15915WAT     H147987   0.236   8.481   9.393
15915WAT     H247988   0.315   8.342   9.428
15916WAT      O47989   6.891   4.849   0.564
15916WAT     H147990   6.932   4.932   0.602
15916WAT     H247991   6.795   4.866   0.542
15917WAT      O47992   3.584   3.220   9.345
15917WAT     H147993   3.618   3.129   9.325
15917WAT     H247994   3.644   3.288   9.304
15918WAT      O47995   9.612   3.612   8.271
15918WAT     H147996   9.586   3.547   8.342
15918WAT     H247997   9.706   3.593   8.241
15919WAT      O47998   6.553   0.311   8.538
15919WAT     H147999   6.531   0.281   8.445
15919WAT     H248000   6.553   0.410   8.542
15920WAT      O48001   1.844   7.828   8.286
15920WAT     H148002   1.769   7.891   8.267
15920WAT     H248003   1.923   7.879   8.320
15921WAT      O48004   6.435   9.389   9.632
15921WAT     H148005   6.431   9.379   9.532
15921WAT     H248006   6.353   9.437   9.663
15922WAT      O48007   9.878   3.259   5.163
15922WAT     H148008   9.789   3.253   5.118
15922WAT     H248009   9.867   3.239   5.261
15923WAT      O48010   0.568   2.255   5.252
15923WAT     H148011   0.643   2.289   5.195
15923WAT     H248012   0.513   2.190   5.200
15924WAT      O48013   7.493   1.581   9.572
15924WAT     H148014   7.440   1.497   9.563
15924WAT     H248015   7.583   1.567   9.531
15925WAT      O48016   4.958   2.831   6.460
15925WAT     H148017   4.951   2.751   6.519
15925WAT     H248018   4.911   2.814   6.374
15926WAT      O48019   3.317   5.291   2.578
15926WAT     H148020   3.386   5.221   2.595
15926WAT     H248021   3.268   5.311   2.663
15927WAT      O48022   5.338   8.529   1.974
15927WAT     H148023   5.298   8.619   1.960
15927WAT     H248024   5.393   8.529   2.057
15928WAT      O48025   3.950   8.123   1.438
15928WAT     H148026   3.880   8.161   1.377
15928WAT     H248027   3.940   8.024   1.442
15929WAT      O48028   1.629   7.978   5.223
15929WAT     H148029   1.716   8.024   5.242
15929WAT     H248030   1.607   7.916   5.297
15930WAT      O48031   8.742   7.124   7.687
15930WAT     H148032   8.813   7.164   7.746
15930WAT     H248033   8.658   7.177   7.695
15931WAT      O48034   7.641   5.814   5.947
15931WAT     H148035   7.650   5.716   5.966
15931WAT     H248036   7.727   5.860   5.968
15932WAT      O48037   7.306   4.937   2.683
15932WAT     H148038   7.355   5.018   2.716
15932WAT     H248039   7.286   4.948   2.585
15933WAT      O48040   7.620   6.641   2.974
15933WAT     H148041   7.703   6.680   2.933
15933WAT     H248042   7.589   6.699   3.049
15934WAT      O48043   0.904   5.966   6.378
15934WAT     H148044   0.916   5.926   6.287
15934WAT     H248045   0.922   6.064   6.374
15935WAT      O48046   2.668   8.081   4.363
15935WAT     H148047   2.666   8.179   4.383
15935WAT     H248048   2.738   8.063   4.293
15936WAT      O48049   6.978   7.740   3.044
15936WAT     H148050   6.916   7.708   3.116
15936WAT     H248051   6.999   7.665   2.982
15937WAT      O48052   9.104   1.476   6.906
15937WAT     H148053   9.172   1.408   6.878
15937WAT     H248054   9.100   1.549   6.837
15938WAT      O48055   8.181   3.205   7.954
15938WAT     H148056   8.278   3.195   7.930
15938WAT     H248057   8.167   3.177   8.049
15939WAT      O48058   1.549   6.534   1.962
15939WAT     H148059   1.479   6.561   2.028
15939WAT     H248060   1.511   6.467   1.898
15940WAT      O48061   3.951   2.434   7.451
15940WAT     H148062   3.885   2.489   7.503
15940WAT     H248063   3.906   2.400   7.368
15941WAT      O48064   2.437   1.606   3.918
15941WAT     H148065   2.432   1.547   3.837
15941WAT     H248066   2.391   1.693   3.898
15942WAT      O48067   1.289   4.532   1.479
15942WAT     H148068   1.198   4.516   1.440
15942WAT     H248069   1.359   4.500   1.416
15943WAT      O48070   1.589   7.192   1.115
15943WAT     H148071   1.678   7.148   1.119
15943WAT     H248072   1.542   7.180   1.203
15944WAT      O48073   1.090   9.799   8.042
15944WAT     H148074   1.012   9.804   8.104
15944WAT     H248075   1.058   9.776   7.950
15945WAT      O48076   7.749   8.599   6.323
15945WAT     H148077   7.659   8.602   6.367
15945WAT     H248078   7.817   8.565   6.388
15946WAT      O48079   7.440   0.116   8.910
15946WAT     H148080   7.413   0.162   8.994
15946WAT     H248081   7.427   0.178   8.833
15947WAT      O48082   2.802   7.066   6.895
15947WAT     H148083   2.864   7.098   6.967
15947WAT     H248084   2.818   7.118   6.811
15948WAT      O48085   8.162   3.411   9.092
15948WAT     H148086   8.156   3.324   9.043
15948WAT     H248087   8.116   3.482   9.040
15949WAT      O48088   1.881   6.605   7.496
15949WAT     H148089   1.854   6.701   7.484
15949WAT     H248090   1.847   6.551   7.419
15950WAT      O48091   7.462   3.011   4.116
15950WAT     H148092   7.418   3.013   4.026
15950WAT     H248093   7.560   2.992   4.104
15951WAT      O48094   6.339   6.097   1.665
15951WAT     H148095   6.438   6.104   1.653
15951WAT     H248096   6.303   6.183   1.701
15952WAT      O48097   8.721   6.411   4.127
15952WAT     H148098   8.813   6.400   4.165
15952WAT     H248099   8.653   6.379   4.194
15953WAT      O48100   6.314   0.383   1.201
15953WAT     H148101   6.347   0.410   1.291
15953WAT     H248102   6.281   0.289   1.204
15954WAT      O48103   2.956   7.136   7.677
15954WAT     H148104   2.949   7.037   7.689
15954WAT     H248105   2.865   7.177   7.684
15955WAT      O48106   6.895   6.113   1.384
15955WAT     H148107   6.846   6.026   1.380
15955WAT     H248108   6.964   6.110   1.457
15956WAT      O48109   9.572   0.268   5.013
15956WAT     H148110   9.527   0.316   5.088
15956WAT     H248111   9.603   0.334   4.945
15957WAT      O48112   3.347   6.896   0.175
15957WAT     H148113   3.247   6.893   0.183
15957WAT     H248114   3.387   6.892   0.267
15958WAT      O48115   3.907   7.449   1.387
15958WAT     H148116   3.878   7.506   1.310
15958WAT     H248117   3.968   7.502   1.446
15959WAT      O48118   5.905   1.883   4.434
15959WAT     H148119   5.946   1.962   4.480
15959WAT     H248120   5.951   1.868   4.346
15960WAT      O48121   2.526   2.465   8.415
15960WAT     H148122   2.464   2.440   8.490
15960WAT     H248123   2.582   2.543   8.442
15961WAT      O48124   5.587   3.256   5.077
15961WAT     H148125   5.618   3.181   5.136
15961WAT     H248126   5.667   3.307   5.045
15962WAT      O48127   1.149   3.931   4.436
15962WAT     H148128   1.190   3.849   4.476
15962WAT     H248129   1.164   4.009   4.496
15963WAT      O48130   9.059   5.593   0.321
15963WAT     H148131   9.080   5.501   0.288
15963WAT     H248132   9.052   5.592   0.420
15964WAT      O48133   8.118   1.748   4.847
15964WAT     H148134   8.143   1.682   4.776
15964WAT     H248135   8.101   1.699   4.933
15965WAT      O48136   9.403   1.662   0.972
15965WAT     H148137   9.501   1.640   0.973
15965WAT     H248138   9.375   1.686   0.880
15966WAT      O48139   3.122   8.755   5.685
15966WAT     H148140   3.032   8.718   5.664
15966WAT     H248141   3.144   8.830   5.623
15967WAT      O48142   8.139   1.413   0.505
15967WAT     H148143   8.133   1.429   0.407
15967WAT     H248144   8.108   1.494   0.555
15968WAT      O48145   2.590   3.962   0.624
15968WAT     H148146   2.566   4.032   0.691
15968WAT     H248147   2.510   3.941   0.568
15969WAT      O48148   4.515   3.990   6.900
15969WAT     H148149   4.420   4.005   6.873
15969WAT     H248150   4.576   4.024   6.828
15970WAT      O48151   0.796   7.691   2.296
15970WAT     H148152   0.722   7.733   2.349
15970WAT     H248153   0.767   7.601   2.265
15971WAT      O48154   3.418   5.922   9.175
15971WAT     H148155   3.394   5.861   9.251
15971WAT     H248156   3.404   6.016   9.203
15972WAT      O48157   0.803   0.049   9.738
15972WAT     H148158   0.855   0.085   9.660
15972WAT     H248159   0.849  -0.032   9.774
15973WAT      O48160   2.937   1.557   6.744
15973WAT     H148161   2.956   1.473   6.693
15973WAT     H248162   2.936   1.634   6.680
15974WAT      O48163   4.274   9.326   0.832
15974WAT     H148164   4.346   9.275   0.784
15974WAT     H248165   4.252   9.279   0.918
15975WAT      O48166   4.274   4.503   8.060
15975WAT     H148167   4.360   4.547   8.034
15975WAT     H248168   4.222   4.565   8.120
15976WAT      O48169   2.423   6.268   1.972
15976WAT     H148170   2.368   6.333   2.023
15976WAT     H248171   2.366   6.190   1.944
15977WAT      O48172   4.153   1.136   1.586
15977WAT     H148173   4.179   1.222   1.540
15977WAT     H248174   4.142   1.064   1.518
15978WAT      O48175   3.158   1.616   7.759
15978WAT     H148176   3.198   1.682   7.823
15978WAT     H248177   3.111   1.665   7.686
15979WAT      O48178   6.649   3.461   4.615
15979WAT     H148179   6.623   3.396   4.687
15979WAT     H248180   6.623   3.554   4.643
15980WAT      O48181   3.858   8.546   9.717
15980WAT     H148182   3.795   8.582   9.648
15980WAT     H248183   3.817   8.557   9.808
15981WAT      O48184   6.767   2.938   6.022
15981WAT     H148185   6.749   2.885   6.105
15981WAT     H248186   6.865   2.957   6.016
15982WAT      O48187   4.378   7.587   9.792
15982WAT     H148188   4.450   7.532   9.836
15982WAT     H248189   4.420   7.651   9.727
15983WAT      O48190   8.969   6.586   5.186
15983WAT     H148191   9.058   6.601   5.229
15983WAT     H248192   8.919   6.517   5.237
15984WAT      O48193   9.412   3.354   2.959
15984WAT     H148194   9.419   3.396   2.869
15984WAT     H248195   9.382   3.259   2.949
15985WAT      O48196   4.330   2.527   5.159
15985WAT     H148197   4.404   2.592   5.141
15985WAT     H248198   4.267   2.526   5.081
15986WAT      O48199   1.798   0.625   4.669
15986WAT     H148200   1.791   0.627   4.569
15986WAT     H248201   1.879   0.676   4.697
15987WAT      O48202   9.815   0.366   6.633
15987WAT     H148203   9.829   0.290   6.569
15987WAT     H248204   9.797   0.330   6.724
15988WAT      O48205   1.001   0.247   4.046
15988WAT     H148206   0.949   0.198   3.975
15988WAT     H248207   1.097   0.252   4.019
15989WAT      O48208   2.211   5.710   3.426
15989WAT     H148209   2.141   5.725   3.355
15989WAT     H248210   2.186   5.762   3.508
15990WAT      O48211   2.148   3.197   6.391
15990WAT     H148212   2.245   3.178   6.378
15990WAT     H248213   2.132   3.295   6.382
15991WAT      O48214   0.097   9.797   3.891
15991WAT     H148215   0.135   9.752   3.972
15991WAT     H248216   0.044   9.877   3.920
15992WAT      O48217   3.931   6.211   1.695
15992WAT     H148218   3.990   6.279   1.739
15992WAT     H248219   3.863   6.178   1.760
15993WAT      O48220   1.239   1.913   7.054
15993WAT     H148221   1.198   1.849   6.988
15993WAT     H248222   1.303   1.973   7.006
15994WAT      O48223   8.913   2.730   9.753
15994WAT     H148224   9.000   2.694   9.785
15994WAT     H248225   8.894   2.694   9.662
15995WAT      O48226   5.219   7.322   2.170
15995WAT     H148227   5.312   7.303   2.201
15995WAT     H248228   5.208   7.292   2.075
15996WAT      O48229   8.709   3.818   5.615
15996WAT     H148230   8.698   3.794   5.519
15996WAT     H248231   8.622   3.808   5.662
15997WAT      O48232   7.944   4.352   0.651
15997WAT     H148233   7.931   4.309   0.741
15997WAT     H248234   7.855   4.379   0.614
15998WAT      O48235   2.924   2.352   3.578
15998WAT     H148236   2.838   2.301   3.568
15998WAT     H248237   2.911   2.446   3.547
15999WAT      O48238   1.294   2.852   5.341
15999WAT     H148239   1.339   2.878   5.256
15999WAT     H248240   1.356   2.867   5.418
16000WAT      O48241   0.717   5.834   8.189
16000WAT     H148242   0.731   5.930   8.162
16000WAT     H248243   0.792   5.805   8.249
16001WAT      O48244   2.162   2.572   5.437
16001WAT     H148245   2.214   2.610   5.514
16001WAT     H248246   2.103   2.643   5.399
16002WAT      O48247   7.222   8.416   9.011
16002WAT     H148248   7.279   8.411   8.929
16002WAT     H248249   7.180   8.507   9.016
16003WAT      O48250   3.205   1.598   3.396
16003WAT     H148251   3.219   1.622   3.492
16003WAT     H248252   3.288   1.554   3.360
16004WAT      O48253   5.964   3.227   6.610
16004WAT     H148254   6.047   3.225   6.555
16004WAT     H248255   5.940   3.322   6.631
16005WAT      O48256   5.852   7.388   2.765
16005WAT     H148257   5.948   7.396   2.737
16005WAT     H248258   5.829   7.464   2.826
16006WAT      O48259   7.066   2.940   8.072
16006WAT     H148260   7.100   3.021   8.119
16006WAT     H248261   7.100   2.940   7.978
16007WAT      O48262   4.834   4.591   2.983
16007WAT     H148263   4.905   4.527   2.955
16007WAT     H248264   4.802   4.641   2.903
16008WAT      O48265   9.601   8.575   0.919
16008WAT     H148266   9.673   8.641   0.943
16008WAT     H248267   9.602   8.499   0.984
16009WAT      O48268   9.660   3.845   8.118
16009WAT     H148269   9.578   3.888   8.079
16009WAT     H248270   9.635   3.759   8.162
16010WAT      O48271   0.963   8.283   9.628
16010WAT     H148272   0.901   8.316   9.557
16010WAT     H248273   1.002   8.195   9.600
16011WAT      O48274   3.762   7.440   8.664
16011WAT     H148275   3.822   7.374   8.620
16011WAT     H248276   3.711   7.490   8.594
16012WAT      O48277   2.531   8.297   0.430
16012WAT     H148278   2.480   8.266   0.510
16012WAT     H248279   2.473   8.291   0.349
16013WAT      O48280   8.885   1.275   3.336
16013WAT     H148281   8.967   1.218   3.344
16013WAT     H248282   8.808   1.228   3.379
16014WAT      O48283   3.729   5.944   2.396
16014WAT     H148284   3.673   5.871   2.435
16014WAT     H248285   3.740   5.929   2.298
16015WAT      O48286   3.464   1.959   2.112
16015WAT     H148287   3.518   2.008   2.181
16015WAT     H248288   3.432   1.873   2.151
16016WAT      O48289   7.834   6.163   7.511
16016WAT     H148290   7.749   6.185   7.462
16016WAT     H248291   7.885   6.095   7.458
16017WAT      O48292   8.400   5.141   1.038
16017WAT     H148293   8.398   5.179   0.945
16017WAT     H248294   8.467   5.066   1.041
16018WAT      O48295   1.774   1.996   2.245
16018WAT     H148296   1.851   2.040   2.291
16018WAT     H248297   1.803   1.908   2.208
16019WAT      O48298   6.083   3.505   3.127
16019WAT     H148299   6.167   3.546   3.093
16019WAT     H248300   6.072   3.413   3.088
16020WAT      O48301   2.920   2.774   7.791
16020WAT     H148302   2.872   2.850   7.834
16020WAT     H248303   3.018   2.781   7.809
16021WAT      O48304   8.189   6.825   8.398
16021WAT     H148305   8.148   6.908   8.435
16021WAT     H248306   8.258   6.849   8.330
16022WAT      O48307   3.324   7.278   4.567
16022WAT     H148308   3.336   7.194   4.514
16022WAT     H248309   3.252   7.333   4.525
16023WAT      O48310   9.476   8.617   7.290
16023WAT     H148311   9.428   8.567   7.218
16023WAT     H248312   9.430   8.704   7.307
16024WAT      O48313   9.327   8.804   9.521
16024WAT     H148314   9.240   8.793   9.570
16024WAT     H248315   9.330   8.741   9.444
16025WAT      O48316   0.252   4.723   5.239
16025WAT     H148317   0.184   4.650   5.246
16025WAT     H248318   0.243   4.768   5.150
16026WAT      O48319   6.282   8.442   2.608
16026WAT     H148320   6.343   8.387   2.665
16026WAT     H248321   6.317   8.446   2.515
16027WAT      O48322   4.736   4.352   3.920
16027WAT     H148323   4.748   4.435   3.866
16027WAT     H248324   4.677   4.289   3.871
16028WAT      O48325   7.533   8.202   7.465
16028WAT     H148326   7.586   8.176   7.546
16028WAT     H248327   7.438   8.217   7.490
16029WAT      O48328   6.323   2.958   0.917
16029WAT     H148329   6.344   2.878   0.861
16029WAT     H248330   6.385   2.962   0.995
16030WAT      O48331   1.622   0.375   0.570
16030WAT     H148332   1.700   0.344   0.623
16030WAT     H248333   1.589   0.301   0.512
16031WAT      O48334   8.854   8.971   2.557
16031WAT     H148335   8.789   9.004   2.625
16031WAT     H248336   8.933   8.930   2.603
16032WAT      O48337   7.413   7.540   9.532
16032WAT     H148338   7.364   7.456   9.509
16032WAT     H248339   7.394   7.610   9.463
16033WAT      O48340   4.757   1.328   7.026
16033WAT     H148341   4.821   1.294   6.958
16033WAT     H248342   4.762   1.272   7.109
16034WAT      O48343   0.872   6.133   3.652
16034WAT     H148344   0.844   6.228   3.635
16034WAT     H248345   0.828   6.073   3.585
16035WAT      O48346   2.286   8.573   3.000
16035WAT     H148347   2.370   8.621   3.028
16035WAT     H248348   2.295   8.545   2.904
16036WAT      O48349   5.030   2.079   3.917
16036WAT     H148350   5.025   2.132   4.001
16036WAT     H248351   5.110   2.107   3.865
16037WAT      O48352   5.093   6.156   7.035
16037WAT     H148353   5.173   6.154   7.095
16037WAT     H248354   5.105   6.090   6.960
16038WAT      O48355   1.643   3.095   1.362
16038WAT     H148356   1.572   3.026   1.375
16038WAT     H248357   1.675   3.094   1.268
16039WAT      O48358   9.594   6.759   0.775
16039WAT     H148359   9.624   6.790   0.684
16039WAT     H248360   9.668   6.707   0.818
16040WAT      O48361   8.466   4.972   7.668
16040WAT     H148362   8.446   5.026   7.587
16040WAT     H248363   8.467   5.031   7.748
16041WAT      O48364   9.487   4.662   7.503
16041WAT     H148365   9.552   4.729   7.468
16041WAT     H248366   9.536   4.579   7.531
16042WAT      O48367   1.496   4.899   3.998
16042WAT     H148368   1.497   4.995   4.029
16042WAT     H248369   1.446   4.844   4.064
16043WAT      O48370   3.325   5.991   7.318
16043WAT     H148371   3.374   5.949   7.394
16043WAT     H248372   3.350   5.945   7.232
16044WAT      O48373   9.548   7.471   7.588
16044WAT     H148374   9.590   7.454   7.678
16044WAT     H248375   9.500   7.389   7.558
16045WAT      O48376   2.182   6.262   7.496
16045WAT     H148377   2.153   6.314   7.416
16045WAT     H248378   2.161   6.314   7.579
16046WAT      O48379   6.625   2.778   2.627
16046WAT     H148380   6.603   2.856   2.686
16046WAT     H248381   6.543   2.723   2.613
16047WAT      O48382   0.997   6.251   6.328
16047WAT     H148383   0.983   6.347   6.301
16047WAT     H248384   1.088   6.221   6.300
16048WAT      O48385   2.219   0.186   0.093
16048WAT     H148386   2.266   0.150   0.173
16048WAT     H248387   2.205   0.113   0.026
16049WAT      O48388   1.995   0.962   3.299
16049WAT     H148389   2.075   0.942   3.243
16049WAT     H248390   1.962   0.877   3.341
16050WAT      O48391   6.094   5.937   7.289
16050WAT     H148392   6.108   5.904   7.382
16050WAT     H248393   6.012   5.897   7.250
16051WAT      O48394   3.955   9.320   8.696
16051WAT     H148395   4.030   9.265   8.732
16051WAT     H248396   3.869   9.270   8.703
16052WAT      O48397   6.852   4.925   2.775
16052WAT     H148398   6.894   4.838   2.798
16052WAT     H248399   6.878   4.952   2.683
16053WAT      O48400   7.414   8.659   7.179
16053WAT     H148401   7.347   8.664   7.253
16053WAT     H248402   7.402   8.737   7.118
16054WAT      O48403   0.546   4.645   6.276
16054WAT     H148404   0.592   4.573   6.224
16054WAT     H248405   0.598   4.664   6.360
16055WAT      O48406   7.289   1.987   5.636
16055WAT     H148407   7.215   2.046   5.605
16055WAT     H248408   7.288   1.982   5.736
16056WAT      O48409   9.812   3.972   0.664
16056WAT     H148410   9.890   4.022   0.626
16056WAT     H248411   9.753   4.036   0.714
16057WAT      O48412   8.971   4.737   2.301
16057WAT     H148413   9.069   4.720   2.313
16057WAT     H248414   8.954   4.835   2.300
16058WAT      O48415   4.272   8.398   3.903
16058WAT     H148416   4.296   8.494   3.888
16058WAT     H248417   4.262   8.352   3.815
16059WAT      O48418   0.333   2.546   9.366
16059WAT     H148419   0.375   2.470   9.415
16059WAT     H248420   0.404   2.612   9.339
16060WAT      O48421   2.769   1.135   7.179
16060WAT     H148422   2.822   1.161   7.099
16060WAT     H248423   2.766   1.212   7.243
16061WAT      O48424   5.190   4.563   1.996
16061WAT     H148425   5.282   4.598   1.977
16061WAT     H248426   5.158   4.602   2.083
16062WAT      O48427   8.098   8.027   7.697
16062WAT     H148428   8.093   8.080   7.612
16062WAT     H248429   8.006   8.010   7.731
16063WAT      O48430   1.174   3.468   8.213
16063WAT     H148431   1.165   3.519   8.128
16063WAT     H248432   1.113   3.389   8.212
16064WAT      O48433   3.078   5.959   3.324
16064WAT     H148434   3.135   5.955   3.406
16064WAT     H248435   3.024   5.875   3.318
16065WAT      O48436   5.182   5.317   5.916
16065WAT     H148437   5.142   5.245   5.973
16065WAT     H248438   5.140   5.405   5.939
16066WAT      O48439   8.689   6.647   0.089
16066WAT     H148440   8.674   6.685  -0.002
16066WAT     H248441   8.670   6.717   0.158
16067WAT      O48442   9.087   9.843   8.542
16067WAT     H148443   9.077   9.751   8.503
16067WAT     H248444   9.005   9.896   8.524
16068WAT      O48445   9.585   1.619   2.982
16068WAT     H148446   9.670   1.588   2.939
16068WAT     H248447   9.548   1.697   2.931
16069WAT      O48448   0.543   0.293   7.542
16069WAT     H148449   0.536   0.364   7.612
16069WAT     H248450   0.605   0.221   7.573
16070WAT      O48451   5.350   5.781   5.162
16070WAT     H148452   5.345   5.762   5.064
16070WAT     H248453   5.360   5.695   5.212
16071WAT      O48454   4.495   7.872   0.147
16071WAT     H148455   4.398   7.887   0.165
16071WAT     H248456   4.514   7.891   0.051
16072WAT      O48457   0.794   6.539   6.466
16072WAT     H148458   0.761   6.514   6.557
16072WAT     H248459   0.785   6.460   6.405
16073WAT      O48460   2.596   5.296   8.145
16073WAT     H148461   2.569   5.357   8.071
16073WAT     H248462   2.538   5.314   8.225
16074WAT      O48463   7.595   8.968   6.110
16074WAT     H148464   7.681   8.923   6.133
16074WAT     H248465   7.585   9.051   6.166
16075WAT      O48466   3.737   5.244   7.667
16075WAT     H148467   3.791   5.320   7.704
16075WAT     H248468   3.695   5.272   7.581
16076WAT      O48469   7.013   2.165   8.230
16076WAT     H148470   7.088   2.213   8.277
16076WAT     H248471   7.033   2.160   8.132
16077WAT      O48472   9.402   7.505   0.721
16077WAT     H148473   9.324   7.550   0.679
16077WAT     H248474   9.371   7.449   0.798
16078WAT      O48475   5.888   6.999   6.339
16078WAT     H148476   5.945   6.986   6.419
16078WAT     H248477   5.878   6.912   6.290
16079WAT      O48478   0.970   6.580   8.254
16079WAT     H148479   1.018   6.634   8.322
16079WAT     H248480   0.876   6.612   8.246
16080WAT      O48481   3.668   6.613   9.750
16080WAT     H148482   3.757   6.620   9.794
16080WAT     H248483   3.596   6.634   9.816
16081WAT      O48484   4.707   5.402   1.738
16081WAT     H148485   4.667   5.451   1.660
16081WAT     H248486   4.768   5.330   1.703
16082WAT      O48487   4.340   9.408   5.376
16082WAT     H148488   4.286   9.483   5.412
16082WAT     H248489   4.321   9.325   5.429
16083WAT      O48490   0.357   4.257   5.367
16083WAT     H148491   0.369   4.245   5.268
16083WAT     H248492   0.402   4.342   5.396
16084WAT      O48493   8.652   0.568   6.758
16084WAT     H148494   8.744   0.539   6.730
16084WAT     H248495   8.619   0.508   6.831
16085WAT      O48496   5.041   2.920   6.797
16085WAT     H148497   5.082   2.987   6.735
16085WAT     H248498   5.047   2.829   6.755
16086WAT      O48499   2.321   1.922   9.262
16086WAT     H148500   2.368   1.970   9.336
16086WAT     H248501   2.241   1.976   9.233
16087WAT      O48502   2.705   4.166   2.643
16087WAT     H148503   2.744   4.195   2.730
16087WAT     H248504   2.770   4.108   2.595
16088WAT      O48505   3.806   2.336   8.285
16088WAT     H148506   3.888   2.356   8.231
16088WAT     H248507   3.807   2.391   8.369
16089WAT      O48508   8.067   8.892   0.738
16089WAT     H148509   8.029   8.907   0.829
16089WAT     H248510   8.137   8.961   0.719
16090WAT      O48511   0.939   8.844   5.076
16090WAT     H148512   0.947   8.941   5.053
16090WAT     H248513   0.890   8.833   5.162
16091WAT      O48514   6.659   8.301   1.401
16091WAT     H148515   6.570   8.298   1.446
16091WAT     H248516   6.649   8.272   1.306
16092WAT      O48517   9.502   8.329   6.093
16092WAT     H148518   9.472   8.234   6.084
16092WAT     H248519   9.512   8.352   6.190
16093WAT      O48520   7.704   1.811   6.314
16093WAT     H148521   7.620   1.861   6.291
16093WAT     H248522   7.712   1.802   6.413
16094WAT      O48523   6.078   2.450   3.152
16094WAT     H148524   6.002   2.445   3.216
16094WAT     H248525   6.148   2.383   3.178
16095WAT      O48526   1.035   6.831   5.453
16095WAT     H148527   0.995   6.920   5.472
16095WAT     H248528   1.063   6.788   5.538
16096WAT      O48529   0.422   5.360   2.655
16096WAT     H148530   0.335   5.395   2.619
16096WAT     H248531   0.470   5.310   2.582
16097WAT      O48532   2.088   9.340   4.433
16097WAT     H148533   2.007   9.283   4.448
16097WAT     H248534   2.062   9.436   4.435
16098WAT      O48535   0.528   3.545   9.280
16098WAT     H148536   0.603   3.516   9.220
16098WAT     H248537   0.441   3.533   9.233
16099WAT      O48538   2.387   9.204   8.027
16099WAT     H148539   2.309   9.199   8.089
16099WAT     H248540   2.472   9.197   8.079
16100WAT      O48541   0.399   5.309   5.343
16100WAT     H148542   0.371   5.398   5.305
16100WAT     H248543   0.352   5.236   5.294
16101WAT      O48544   5.110   2.891   5.763
16101WAT     H148545   5.167   2.947   5.703
16101WAT     H248546   5.165   2.858   5.840
16102WAT      O48547   0.074   0.757   0.339
16102WAT     H148548   0.093   0.708   0.424
16102WAT     H248549   0.124   0.713   0.264
16103WAT      O48550   2.623   4.173   9.118
16103WAT     H148551   2.682   4.242   9.075
16103WAT     H248552   2.675   4.123   9.187
16104WAT      O48553   0.976   2.615   5.539
16104WAT     H148554   0.982   2.706   5.580
16104WAT     H248555   0.883   2.600   5.504
16105WAT      O48556   7.006   7.031   6.232
16105WAT     H148557   6.936   7.047   6.162
16105WAT     H248558   6.998   6.938   6.267
16106WAT      O48559   0.694   1.958   4.600
16106WAT     H148560   0.650   2.017   4.532
16106WAT     H248561   0.631   1.885   4.626
16107WAT      O48562   2.121   5.686   4.472
16107WAT     H148563   2.117   5.659   4.568
16107WAT     H248564   2.059   5.629   4.418
16108WAT      O48565   1.286   5.864   9.068
16108WAT     H148566   1.367   5.841   9.013
16108WAT     H248567   1.242   5.781   9.099
16109WAT      O48568   9.517   1.520   9.217
16109WAT     H148569   9.534   1.604   9.269
16109WAT     H248570   9.422   1.520   9.184
16110WAT      O48571   5.094   4.417   5.606
16110WAT     H148572   5.021   4.384   5.545
16110WAT     H248573   5.183   4.392   5.568
16111WAT      O48574   3.265   4.092   1.611
16111WAT     H148575   3.190   4.060   1.667
16111WAT     H248576   3.229   4.136   1.529
16112WAT      O48577   7.071   3.763   3.248
16112WAT     H148578   7.064   3.765   3.348
16112WAT     H248579   7.027   3.680   3.213
16113WAT      O48580   4.212   4.018   9.250
16113WAT     H148581   4.198   4.114   9.275
16113WAT     H248582   4.152   3.960   9.305
16114WAT      O48583   9.553   5.248   6.747
16114WAT     H148584   9.574   5.268   6.651
16114WAT     H248585   9.483   5.312   6.780
16115WAT      O48586   0.865   6.783   6.958
16115WAT     H148587   0.838   6.771   7.053
16115WAT     H248588   0.800   6.737   6.898
16116WAT      O48589   4.635   5.431   9.409
16116WAT     H148590   4.635   5.522   9.450
16116WAT     H248591   4.673   5.436   9.316
16117WAT      O48592   5.103   8.264   8.387
16117WAT     H148593   5.165   8.266   8.309
16117WAT     H248594   5.028   8.199   8.369
16118WAT      O48595   4.475   0.010   4.836
16118WAT     H148596   4.561   0.021   4.785
16118WAT     H248597   4.495  -0.009   4.932
16119WAT      O48598   2.893   5.971   0.287
16119WAT     H148599   2.836   6.046   0.254
16119WAT     H248600   2.840   5.886   0.285
16120WAT      O48601   3.649   8.928   0.592
16120WAT     H148602   3.735   8.977   0.575
16120WAT     H248603   3.659   8.832   0.565
16121WAT      O48604   7.309   5.672   5.027
16121WAT     H148605   7.302   5.711   5.119
16121WAT     H248606   7.296   5.744   4.959
16122WAT      O48607   8.914   7.928   0.333
16122WAT     H148608   8.848   7.888   0.269
16122WAT     H248609   8.900   8.027   0.338
16123WAT      O48610   5.006   1.035   5.495
16123WAT     H148611   5.049   1.111   5.543
16123WAT     H248612   4.942   0.988   5.555
16124WAT      O48613   8.512   2.248   4.906
16124WAT     H148614   8.571   2.329   4.902
16124WAT     H248615   8.489   2.219   4.813
16125WAT      O48616   1.258   1.423   7.503
16125WAT     H148617   1.255   1.474   7.589
16125WAT     H248618   1.326   1.350   7.510
16126WAT      O48619   3.958   4.856   6.902
16126WAT     H148620   4.056   4.836   6.910
16126WAT     H248621   3.909   4.813   6.977
16127WAT      O48622   9.594   7.040   8.996
16127WAT     H148623   9.627   6.960   8.945
16127WAT     H248624   9.499   7.023   9.025
16128WAT      O48625   1.940   5.082   7.045
16128WAT     H148626   1.914   4.993   7.084
16128WAT     H248627   1.865   5.116   6.989
16129WAT      O48628   8.701   6.391   6.670
16129WAT     H148629   8.686   6.489   6.660
16129WAT     H248630   8.614   6.346   6.692
16130WAT      O48631   2.524   1.484   5.081
16130WAT     H148632   2.485   1.407   5.131
16130WAT     H248633   2.598   1.452   5.022
16131WAT      O48634   6.754   9.281   7.921
16131WAT     H148635   6.827   9.347   7.907
16131WAT     H248636   6.669   9.328   7.943
16132WAT      O48637   8.334   0.704   5.648
16132WAT     H148638   8.308   0.652   5.730
16132WAT     H248639   8.271   0.682   5.574
16133WAT      O48640   0.933   8.490   7.172
16133WAT     H148641   1.025   8.455   7.153
16133WAT     H248642   0.866   8.435   7.122
16134WAT      O48643   5.063   5.746   3.565
16134WAT     H148644   5.013   5.741   3.651
16134WAT     H248645   5.141   5.684   3.568
16135WAT      O48646   4.553   9.578   0.801
16135WAT     H148647   4.488   9.534   0.863
16135WAT     H248648   4.635   9.603   0.852
16136WAT      O48649   4.165   2.137   7.245
16136WAT     H148650   4.180   2.154   7.343
16136WAT     H248651   4.177   2.039   7.226
16137WAT      O48652   0.343   5.885   2.278
16137WAT     H148653   0.285   5.919   2.352
16137WAT     H248654   0.287   5.865   2.198
16138WAT      O48655   2.251   6.021   2.714
16138WAT     H148656   2.242   5.957   2.637
16138WAT     H248657   2.298   6.104   2.683
16139WAT      O48658   9.295   8.129   4.515
16139WAT     H148659   9.263   8.172   4.431
16139WAT     H248660   9.392   8.106   4.506
16140WAT      O48661   3.470   0.979   3.159
16140WAT     H148662   3.558   0.970   3.113
16140WAT     H248663   3.433   1.070   3.142
16141WAT      O48664   5.992   1.945   9.368
16141WAT     H148665   6.079   1.917   9.328
16141WAT     H248666   5.917   1.905   9.315
16142WAT      O48667   6.534   3.610   4.984
16142WAT     H148668   6.595   3.628   5.061
16142WAT     H248669   6.537   3.687   4.920
16143WAT      O48670   4.490   8.280   9.160
16143WAT     H148671   4.425   8.268   9.234
16143WAT     H248672   4.557   8.205   9.162
16144WAT      O48673   0.627   6.655   2.828
16144WAT     H148674   0.632   6.743   2.875
16144WAT     H248675   0.575   6.665   2.743
16145WAT      O48676   6.970   2.446   3.677
16145WAT     H148677   7.067   2.470   3.673
16145WAT     H248678   6.954   2.363   3.623
16146WAT      O48679   1.013   7.604   9.678
16146WAT     H148680   0.958   7.556   9.747
16146WAT     H248681   1.037   7.540   9.605
16147WAT      O48682   2.640   3.749   1.723
16147WAT     H148683   2.696   3.705   1.653
16147WAT     H248684   2.580   3.817   1.680
16148WAT      O48685   6.515   9.638   0.311
16148WAT     H148686   6.426   9.621   0.352
16148WAT     H248687   6.527   9.737   0.296
16149WAT      O48688   1.990   1.840   6.499
16149WAT     H148689   2.077   1.890   6.495
16149WAT     H248690   1.938   1.870   6.578
16150WAT      O48691   3.400   6.892   3.347
16150WAT     H148692   3.393   6.864   3.252
16150WAT     H248693   3.310   6.885   3.391
16151WAT      O48694   9.435   4.608   3.195
16151WAT     H148695   9.443   4.516   3.232
16151WAT     H248696   9.355   4.654   3.234
16152WAT      O48697   1.090   4.649   3.443
16152WAT     H148698   1.118   4.553   3.450
16152WAT     H248699   1.165   4.708   3.474
16153WAT      O48700   0.686   9.781   1.243
16153WAT     H148701   0.648   9.700   1.287
16153WAT     H248702   0.654   9.786   1.149
16154WAT      O48703   4.125   3.636   9.506
16154WAT     H148704   4.064   3.561   9.481
16154WAT     H248705   4.141   3.635   9.605
16155WAT      O48706   8.004   9.259   2.555
16155WAT     H148707   7.985   9.280   2.459
16155WAT     H248708   8.078   9.318   2.589
16156WAT      O48709   8.713   8.441   7.266
16156WAT     H148710   8.663   8.464   7.349
16156WAT     H248711   8.810   8.431   7.287
16157WAT      O48712   1.361   5.841   3.437
16157WAT     H148713   1.349   5.751   3.396
16157WAT     H248714   1.351   5.835   3.536
16158WAT      O48715   8.598   8.714   5.241
16158WAT     H148716   8.686   8.757   5.263
16158WAT     H248717   8.551   8.767   5.170
16159WAT      O48718   2.657   1.415   1.609
16159WAT     H148719   2.581   1.429   1.672
16159WAT     H248720   2.733   1.474   1.635
16160WAT      O48721   1.274   4.976   7.122
16160WAT     H148722   1.337   5.007   7.193
16160WAT     H248723   1.298   5.019   7.035
16161WAT      O48724   1.109   3.885   3.468
16161WAT     H148725   1.044   3.813   3.490
16161WAT     H248726   1.154   3.864   3.381
16162WAT      O48727   8.688   7.144   0.849
16162WAT     H148728   8.687   7.128   0.947
16162WAT     H248729   8.609   7.099   0.807
16163WAT      O48730   0.581   7.522   6.584
16163WAT     H148731   0.485   7.530   6.610
16163WAT     H248732   0.595   7.565   6.495
16164WAT      O48733   1.859   3.903   7.268
16164WAT     H148734   1.932   3.851   7.225
16164WAT     H248735   1.898   3.978   7.321
16165WAT      O48736   9.055   1.462   2.773
16165WAT     H148737   9.022   1.429   2.861
16165WAT     H248738   9.099   1.387   2.724
16166WAT      O48739   3.652   0.955   8.911
16166WAT     H148740   3.642   1.029   8.845
16166WAT     H248741   3.628   0.868   8.868
16167WAT      O48742   3.419   9.793   7.298
16167WAT     H148743   3.468   9.871   7.338
16167WAT     H248744   3.321   9.807   7.306
16168WAT      O48745   9.853   0.156   6.193
16168WAT     H148746   9.794   0.113   6.124
16168WAT     H248747   9.888   0.243   6.158
16169WAT      O48748   4.259   2.383   5.401
16169WAT     H148749   4.249   2.392   5.302
16169WAT     H248750   4.289   2.471   5.439
16170WAT      O48751   8.069   6.870   5.328
16170WAT     H148752   8.101   6.777   5.348
16170WAT     H248753   8.104   6.933   5.397
16171WAT      O48754   8.056   4.739   3.164
16171WAT     H148755   8.051   4.648   3.122
16171WAT     H248756   8.143   4.782   3.140
16172WAT      O48757   4.198   2.164   8.939
16172WAT     H148758   4.235   2.086   8.887
16172WAT     H248759   4.115   2.197   8.895
16173WAT      O48760   0.939   7.863   9.088
16173WAT     H148761   0.884   7.939   9.125
16173WAT     H248762   1.016   7.900   9.036
16174WAT      O48763   5.535   5.207   0.365
16174WAT     H148764   5.580   5.221   0.454
16174WAT     H248765   5.605   5.196   0.294
16175WAT      O48766   3.173   9.647   3.592
16175WAT     H148767   3.140   9.598   3.511
16175WAT     H248768   3.231   9.723   3.563
16176WAT      O48769   2.572   9.405   1.808
16176WAT     H148770   2.663   9.370   1.784
16176WAT     H248771   2.524   9.432   1.725
16177WAT      O48772   8.036   4.860   2.837
16177WAT     H148773   8.032   4.802   2.919
16177WAT     H248774   8.108   4.929   2.848
16178WAT      O48775   7.775   2.357   7.513
16178WAT     H148776   7.733   2.297   7.444
16178WAT     H248777   7.875   2.354   7.503
16179WAT      O48778   2.651   8.097   9.078
16179WAT     H148779   2.555   8.100   9.104
16179WAT     H248780   2.706   8.143   9.148
16180WAT      O48781   3.194   7.937   3.727
16180WAT     H148782   3.147   7.999   3.791
16180WAT     H248783   3.185   7.843   3.759
16181WAT      O48784   3.783   9.255   5.611
16181WAT     H148785   3.783   9.156   5.618
16181WAT     H248786   3.782   9.282   5.515
16182WAT      O48787   8.000   4.096   4.952
16182WAT     H148788   7.997   4.046   5.038
16182WAT     H248789   7.907   4.113   4.919
16183WAT      O48790   0.330   4.302   8.358
16183WAT     H148791   0.344   4.312   8.456
16183WAT     H248792   0.346   4.207   8.331
16184WAT      O48793   2.177   8.324   1.874
16184WAT     H148794   2.084   8.301   1.905
16184WAT     H248795   2.180   8.321   1.774
16185WAT      O48796   2.804   1.991   5.300
16185WAT     H148797   2.884   1.968   5.355
16185WAT     H248798   2.830   2.002   5.204
16186WAT      O48799   8.288   5.607   1.709
16186WAT     H148800   8.241   5.524   1.677
16186WAT     H248801   8.368   5.581   1.763
16187WAT      O48802   9.501   7.062   5.639
16187WAT     H148803   9.590   7.092   5.672
16187WAT     H248804   9.457   7.006   5.709
16188WAT      O48805   1.583   3.882   9.555
16188WAT     H148806   1.662   3.943   9.549
16188WAT     H248807   1.608   3.791   9.525
16189WAT      O48808   4.602   3.594   0.288
16189WAT     H148809   4.693   3.574   0.324
16189WAT     H248810   4.536   3.592   0.363
16190WAT      O48811   3.149   3.381   9.087
16190WAT     H148812   3.198   3.324   9.022
16190WAT     H248813   3.198   3.468   9.099
16191WAT      O48814   9.874   4.261   7.690
16191WAT     H148815   9.844   4.206   7.767
16191WAT     H248816   9.795   4.301   7.644
16192WAT      O48817   4.010   1.300   1.179
16192WAT     H148818   4.047   1.386   1.215
16192WAT     H248819   4.064   1.224   1.215
16193WAT      O48820   0.276   4.707   2.868
16193WAT     H148821   0.181   4.735   2.855
16193WAT     H248822   0.336   4.775   2.826
16194WAT      O48823   9.434   8.801   3.788
16194WAT     H148824   9.450   8.898   3.808
16194WAT     H248825   9.473   8.745   3.861
16195WAT      O48826   8.607   8.583   8.455
16195WAT     H148827   8.646   8.499   8.416
16195WAT     H248828   8.535   8.616   8.394
16196WAT      O48829   6.584   6.829   0.207
16196WAT     H148830   6.611   6.852   0.301
16196WAT     H248831   6.573   6.913   0.154
16197WAT      O48832   8.960   7.978   3.157
16197WAT     H148833   8.978   8.052   3.222
16197WAT     H248834   9.041   7.965   3.100
16198WAT      O48835   9.574   2.296   2.811
16198WAT     H148836   9.531   2.215   2.853
16198WAT     H248837   9.528   2.378   2.843
16199WAT      O48838   7.168   4.324   7.339
16199WAT     H148839   7.151   4.227   7.324
16199WAT     H248840   7.233   4.358   7.270
16200WAT      O48841   4.469   1.088   2.306
16200WAT     H148842   4.497   1.179   2.337
16200WAT     H248843   4.440   1.033   2.385
16201WAT      O48844   7.514   4.895   4.941
16201WAT     H148845   7.462   4.810   4.940
16201WAT     H248846   7.469   4.963   4.882
16202WAT      O48847   0.462   6.150   8.733
16202WAT     H148848   0.482   6.163   8.830
16202WAT     H248849   0.446   6.053   8.714
16203WAT      O48850   4.382   9.638   7.946
16203WAT     H148851   4.404   9.644   7.848
16203WAT     H248852   4.375   9.730   7.984
16204WAT      O48853   7.687   6.836   8.078
16204WAT     H148854   7.684   6.880   8.168
16204WAT     H248855   7.601   6.855   8.029
16205WAT      O48856   8.347   7.306   9.745
16205WAT     H148857   8.326   7.385   9.688
16205WAT     H248858   8.271   7.241   9.742
16206WAT      O48859   6.090   3.869   2.045
16206WAT     H148860   6.105   3.856   2.143
16206WAT     H248861   6.026   3.945   2.031
16207WAT      O48862   6.518   2.134   5.799
16207WAT     H148863   6.475   2.135   5.709
16207WAT     H248864   6.612   2.169   5.792
16208WAT      O48865   8.113   7.949   9.358
16208WAT     H148866   8.064   7.961   9.444
16208WAT     H248867   8.196   8.004   9.358
16209WAT      O48868   8.340   3.025   7.395
16209WAT     H148869   8.331   3.098   7.464
16209WAT     H248870   8.257   2.969   7.395
16210WAT      O48871   3.622   2.996   2.715
16210WAT     H148872   3.554   2.923   2.718
16210WAT     H248873   3.578   3.083   2.693
16211WAT      O48874   1.910   5.753   9.854
16211WAT     H148875   1.995   5.752   9.908
16211WAT     H248876   1.835   5.716   9.910
16212WAT      O48877   4.282   2.333   4.579
16212WAT     H148878   4.187   2.361   4.591
16212WAT     H248879   4.337   2.369   4.655
16213WAT      O48880   6.033   1.715   3.811
16213WAT     H148881   6.050   1.621   3.840
16213WAT     H248882   5.938   1.740   3.833
16214WAT      O48883   4.241   8.280   3.001
16214WAT     H148884   4.293   8.365   2.991
16214WAT     H248885   4.144   8.301   3.010
16215WAT      O48886   0.331   3.817   8.552
16215WAT     H148887   0.403   3.885   8.539
16215WAT     H248888   0.361   3.729   8.517
16216WAT      O48889   9.395   7.410   9.359
16216WAT     H148890   9.448   7.408   9.443
16216WAT     H248891   9.316   7.348   9.368
16217WAT      O48892   9.029   8.924   8.897
16217WAT     H148893   9.025   8.939   8.996
16217WAT     H248894   8.942   8.951   8.855
16218WAT      O48895   1.981   5.214   0.891
16218WAT     H148896   2.079   5.200   0.895
16218WAT     H248897   1.943   5.216   0.984
16219WAT      O48898   9.209   5.443   5.078
16219WAT     H148899   9.212   5.475   5.172
16219WAT     H248900   9.200   5.343   5.077
16220WAT      O48901   5.911   7.502   2.308
16220WAT     H148902   5.940   7.407   2.291
16220WAT     H248903   5.986   7.552   2.351
16221WAT      O48904   7.914   7.814   6.811
16221WAT     H148905   7.848   7.776   6.746
16221WAT     H248906   7.865   7.865   6.882
16222WAT      O48907   3.198   8.030   1.865
16222WAT     H148908   3.254   8.087   1.925
16222WAT     H248909   3.171   8.082   1.785
16223WAT      O48910   8.880   8.056   8.138
16223WAT     H148911   8.977   8.054   8.162
16223WAT     H248912   8.825   8.071   8.221
16224WAT      O48913   8.442   0.094   0.076
16224WAT     H148914   8.349   0.060   0.089
16224WAT     H248915   8.478   0.063  -0.012
16225WAT      O48916   7.870   4.426   2.662
16225WAT     H148917   7.897   4.349   2.720
16225WAT     H248918   7.877   4.511   2.714
16226WAT      O48919   4.698   6.824   8.712
16226WAT     H148920   4.701   6.834   8.812
16226WAT     H248921   4.756   6.894   8.670
16227WAT      O48922   7.605   1.964   0.589
16227WAT     H148923   7.594   2.027   0.512
16227WAT     H248924   7.670   2.003   0.655
16228WAT      O48925   2.718   8.283   8.064
16228WAT     H148926   2.730   8.258   8.160
16228WAT     H248927   2.626   8.319   8.050
16229WAT      O48928   4.188   6.031   2.502
16229WAT     H148929   4.265   6.033   2.567
16229WAT     H248930   4.106   6.066   2.547
16230WAT      O48931   4.983   0.930   4.581
16230WAT     H148932   4.942   0.848   4.621
16230WAT     H248933   5.066   0.906   4.531
16231WAT      O48934   5.545   8.806   2.169
16231WAT     H148935   5.501   8.855   2.094
16231WAT     H248936   5.568   8.714   2.139
16232WAT      O48937   4.687   2.174   4.848
16232WAT     H148938   4.779   2.189   4.883
16232WAT     H248939   4.621   2.224   4.904
16233WAT      O48940   8.713   7.785   5.538
16233WAT     H148941   8.670   7.717   5.479
16233WAT     H248942   8.706   7.876   5.495
16234WAT      O48943   6.791   8.084   0.347
16234WAT     H148944   6.734   8.038   0.415
16234WAT     H248945   6.733   8.130   0.280
16235WAT      O48946   8.317   3.910   0.917
16235WAT     H148947   8.258   3.902   0.836
16235WAT     H248948   8.407   3.943   0.890
16236WAT      O48949   3.671   7.049   1.937
16236WAT     H148950   3.658   7.144   1.963
16236WAT     H248951   3.769   7.030   1.925
16237WAT      O48952   6.023   7.037   8.364
16237WAT     H148953   5.980   7.052   8.275
16237WAT     H248954   6.104   6.979   8.352
16238WAT      O48955   7.661   3.708   0.375
16238WAT     H148956   7.651   3.709   0.275
16238WAT     H248957   7.725   3.636   0.401
16239WAT      O48958   4.265   8.763   7.766
16239WAT     H148959   4.204   8.721   7.699
16239WAT     H248960   4.243   8.727   7.857
16240WAT      O48961   1.781   7.883   7.773
16240WAT     H148962   1.803   7.981   7.775
16240WAT     H248963   1.802   7.842   7.861
16241WAT      O48964   8.494   9.232   8.446
16241WAT     H148965   8.540   9.250   8.359
16241WAT     H248966   8.460   9.318   8.484
16242WAT      O48967   5.426   3.085   3.915
16242WAT     H148968   5.422   3.147   3.994
16242WAT     H248969   5.434   2.991   3.948
16243WAT      O48970   4.411   1.483   1.890
16243WAT     H148971   4.327   1.453   1.936
16243WAT     H248972   4.397   1.483   1.791
16244WAT      O48973   8.289   6.628   7.341
16244WAT     H148974   8.278   6.533   7.372
16244WAT     H248975   8.386   6.647   7.327
16245WAT      O48976   4.867   8.852   8.850
16245WAT     H148977   4.964   8.877   8.844
16245WAT     H248978   4.838   8.809   8.764
16246WAT      O48979   0.452   8.125   7.716
16246WAT     H148980   0.355   8.113   7.740
16246WAT     H248981   0.507   8.059   7.767
16247WAT      O48982   4.087   3.253   8.544
16247WAT     H148983   4.158   3.309   8.500
16247WAT     H248984   3.997   3.283   8.512
16248WAT      O48985   7.703   4.167   8.929
16248WAT     H148986   7.725   4.070   8.944
16248WAT     H248987   7.783   4.222   8.950
16249WAT      O48988   1.234   7.717   9.351
16249WAT     H148989   1.139   7.696   9.329
16249WAT     H248990   1.267   7.793   9.294
16250WAT      O48991   7.458   0.566   9.075
16250WAT     H148992   7.368   0.589   9.111
16250WAT     H248993   7.490   0.480   9.115
16251WAT      O48994   8.646   0.890   6.742
16251WAT     H148995   8.610   0.796   6.742
16251WAT     H248996   8.595   0.944   6.675
16252WAT      O48997   2.353   5.034   8.892
16252WAT     H148998   2.405   5.085   8.961
16252WAT     H248999   2.319   5.098   8.823
16253WAT      O49000   1.093   6.050   6.905
16253WAT     H149001   1.124   6.048   6.810
16253WAT     H249002   1.016   6.112   6.914
16254WAT      O49003   6.465   9.530   6.340
16254WAT     H149004   6.398   9.489   6.401
16254WAT     H249005   6.555   9.489   6.357
16255WAT      O49006   3.747   4.198   4.630
16255WAT     H149007   3.729   4.282   4.578
16255WAT     H249008   3.758   4.121   4.566
16256WAT      O49009   7.828   5.149   5.978
16256WAT     H149010   7.757   5.105   6.033
16256WAT     H249011   7.896   5.190   6.039
16257WAT      O49012   1.946   7.185   7.907
16257WAT     H149013   2.033   7.188   7.955
16257WAT     H249014   1.873   7.162   7.971
16258WAT      O49015   5.048   5.671   6.207
16258WAT     H149016   5.020   5.669   6.111
16258WAT     H249017   4.982   5.725   6.259
16259WAT      O49018   7.168   5.692   4.563
16259WAT     H149019   7.178   5.636   4.481
16259WAT     H249020   7.102   5.649   4.624
16260WAT      O49021   9.271   3.750   1.129
16260WAT     H149022   9.333   3.794   1.064
16260WAT     H249023   9.319   3.737   1.216
16261WAT      O49024   1.937   9.580   4.915
16261WAT     H149025   1.879   9.595   4.835
16261WAT     H249026   1.974   9.668   4.946
16262WAT      O49027   9.574   9.743   3.088
16262WAT     H149028   9.540   9.722   3.180
16262WAT     H249029   9.671   9.767   3.093
16263WAT      O49030   5.852   5.996   8.655
16263WAT     H149031   5.812   5.974   8.744
16263WAT     H249032   5.779   6.016   8.589
16264WAT      O49033   9.428   0.485   0.164
16264WAT     H149034   9.522   0.506   0.135
16264WAT     H249035   9.367   0.488   0.085
16265WAT      O49036   8.191   8.120   5.110
16265WAT     H149037   8.224   8.118   5.016
16265WAT     H249038   8.175   8.026   5.142
16266WAT      O49039   3.884   4.294   6.159
16266WAT     H149040   3.840   4.271   6.072
16266WAT     H249041   3.868   4.391   6.180
16267WAT      O49042   4.743   4.723   3.934
16267WAT     H149043   4.780   4.734   3.841
16267WAT     H249044   4.712   4.812   3.967
16268WAT      O49045   4.224   0.975   5.572
16268WAT     H149046   4.276   0.893   5.595
16268WAT     H249047   4.250   1.005   5.480
16269WAT      O49048   1.364   2.898   1.648
16269WAT     H149049   1.276   2.912   1.603
16269WAT     H249050   1.436   2.896   1.579
16270WAT      O49051   0.322   0.158   8.532
16270WAT     H149052   0.322   0.176   8.631
16270WAT     H249053   0.238   0.195   8.491
16271WAT      O49054   9.191   7.736   8.132
16271WAT     H149055   9.107   7.687   8.156
16271WAT     H249056   9.169   7.814   8.073
16272WAT      O49057   8.134   8.205   7.147
16272WAT     H149058   8.187   8.257   7.214
16272WAT     H249059   8.145   8.246   7.056
16273WAT      O49060   5.176   0.983   3.095
16273WAT     H149061   5.137   0.979   3.003
16273WAT     H249062   5.237   1.062   3.102
16274WAT      O49063   5.505   3.401   2.607
16274WAT     H149064   5.470   3.317   2.566
16274WAT     H249065   5.585   3.381   2.663
16275WAT      O49066   5.118   4.936   5.828
16275WAT     H149067   5.169   4.912   5.911
16275WAT     H249068   5.172   5.000   5.773
16276WAT      O49069   7.885   7.788   2.421
16276WAT     H149070   7.886   7.810   2.324
16276WAT     H249071   7.801   7.739   2.443
16277WAT      O49072   0.638   6.101   8.528
16277WAT     H149073   0.558   6.141   8.573
16277WAT     H249074   0.671   6.023   8.581
16278WAT      O49075   3.429   8.628   5.707
16278WAT     H149076   3.417   8.535   5.672
16278WAT     H249077   3.340   8.669   5.723
16279WAT      O49078   7.396   5.637   1.155
16279WAT     H149079   7.300   5.640   1.185
16279WAT     H249080   7.450   5.586   1.222
16280WAT      O49081   2.063   4.437   6.452
16280WAT     H149082   1.973   4.425   6.411
16280WAT     H249083   2.077   4.534   6.474
16281WAT      O49084   5.932   5.706   3.901
16281WAT     H149085   5.921   5.783   3.964
16281WAT     H249086   6.029   5.689   3.885
16282WAT      O49087   1.139   6.318   9.491
16282WAT     H149088   1.054   6.363   9.462
16282WAT     H249089   1.193   6.383   9.545
16283WAT      O49090   5.864   7.101   4.983
16283WAT     H149091   5.775   7.066   5.012
16283WAT     H249092   5.852   7.161   4.904
16284WAT      O49093   8.305   4.300   8.245
16284WAT     H149094   8.380   4.329   8.304
16284WAT     H249095   8.234   4.256   8.300
16285WAT      O49096   7.227   3.215   5.621
16285WAT     H149097   7.217   3.277   5.543
16285WAT     H249098   7.137   3.186   5.652
16286WAT      O49099   7.658   0.906   7.292
16286WAT     H149100   7.661   1.006   7.301
16286WAT     H249101   7.748   0.868   7.311
16287WAT      O49102   6.196   1.913   3.889
16287WAT     H149103   6.228   1.915   3.984
16287WAT     H249104   6.137   1.834   3.876
16288WAT      O49105   4.354   9.298   3.972
16288WAT     H149106   4.390   9.384   4.008
16288WAT     H249107   4.427   9.230   3.969
16289WAT      O49108   1.889   4.537   4.273
16289WAT     H149109   1.899   4.438   4.267
16289WAT     H249110   1.807   4.565   4.223
16290WAT      O49111   7.298   0.632   7.368
16290WAT     H149112   7.387   0.592   7.385
16290WAT     H249113   7.235   0.606   7.442
16291WAT      O49114   5.206   7.028   1.579
16291WAT     H149115   5.177   6.947   1.529
16291WAT     H249116   5.152   7.107   1.550
16292WAT      O49117   5.895   3.636   9.027
16292WAT     H149118   5.825   3.676   8.969
16292WAT     H249119   5.916   3.543   8.996
16293WAT      O49120   5.341   5.080   9.451
16293WAT     H149121   5.248   5.068   9.485
16293WAT     H249122   5.386   5.153   9.503
16294WAT      O49123   7.452   5.712   5.312
16294WAT     H149124   7.444   5.613   5.303
16294WAT     H249125   7.548   5.738   5.315
16295WAT      O49126   3.033   7.544   2.347
16295WAT     H149127   3.053   7.547   2.445
16295WAT     H249128   3.051   7.451   2.313
16296WAT      O49129   5.068   1.062   2.447
16296WAT     H149130   5.108   1.138   2.498
16296WAT     H249131   4.969   1.065   2.454
16297WAT      O49132   2.375   2.120   9.493
16297WAT     H149133   2.346   2.193   9.431
16297WAT     H249134   2.474   2.126   9.508
16298WAT      O49135   4.802   3.542   5.044
16298WAT     H149136   4.842   3.456   5.078
16298WAT     H249137   4.815   3.614   5.112
16299WAT      O49138   6.354   7.688   7.668
16299WAT     H149139   6.301   7.605   7.653
16299WAT     H249140   6.419   7.673   7.743
16300WAT      O49141   6.767   1.155   8.190
16300WAT     H149142   6.866   1.167   8.203
16300WAT     H249143   6.741   1.192   8.102
16301WAT      O49144   2.921   9.103   6.803
16301WAT     H149145   2.929   9.168   6.879
16301WAT     H249146   2.830   9.061   6.806
16302WAT      O49147   1.551   0.901   5.936
16302WAT     H149148   1.647   0.873   5.939
16302WAT     H249149   1.493   0.820   5.933
16303WAT      O49150   6.177   3.527   2.443
16303WAT     H149151   6.180   3.508   2.345
16303WAT     H249152   6.213   3.618   2.461
16304WAT      O49153   1.680   0.901   6.218
16304WAT     H149154   1.688   0.818   6.163
16304WAT     H249155   1.662   0.979   6.159
16305WAT      O49156   5.533   7.689   3.385
16305WAT     H149157   5.533   7.739   3.298
16305WAT     H249158   5.612   7.717   3.439
16306WAT      O49159   4.235   2.302   1.532
16306WAT     H149160   4.179   2.300   1.615
16306WAT     H249161   4.233   2.394   1.493
16307WAT      O49162   5.013   7.492   1.593
16307WAT     H149163   5.062   7.453   1.515
16307WAT     H249164   4.944   7.426   1.625
16308WAT      O49165   7.893   2.852   5.368
16308WAT     H149166   7.914   2.758   5.394
16308WAT     H249167   7.810   2.853   5.311
16309WAT      O49168   7.553   1.369   1.037
16309WAT     H149169   7.558   1.340   0.942
16309WAT     H249170   7.520   1.464   1.040
16310WAT      O49171   5.592   1.835   6.715
16310WAT     H149172   5.657   1.785   6.773
16310WAT     H249173   5.551   1.771   6.649
16311WAT      O49174   7.239   8.055   5.888
16311WAT     H149175   7.304   7.981   5.899
16311WAT     H249176   7.179   8.060   5.968
16312WAT      O49177   3.121   5.016   8.839
16312WAT     H149178   3.138   4.923   8.805
16312WAT     H249179   3.069   5.010   8.924
16313WAT      O49180   4.225   7.864   6.282
16313WAT     H149181   4.179   7.890   6.198
16313WAT     H249182   4.158   7.858   6.356
16314WAT      O49183   9.021   8.890   9.164
16314WAT     H149184   9.047   8.795   9.144
16314WAT     H249185   9.030   8.907   9.262
16315WAT      O49186   7.810   5.217   9.854
16315WAT     H149187   7.876   5.219   9.779
16315WAT     H249188   7.845   5.159   9.927
16316WAT      O49189   9.665   8.202   8.331
16316WAT     H149190   9.622   8.133   8.388
16316WAT     H249191   9.688   8.282   8.387
16317WAT      O49192   0.283   0.567   0.806
16317WAT     H149193   0.284   0.501   0.882
16317WAT     H249194   0.237   0.650   0.835
16318WAT      O49195   4.659   5.090   1.445
16318WAT     H149196   4.640   4.993   1.456
16318WAT     H249197   4.711   5.104   1.361
16319WAT      O49198   9.319   4.508   9.860
16319WAT     H149199   9.379   4.552   9.927
16319WAT     H249200   9.249   4.572   9.830
16320WAT      O49201   0.374   6.476   5.937
16320WAT     H149202   0.386   6.419   5.856
16320WAT     H249203   0.423   6.563   5.924
16321WAT      O49204   4.576   8.171   5.133
16321WAT     H149205   4.651   8.231   5.105
16321WAT     H249206   4.533   8.132   5.051
16322WAT      O49207   9.876   7.966   2.941
16322WAT     H149208   9.854   7.926   3.030
16322WAT     H249209   9.799   8.022   2.910
16323WAT      O49210   9.464   6.132   6.869
16323WAT     H149211   9.535   6.066   6.845
16323WAT     H249212   9.425   6.172   6.786
16324WAT      O49213   2.136   1.782   8.465
16324WAT     H149214   2.098   1.734   8.386
16324WAT     H249215   2.133   1.722   8.545
16325WAT      O49216   0.451   2.730   7.417
16325WAT     H149217   0.490   2.644   7.383
16325WAT     H249218   0.492   2.752   7.506
16326WAT      O49219   3.348   8.520   7.233
16326WAT     H149220   3.437   8.560   7.209
16326WAT     H249221   3.362   8.429   7.273
16327WAT      O49222   5.839   7.507   7.713
16327WAT     H149223   5.849   7.599   7.677
16327WAT     H249224   5.759   7.503   7.773
16328WAT      O49225   1.683   5.379   6.916
16328WAT     H149226   1.681   5.281   6.934
16328WAT     H249227   1.619   5.400   6.842
16329WAT      O49228   6.432   6.809   2.954
16329WAT     H149229   6.422   6.765   3.043
16329WAT     H249230   6.342   6.823   2.913
16330WAT      O49231   0.489   8.812   3.573
16330WAT     H149232   0.454   8.719   3.590
16330WAT     H249233   0.588   8.812   3.582
16331WAT      O49234   3.650   1.021   1.628
16331WAT     H149235   3.569   1.020   1.687
16331WAT     H249236   3.684   1.115   1.620
16332WAT      O49237   1.044   4.491   8.788
16332WAT     H149238   1.005   4.566   8.735
16332WAT     H249239   1.023   4.504   8.885
16333WAT      O49240   5.991   5.328   5.542
16333WAT     H149241   6.073   5.351   5.490
16333WAT     H249242   5.940   5.256   5.494
16334WAT      O49243   4.425   0.477   5.030
16334WAT     H149244   4.477   0.554   5.066
16334WAT     H249245   4.341   0.466   5.082
16335WAT      O49246   4.073   5.137   1.907
16335WAT     H149247   4.101   5.139   2.003
16335WAT     H249248   4.096   5.224   1.864
16336WAT      O49249   8.035   2.614   3.858
16336WAT     H149250   7.952   2.670   3.866
16336WAT     H249251   8.106   2.667   3.812
16337WAT      O49252   1.072   1.106   6.475
16337WAT     H149253   1.048   1.191   6.427
16337WAT     H249254   1.039   1.112   6.570
16338WAT      O49255   8.378   5.593   5.516
16338WAT     H149256   8.445   5.530   5.478
16338WAT     H249257   8.426   5.668   5.562
16339WAT      O49258   8.591   9.248   7.330
16339WAT     H149259   8.564   9.182   7.400
16339WAT     H249260   8.509   9.290   7.290
16340WAT      O49261   9.136   9.042   0.730
16340WAT     H149262   9.127   9.085   0.820
16340WAT     H249263   9.045   9.012   0.698
16341WAT      O49264   1.137   7.444   6.776
16341WAT     H149265   1.082   7.456   6.858
16341WAT     H249266   1.228   7.484   6.790
16342WAT      O49267   9.301   0.740   3.113
16342WAT     H149268   9.314   0.785   3.201
16342WAT     H249269   9.359   0.658   3.108
16343WAT      O49270   5.724   2.509   8.232
16343WAT     H149271   5.704   2.606   8.238
16343WAT     H249272   5.771   2.479   8.315
16344WAT      O49273   7.862   8.542   1.029
16344WAT     H149274   7.932   8.555   1.099
16344WAT     H249275   7.846   8.445   1.016
16345WAT      O49276   7.280   1.726   0.300
16345WAT     H149277   7.314   1.641   0.261
16345WAT     H249278   7.356   1.788   0.317
16346WAT      O49279   1.418   7.218   6.571
16346WAT     H149280   1.442   7.143   6.510
16346WAT     H249281   1.333   7.261   6.540
16347WAT      O49282   2.920   2.221   0.941
16347WAT     H149283   2.977   2.299   0.968
16347WAT     H249284   2.855   2.201   1.015
16348WAT      O49285   8.003   3.607   4.683
16348WAT     H149286   7.951   3.673   4.627
16348WAT     H249287   7.945   3.573   4.757
16349WAT      O49288   9.793   7.071   1.105
16349WAT     H149289   9.705   7.043   1.143
16349WAT     H249290   9.784   7.160   1.061
16350WAT      O49291   0.272   6.647   4.878
16350WAT     H149292   0.172   6.636   4.872
16350WAT     H249293   0.315   6.557   4.886
16351WAT      O49294   4.658   1.095   0.945
16351WAT     H149295   4.589   1.085   0.873
16351WAT     H249296   4.701   1.006   0.962
16352WAT      O49297   5.651   3.598   8.152
16352WAT     H149298   5.664   3.630   8.057
16352WAT     H249299   5.555   3.608   8.178
16353WAT      O49300   8.291   1.242   1.334
16353WAT     H149301   8.318   1.309   1.403
16353WAT     H249302   8.194   1.255   1.312
16354WAT      O49303   6.682   0.330   5.368
16354WAT     H149304   6.648   0.252   5.315
16354WAT     H249305   6.725   0.396   5.306
16355WAT      O49306   8.442   8.573   4.288
16355WAT     H149307   8.377   8.499   4.271
16355WAT     H249308   8.499   8.550   4.367
16356WAT      O49309   2.385   2.729   7.147
16356WAT     H149310   2.440   2.646   7.147
16356WAT     H249311   2.443   2.808   7.128
16357WAT      O49312   0.803   6.041   2.602
16357WAT     H149313   0.802   6.028   2.503
16357WAT     H249314   0.775   6.134   2.623
16358WAT      O49315   4.157   0.803   8.336
16358WAT     H149316   4.130   0.890   8.376
16358WAT     H249317   4.212   0.820   8.254
16359WAT      O49318   0.975   0.697   7.564
16359WAT     H149319   1.018   0.788   7.558
16359WAT     H249320   0.961   0.661   7.471
16360WAT      O49321   4.244   2.166   0.311
16360WAT     H149322   4.322   2.191   0.368
16360WAT     H249323   4.167   2.227   0.332
16361WAT      O49324   1.484   5.594   4.440
16361WAT     H149325   1.524   5.682   4.414
16361WAT     H249326   1.401   5.609   4.493
16362WAT      O49327   9.838   2.059   1.566
16362WAT     H149328   9.831   2.117   1.647
16362WAT     H249329   9.923   2.007   1.569
16363WAT      O49330   4.950   2.872   9.517
16363WAT     H149331   4.922   2.779   9.490
16363WAT     H249332   5.034   2.896   9.468
16364WAT      O49333   7.657   4.738   8.846
16364WAT     H149334   7.671   4.649   8.803
16364WAT     H249335   7.742   4.766   8.892
16365WAT      O49336   4.923   1.769   5.405
16365WAT     H149337   4.873   1.856   5.401
16365WAT     H249338   4.975   1.757   5.320
16366WAT      O49339   3.434   8.979   8.711
16366WAT     H149340   3.365   8.908   8.697
16366WAT     H249341   3.525   8.937   8.711
16367WAT      O49342   3.321   0.016   9.266
16367WAT     H149343   3.234   0.065   9.269
16367WAT     H249344   3.315  -0.064   9.326
16368WAT      O49345   5.578   3.916   8.748
16368WAT     H149346   5.574   3.960   8.658
16368WAT     H249347   5.486   3.895   8.779
16369WAT      O49348   8.593   7.602   8.451
16369WAT     H149349   8.544   7.604   8.364
16369WAT     H249350   8.583   7.691   8.497
16370WAT      O49351   0.750   5.959   3.429
16370WAT     H149352   0.823   5.893   3.444
16370WAT     H249353   0.772   6.017   3.350
16371WAT      O49354   7.169   1.544   9.722
16371WAT     H149355   7.080   1.576   9.756
16371WAT     H249356   7.231   1.622   9.713
16372WAT      O49357   7.994   4.531   5.069
16372WAT     H149358   7.980   4.627   5.091
16372WAT     H249359   8.086   4.518   5.032
16373WAT      O49360   2.353   8.058   8.909
16373WAT     H149361   2.309   8.132   8.858
16373WAT     H249362   2.411   8.095   8.981
16374WAT      O49363   7.893   0.253   9.826
16374WAT     H149364   7.881   0.173   9.884
16374WAT     H249365   7.982   0.294   9.843
16375WAT      O49366   1.672   3.525   4.097
16375WAT     H149367   1.588   3.540   4.149
16375WAT     H249368   1.652   3.465   4.019
16376WAT      O49369   3.896   4.336   2.064
16376WAT     H149370   3.856   4.421   2.099
16376WAT     H249371   3.973   4.358   2.005
16377WAT      O49372   1.746   1.249   3.611
16377WAT     H149373   1.713   1.343   3.619
16377WAT     H249374   1.843   1.250   3.585
16378WAT      O49375   0.699   7.406   7.470
16378WAT     H149376   0.774   7.471   7.454
16378WAT     H249377   0.736   7.321   7.507
16379WAT      O49378   4.996   7.365   9.184
16379WAT     H149379   4.900   7.342   9.166
16379WAT     H249380   5.037   7.292   9.239
16380WAT      O49381   8.010   5.446   6.990
16380WAT     H149382   8.092   5.443   6.933
16380WAT     H249383   8.022   5.386   7.069
16381WAT      O49384   7.767   9.055   6.517
16381WAT     H149385   7.735   8.994   6.590
16381WAT     H249386   7.844   9.012   6.470
16382WAT      O49387   4.308   5.078   2.827
16382WAT     H149388   4.352   5.157   2.784
16382WAT     H249389   4.224   5.107   2.873
16383WAT      O49390   7.918   6.108   1.744
16383WAT     H149391   7.916   6.020   1.697
16383WAT     H249392   7.835   6.159   1.723
16384WAT      O49393   4.273   7.626   4.035
16384WAT     H149394   4.313   7.542   3.997
16384WAT     H249395   4.252   7.689   3.960
16385WAT      O49396   5.483   7.366   2.492
16385WAT     H149397   5.558   7.351   2.429
16385WAT     H249398   5.484   7.461   2.525
16386WAT      O49399   0.403   0.955   6.752
16386WAT     H149400   0.497   0.962   6.784
16386WAT     H249401   0.390   1.015   6.673
16387WAT      O49402   9.726   6.026   1.564
16387WAT     H149403   9.705   6.122   1.543
16387WAT     H249404   9.752   6.017   1.660
16388WAT      O49405   3.251   2.748   3.230
16388WAT     H149406   3.207   2.837   3.244
16388WAT     H249407   3.183   2.682   3.198
16389WAT      O49408   8.946   2.314   6.302
16389WAT     H149409   8.856   2.329   6.260
16389WAT     H249410   8.938   2.244   6.373
16390WAT      O49411   5.286   4.866   7.728
16390WAT     H149412   5.227   4.900   7.655
16390WAT     H249413   5.298   4.937   7.797
16391WAT      O49414   1.977   1.775   2.161
16391WAT     H149415   1.973   1.686   2.207
16391WAT     H249416   2.061   1.822   2.187
16392WAT      O49417   1.456   3.662   0.034
16392WAT     H149418   1.423   3.677  -0.059
16392WAT     H249419   1.435   3.568   0.062
16393WAT      O49420   4.916   1.549   5.587
16393WAT     H149421   4.913   1.619   5.516
16393WAT     H249422   4.917   1.593   5.677
16394WAT      O49423   7.176   7.025   9.883
16394WAT     H149424   7.139   7.046   9.792
16394WAT     H249425   7.121   6.953   9.925
16395WAT      O49426   5.814   2.546   0.193
16395WAT     H149427   5.728   2.511   0.157
16395WAT     H249428   5.812   2.546   0.293
16396WAT      O49429   3.660   3.499   7.738
16396WAT     H149430   3.736   3.437   7.722
16396WAT     H249431   3.591   3.487   7.666
16397WAT      O49432   1.173   7.638   6.389
16397WAT     H149433   1.075   7.630   6.375
16397WAT     H249434   1.214   7.693   6.316
16398WAT      O49435   4.077   7.926   8.964
16398WAT     H149436   4.054   8.014   8.922
16398WAT     H249437   4.096   7.859   8.892
16399WAT      O49438   9.025   8.433   8.778
16399WAT     H149439   9.017   8.394   8.870
16399WAT     H249440   8.936   8.431   8.733
16400WAT      O49441   8.939   8.728   5.621
16400WAT     H149442   9.002   8.677   5.563
16400WAT     H249443   8.902   8.667   5.691
16401WAT      O49444   8.738   8.595   0.116
16401WAT     H149445   8.640   8.597   0.136
16401WAT     H249446   8.753   8.554   0.026
16402WAT      O49447   8.392   4.888   8.005
16402WAT     H149448   8.390   4.788   8.000
16402WAT     H249449   8.416   4.916   8.098
16403WAT      O49450   2.215   4.711   0.288
16403WAT     H149451   2.230   4.810   0.293
16403WAT     H249452   2.161   4.682   0.367
16404WAT      O49453   2.096   3.343   9.094
16404WAT     H149454   2.138   3.255   9.115
16404WAT     H249455   1.999   3.341   9.118
16405WAT      O49456   3.693   2.593   2.763
16405WAT     H149457   3.736   2.679   2.793
16405WAT     H249458   3.661   2.603   2.669
16406WAT      O49459   3.267   1.798   4.804
16406WAT     H149460   3.346   1.828   4.857
16406WAT     H249461   3.288   1.711   4.759
16407WAT      O49462   6.330   3.440   4.951
16407WAT     H149463   6.376   3.364   4.904
16407WAT     H249464   6.398   3.509   4.977
16408WAT      O49465   7.337   5.470   6.936
16408WAT     H149466   7.383   5.550   6.974
16408WAT     H249467   7.267   5.500   6.871
16409WAT      O49468   6.695   0.377   8.111
16409WAT     H149469   6.740   0.303   8.161
16409WAT     H249470   6.746   0.462   8.126
16410WAT      O49471   7.563   6.658   7.232
16410WAT     H149472   7.481   6.601   7.229
16410WAT     H249473   7.588   6.678   7.327
16411WAT      O49474   6.580   7.172   7.592
16411WAT     H149475   6.654   7.107   7.577
16411WAT     H249476   6.500   7.124   7.627
16412WAT      O49477   4.077   3.025   5.313
16412WAT     H149478   4.106   3.097   5.250
16412WAT     H249479   4.134   2.944   5.299
16413WAT      O49480   2.560   1.580   9.605
16413WAT     H149481   2.646   1.537   9.633
16413WAT     H249482   2.485   1.548   9.664
16414WAT      O49483   8.272   5.546   4.092
16414WAT     H149484   8.255   5.461   4.142
16414WAT     H249485   8.289   5.620   4.158
16415WAT      O49486   5.625   6.629   0.792
16415WAT     H149487   5.699   6.595   0.735
16415WAT     H249488   5.662   6.669   0.875
16416WAT      O49489   6.467   0.124   9.382
16416WAT     H149490   6.556   0.156   9.349
16416WAT     H249491   6.473   0.104   9.480
16417WAT      O49492   5.097   7.624   5.014
16417WAT     H149493   5.142   7.535   4.999
16417WAT     H249494   5.159   7.697   4.986
16418WAT      O49495   8.717   1.465   2.679
16418WAT     H149496   8.737   1.552   2.723
16418WAT     H249497   8.738   1.390   2.741
16419WAT      O49498   4.310   6.042   3.992
16419WAT     H149499   4.371   6.121   3.986
16419WAT     H249500   4.215   6.073   3.991
16420WAT      O49501   4.212   1.924   1.637
16420WAT     H149502   4.141   1.931   1.568
16420WAT     H249503   4.170   1.915   1.728
16421WAT      O49504   8.698   1.462   0.493
16421WAT     H149505   8.773   1.414   0.538
16421WAT     H249506   8.709   1.560   0.506
16422WAT      O49507   4.804   2.853   0.494
16422WAT     H149508   4.871   2.779   0.490
16422WAT     H249509   4.736   2.832   0.563
16423WAT      O49510   9.883   4.128   9.742
16423WAT     H149511   9.937   4.189   9.684
16423WAT     H249512   9.814   4.082   9.686
16424WAT      O49513   6.284   1.723   0.774
16424WAT     H149514   6.363   1.778   0.746
16424WAT     H249515   6.238   1.769   0.850
16425WAT      O49516   0.664   4.644   1.504
16425WAT     H149517   0.757   4.671   1.527
16425WAT     H249518   0.663   4.598   1.415
16426WAT      O49519   7.630   6.487   1.779
16426WAT     H149520   7.709   6.531   1.821
16426WAT     H249521   7.547   6.536   1.805
16427WAT      O49522   5.158   4.699   0.380
16427WAT     H149523   5.189   4.604   0.374
16427WAT     H249524   5.207   4.754   0.312
16428WAT      O49525   9.240   2.991   3.452
16428WAT     H149526   9.276   3.084   3.452
16428WAT     H249527   9.267   2.945   3.368
16429WAT      O49528   7.038   0.818   4.875
16429WAT     H149529   7.062   0.747   4.942
16429WAT     H249530   6.997   0.896   4.923
16430WAT      O49531   4.539   1.586   7.811
16430WAT     H149532   4.587   1.526   7.747
16430WAT     H249533   4.557   1.556   7.905
16431WAT      O49534   7.993   5.439   9.014
16431WAT     H149535   8.017   5.481   9.102
16431WAT     H249536   8.070   5.382   8.983
16432WAT      O49537   5.685   2.697   2.647
16432WAT     H149538   5.684   2.795   2.665
16432WAT     H249539   5.719   2.648   2.728
16433WAT      O49540   0.983   2.314   7.806
16433WAT     H149541   1.056   2.355   7.753
16433WAT     H249542   0.897   2.360   7.786
16434WAT      O49543   2.896   9.465   3.915
16434WAT     H149544   2.916   9.543   3.856
16434WAT     H249545   2.961   9.391   3.896
16435WAT      O49546   5.209   3.985   7.549
16435WAT     H149547   5.259   4.067   7.523
16435WAT     H249548   5.245   3.950   7.636
16436WAT      O49549   0.987   6.231   2.370
16436WAT     H149550   1.065   6.236   2.433
16436WAT     H249551   0.938   6.145   2.383
16437WAT      O49552   0.733   5.168   2.266
16437WAT     H149553   0.730   5.113   2.182
16437WAT     H249554   0.827   5.201   2.280
16438WAT      O49555   4.183   3.865   2.464
16438WAT     H149556   4.225   3.900   2.547
16438WAT     H249557   4.092   3.905   2.452
16439WAT      O49558   4.454   3.948   3.851
16439WAT     H149559   4.389   3.966   3.925
16439WAT     H249560   4.437   3.857   3.813
16440WAT      O49561   8.882   9.176   9.839
16440WAT     H149562   8.789   9.195   9.872
16440WAT     H249563   8.943   9.166   9.917
16441WAT      O49564   0.053   8.845   7.960
16441WAT     H149565   0.056   8.778   8.034
16441WAT     H249566   0.066   8.937   7.998
16442WAT      O49567   8.404   3.548   9.001
16442WAT     H149568   8.485   3.490   8.992
16442WAT     H249569   8.326   3.493   9.030
16443WAT      O49570   2.008   3.118   2.038
16443WAT     H149571   1.971   3.031   2.071
16443WAT     H249572   1.976   3.193   2.096
16444WAT      O49573   4.903   3.543   1.160
16444WAT     H149574   4.986   3.538   1.105
16444WAT     H249575   4.921   3.504   1.251
16445WAT      O49576   5.307   0.350   5.422
16445WAT     H149577   5.333   0.332   5.328
16445WAT     H249578   5.215   0.314   5.439
16446WAT      O49579   7.341   1.843   9.260
16446WAT     H149580   7.272   1.811   9.325
16446WAT     H249581   7.348   1.777   9.185
16447WAT      O49582   1.296   9.067   5.536
16447WAT     H149583   1.379   9.016   5.515
16447WAT     H249584   1.313   9.129   5.612
16448WAT      O49585   4.954   4.959   2.222
16448WAT     H149586   4.862   4.984   2.193
16448WAT     H249587   4.950   4.888   2.292
16449WAT      O49588   6.382   8.996   4.764
16449WAT     H149589   6.442   9.049   4.824
16449WAT     H249590   6.414   8.902   4.759
16450WAT      O49591   3.276   3.334   5.645
16450WAT     H149592   3.240   3.340   5.738
16450WAT     H249593   3.375   3.323   5.647
16451WAT      O49594   3.877   5.481   1.363
16451WAT     H149595   3.949   5.452   1.427
16451WAT     H249596   3.854   5.405   1.303
16452WAT      O49597   0.185   4.658   9.393
16452WAT     H149598   0.219   4.578   9.443
16452WAT     H249599   0.229   4.663   9.304
16453WAT      O49600   4.811   9.423   0.893
16453WAT     H149601   4.746   9.351   0.870
16453WAT     H249602   4.887   9.422   0.828
16454WAT      O49603   9.305   4.781   9.844
16454WAT     H149604   9.335   4.734   9.761
16454WAT     H249605   9.379   4.780   9.911
16455WAT      O49606   9.026   3.667   4.232
16455WAT     H149607   8.967   3.684   4.311
16455WAT     H249608   8.970   3.654   4.150
16456WAT      O49609   3.981   1.506   2.410
16456WAT     H149610   3.962   1.528   2.506
16456WAT     H249611   4.079   1.514   2.393
16457WAT      O49612   4.285   6.901   1.140
16457WAT     H149613   4.208   6.940   1.089
16457WAT     H249614   4.365   6.894   1.081
16458WAT      O49615   3.242   9.095   2.125
16458WAT     H149616   3.245   9.000   2.155
16458WAT     H249617   3.335   9.130   2.115
16459WAT      O49618   6.308   5.808   0.541
16459WAT     H149619   6.339   5.755   0.619
16459WAT     H249620   6.209   5.822   0.548
16460WAT      O49621   3.759   8.531   5.661
16460WAT     H149622   3.725   8.623   5.641
16460WAT     H249623   3.695   8.484   5.721
16461WAT      O49624   8.596   1.463   6.331
16461WAT     H149625   8.689   1.475   6.367
16461WAT     H249626   8.535   1.530   6.375
16462WAT      O49627   4.886   9.443   6.329
16462WAT     H149628   4.934   9.414   6.412
16462WAT     H249629   4.801   9.391   6.320
16463WAT      O49630   1.354   3.501   7.789
16463WAT     H149631   1.405   3.583   7.760
16463WAT     H249632   1.418   3.434   7.826
16464WAT      O49633   7.597   8.077   3.406
16464WAT     H149634   7.611   8.107   3.500
16464WAT     H249635   7.661   8.003   3.385
16465WAT      O49636   9.656   9.324   8.158
16465WAT     H149637   9.680   9.272   8.076
16465WAT     H249638   9.557   9.334   8.162
16466WAT      O49639   3.752   8.792   8.416
16466WAT     H149640   3.685   8.816   8.345
16466WAT     H249641   3.761   8.693   8.421
16467WAT      O49642   3.051   9.381   0.665
16467WAT     H149643   3.118   9.396   0.592
16467WAT     H249644   2.996   9.464   0.677
16468WAT      O49645   4.043   9.221   0.723
16468WAT     H149646   4.053   9.272   0.638
16468WAT     H249647   4.125   9.232   0.778
16469WAT      O49648   7.669   2.513   4.534
16469WAT     H149649   7.649   2.551   4.444
16469WAT     H249650   7.609   2.434   4.551
16470WAT      O49651   1.619   4.504   2.520
16470WAT     H149652   1.621   4.580   2.585
16470WAT     H249653   1.595   4.419   2.567
16471WAT      O49654   8.534   3.613   6.951
16471WAT     H149655   8.610   3.551   6.972
16471WAT     H249656   8.508   3.602   6.856
16472WAT      O49657   3.608   4.236   5.133
16472WAT     H149658   3.676   4.165   5.152
16472WAT     H249659   3.583   4.282   5.219
16473WAT      O49660   7.176   4.951   1.312
16473WAT     H149661   7.164   5.016   1.388
16473WAT     H249662   7.102   4.963   1.246
16474WAT      O49663   2.817   1.514   1.248
16474WAT     H149664   2.791   1.432   1.298
16474WAT     H249665   2.751   1.587   1.266
16475WAT      O49666   5.137   8.226   7.361
16475WAT     H149667   5.185   8.314   7.359
16475WAT     H249668   5.199   8.154   7.333
16476WAT      O49669   2.756   5.202   6.639
16476WAT     H149670   2.822   5.224   6.567
16476WAT     H249671   2.665   5.190   6.599
16477WAT      O49672   2.582   4.037   3.286
16477WAT     H149673   2.487   4.006   3.296
16477WAT     H249674   2.638   3.961   3.255
16478WAT      O49675   3.120   7.477   8.662
16478WAT     H149676   3.158   7.394   8.621
16478WAT     H249677   3.052   7.517   8.600
16479WAT      O49678   4.607   9.248   0.880
16479WAT     H149679   4.572   9.281   0.968
16479WAT     H249680   4.533   9.203   0.829
16480WAT      O49681   7.283   5.887   7.757
16480WAT     H149682   7.219   5.835   7.813
16480WAT     H249683   7.247   5.899   7.665
16481WAT      O49684   7.993   5.401   0.281
16481WAT     H149685   7.926   5.358   0.341
16481WAT     H249686   8.084   5.363   0.300
16482WAT      O49687   3.167   3.916   5.024
16482WAT     H149688   3.265   3.933   5.010
16482WAT     H249689   3.114   3.976   4.964
16483WAT      O49690   6.019   2.125   0.715
16483WAT     H149691   6.109   2.110   0.756
16483WAT     H249692   5.993   2.044   0.662
16484WAT      O49693   6.602   0.191   1.817
16484WAT     H149694   6.605   0.290   1.825
16484WAT     H249695   6.692   0.156   1.793
16485WAT      O49696   7.538   2.323   2.917
16485WAT     H149697   7.479   2.260   2.866
16485WAT     H249698   7.540   2.412   2.872
16486WAT      O49699   9.105   8.263   7.932
16486WAT     H149700   9.135   8.216   7.849
16486WAT     H249701   9.125   8.205   8.012
16487WAT      O49702   2.771   8.632   4.565
16487WAT     H149703   2.737   8.539   4.551
16487WAT     H249704   2.705   8.697   4.526
16488WAT      O49705   4.312   6.678   0.843
16488WAT     H149706   4.290   6.738   0.766
16488WAT     H249707   4.230   6.660   0.897
16489WAT      O49708   2.225   2.742   6.083
16489WAT     H149709   2.220   2.642   6.084
16489WAT     H249710   2.271   2.772   6.000
16490WAT      O49711   2.826   9.534   4.461
16490WAT     H149712   2.836   9.544   4.362
16490WAT     H249713   2.788   9.444   4.482
16491WAT      O49714   0.720   5.947   0.431
16491WAT     H149715   0.720   6.045   0.416
16491WAT     H249716   0.783   5.904   0.366
16492WAT      O49717   0.874   5.761   0.256
16492WAT     H149718   0.944   5.693   0.278
16492WAT     H249719   0.898   5.808   0.171
16493WAT      O49720   8.089   1.256   8.570
16493WAT     H149721   7.998   1.297   8.559
16493WAT     H249722   8.098   1.222   8.664
16494WAT      O49723   2.145   7.260   4.807
16494WAT     H149724   2.153   7.272   4.709
16494WAT     H249725   2.080   7.187   4.827
16495WAT      O49726   5.005   5.713   2.599
16495WAT     H149727   4.919   5.687   2.555
16495WAT     H249728   5.017   5.660   2.683
16496WAT      O49729   1.493   2.803   9.259
16496WAT     H149730   1.466   2.708   9.279
16496WAT     H249731   1.586   2.804   9.222
16497WAT      O49732   8.555   1.801   1.960
16497WAT     H149733   8.624   1.835   2.023
16497WAT     H249734   8.468   1.789   2.009
16498WAT      O49735   7.163   2.537   7.435
16498WAT     H149736   7.123   2.628   7.422
16498WAT     H249737   7.261   2.541   7.415
16499WAT      O49738   9.681   3.028   6.619
16499WAT     H149739   9.620   3.031   6.540
16499WAT     H249740   9.752   3.097   6.609
16500WAT      O49741   0.407   1.975   6.460
16500WAT     H149742   0.365   2.023   6.383
16500WAT     H249743   0.414   2.037   6.538
16501WAT      O49744   2.376   4.618   3.322
16501WAT     H149745   2.372   4.557   3.242
16501WAT     H249746   2.314   4.584   3.392
16502WAT      O49747   4.952   6.670   8.508
16502WAT     H149748   4.998   6.592   8.466
16502WAT     H249749   4.857   6.673   8.475
16503WAT      O49750   3.075   1.119   2.753
16503WAT     H149751   3.169   1.130   2.719
16503WAT     H249752   3.036   1.036   2.714
16504WAT      O49753   1.227   9.258   4.819
16504WAT     H149754   1.249   9.221   4.909
16504WAT     H249755   1.152   9.205   4.779
16505WAT      O49756   3.311   2.805   0.780
16505WAT     H149757   3.406   2.836   0.783
16505WAT     H249758   3.252   2.876   0.819
16506WAT      O49759   1.204   7.704   9.860
16506WAT     H149760   1.219   7.636   9.933
16506WAT     H249761   1.149   7.663   9.788
16507WAT      O49762   9.122   0.910   8.719
16507WAT     H149763   9.161   0.993   8.760
16507WAT     H249764   9.072   0.935   8.636
16508WAT      O49765   6.899   1.026   9.452
16508WAT     H149766   6.949   1.109   9.428
16508WAT     H249767   6.810   1.051   9.490
16509WAT      O49768   2.637   1.830   8.207
16509WAT     H149769   2.649   1.830   8.306
16509WAT     H249770   2.725   1.850   8.163
16510WAT      O49771   0.941   4.827   7.094
16510WAT     H149772   1.023   4.776   7.117
16510WAT     H249773   0.865   4.764   7.079
16511WAT      O49774   0.452   2.126   0.024
16511WAT     H149775   0.412   2.050  -0.027
16511WAT     H249776   0.518   2.174  -0.033
16512WAT      O49777   1.070   1.091   4.966
16512WAT     H149778   1.001   1.039   4.917
16512WAT     H249779   1.097   1.170   4.912
16513WAT      O49780   3.941   2.463   4.935
16513WAT     H149781   4.040   2.457   4.920
16513WAT     H249782   3.898   2.505   4.855
16514WAT      O49783   8.573   5.135   6.998
16514WAT     H149784   8.627   5.212   7.031
16514WAT     H249785   8.533   5.157   6.909
16515WAT      O49786   5.729   0.812   8.994
16515WAT     H149787   5.655   0.754   9.028
16515WAT     H249788   5.774   0.767   8.917
16516WAT      O49789   5.291   4.063   1.964
16516WAT     H149790   5.359   3.990   1.962
16516WAT     H249791   5.311   4.126   2.039
16517WAT      O49792   9.429   3.712   1.364
16517WAT     H149793   9.446   3.795   1.417
16517WAT     H249794   9.512   3.656   1.363
16518WAT      O49795   3.804   8.804   4.498
16518WAT     H149796   3.762   8.720   4.532
16518WAT     H249797   3.757   8.834   4.415
16519WAT      O49798   7.436   3.091   0.665
16519WAT     H149799   7.353   3.063   0.616
16519WAT     H249800   7.413   3.161   0.732
16520WAT      O49801   4.902   8.315   1.269
16520WAT     H149802   4.809   8.294   1.238
16520WAT     H249803   4.921   8.412   1.255
16521WAT      O49804   5.631   0.166   2.143
16521WAT     H149805   5.700   0.122   2.085
16521WAT     H249806   5.542   0.123   2.128
16522WAT      O49807   9.646   0.974   8.032
16522WAT     H149808   9.689   1.041   8.092
16522WAT     H249809   9.604   1.020   7.955
16523WAT      O49810   9.594   3.866   6.926
16523WAT     H149811   9.685   3.900   6.950
16523WAT     H249812   9.528   3.942   6.930
16524WAT      O49813   0.668   7.672   5.119
16524WAT     H149814   0.622   7.636   5.200
16524WAT     H249815   0.709   7.761   5.141
16525WAT      O49816   8.660   5.668   1.437
16525WAT     H149817   8.560   5.667   1.439
16525WAT     H249818   8.692   5.638   1.348
16526WAT      O49819   5.215   2.354   2.205
16526WAT     H149820   5.127   2.320   2.239
16526WAT     H249821   5.289   2.303   2.247
16527WAT      O49822   1.382   3.770   9.256
16527WAT     H149823   1.292   3.767   9.299
16527WAT     H249824   1.433   3.848   9.292
16528WAT      O49825   1.938   0.085   2.818
16528WAT     H149826   1.841   0.063   2.803
16528WAT     H249827   1.953   0.106   2.914
16529WAT      O49828   8.166   9.418   4.413
16529WAT     H149829   8.250   9.368   4.432
16529WAT     H249830   8.188   9.513   4.391
16530WAT      O49831   7.779   4.727   4.033
16530WAT     H149832   7.719   4.767   4.102
16530WAT     H249833   7.809   4.636   4.062
16531WAT      O49834   6.344   6.409   9.516
16531WAT     H149835   6.409   6.378   9.585
16531WAT     H249836   6.384   6.396   9.425
16532WAT      O49837   4.351   2.341   0.505
16532WAT     H149838   4.272   2.318   0.563
16532WAT     H249839   4.348   2.438   0.481
16533WAT      O49840   1.791   5.586   2.599
16533WAT     H149841   1.765   5.491   2.584
16533WAT     H249842   1.769   5.640   2.518
16534WAT      O49843   7.479   8.750   5.168
16534WAT     H149844   7.550   8.707   5.112
16534WAT     H249845   7.503   8.845   5.185
16535WAT      O49846   3.156   0.987   7.073
16535WAT     H149847   3.239   0.964   7.124
16535WAT     H249848   3.076   0.962   7.127
16536WAT      O49849   8.711   7.204   6.671
16536WAT     H149850   8.676   7.114   6.697
16536WAT     H249851   8.754   7.199   6.581
16537WAT      O49852   8.434   8.555   1.387
16537WAT     H149853   8.448   8.525   1.293
16537WAT     H249854   8.519   8.541   1.439
16538WAT      O49855   2.230   3.037   2.800
16538WAT     H149856   2.239   3.044   2.899
16538WAT     H249857   2.301   2.977   2.764
16539WAT      O49858   6.752   6.071   8.100
16539WAT     H149859   6.773   6.085   8.003
16539WAT     H249860   6.751   5.973   8.119
16540WAT      O49861   1.955   4.120   7.414
16540WAT     H149862   2.038   4.175   7.399
16540WAT     H249863   1.912   4.148   7.500
16541WAT      O49864   7.988   6.913   8.762
16541WAT     H149865   7.958   6.916   8.857
16541WAT     H249866   7.926   6.854   8.710
16542WAT      O49867   6.853   0.218   4.575
16542WAT     H149868   6.894   0.171   4.654
16542WAT     H249869   6.900   0.305   4.561
16543WAT      O49870   0.816   3.937   5.371
16543WAT     H149871   0.726   3.902   5.345
16543WAT     H249872   0.805   4.021   5.425
16544WAT      O49873   2.081   1.303   7.380
16544WAT     H149874   2.018   1.376   7.406
16544WAT     H249875   2.059   1.271   7.287
16545WAT      O49876   7.792   2.322   6.753
16545WAT     H149877   7.796   2.237   6.805
16545WAT     H249878   7.757   2.395   6.812
16546WAT      O49879   5.539   1.655   6.429
16546WAT     H149880   5.486   1.675   6.347
16546WAT     H249881   5.616   1.719   6.436
16547WAT      O49882   1.607   2.536   5.480
16547WAT     H149883   1.592   2.557   5.383
16547WAT     H249884   1.640   2.442   5.489
16548WAT      O49885   1.145   1.780   4.232
16548WAT     H149886   1.139   1.682   4.215
16548WAT     H249887   1.241   1.805   4.245
16549WAT      O49888   2.060   1.780   9.594
16549WAT     H149889   2.098   1.872   9.593
16549WAT     H249890   1.961   1.784   9.579
16550WAT      O49891   5.701   0.163   1.184
16550WAT     H149892   5.735   0.127   1.097
16550WAT     H249893   5.772   0.154   1.254
16551WAT      O49894   3.245   8.119   3.528
16551WAT     H149895   3.221   8.087   3.436
16551WAT     H249896   3.224   8.048   3.594
16552WAT      O49897   4.787   0.599   7.787
16552WAT     H149898   4.782   0.666   7.861
16552WAT     H249899   4.746   0.513   7.817
16553WAT      O49900   0.720   7.321   1.158
16553WAT     H149901   0.640   7.349   1.210
16553WAT     H249902   0.785   7.398   1.152
16554WAT      O49903   4.523   4.655   8.022
16554WAT     H149904   4.545   4.588   8.093
16554WAT     H249905   4.598   4.720   8.012
16555WAT      O49906   0.710   6.399   5.007
16555WAT     H149907   0.676   6.310   5.038
16555WAT     H249908   0.765   6.387   4.924
16556WAT      O49909   0.122   2.185   7.877
16556WAT     H149910   0.099   2.114   7.944
16556WAT     H249911   0.220   2.202   7.879
16557WAT      O49912   6.097   8.600   5.856
16557WAT     H149913   6.178   8.542   5.862
16557WAT     H249914   6.077   8.619   5.759
16558WAT      O49915   5.591   4.311   7.972
16558WAT     H149916   5.617   4.407   7.963
16558WAT     H249917   5.507   4.304   8.025
16559WAT      O49918   4.296   8.982   3.860
16559WAT     H149919   4.258   8.956   3.949
16559WAT     H249920   4.291   8.905   3.797
16560WAT      O49921   3.072   3.612   1.464
16560WAT     H149922   3.062   3.525   1.512
16560WAT     H249923   3.125   3.675   1.520
16561WAT      O49924   1.050   1.947   6.171
16561WAT     H149925   1.148   1.958   6.157
16561WAT     H249926   1.009   2.035   6.196
16562WAT      O49927   7.779   5.563   3.058
16562WAT     H149928   7.775   5.505   3.140
16562WAT     H249929   7.685   5.583   3.028
16563WAT      O49930   0.942   2.987   2.180
16563WAT     H149931   0.952   3.026   2.272
16563WAT     H249932   1.009   2.913   2.168
16564WAT      O49933   2.500   8.526   2.677
16564WAT     H149934   2.401   8.513   2.677
16564WAT     H249935   2.540   8.478   2.599
16565WAT      O49936   7.536   3.911   4.343
16565WAT     H149937   7.617   3.891   4.398
16565WAT     H249938   7.519   4.010   4.344
16566WAT      O49939   7.861   6.643   3.587
16566WAT     H149940   7.945   6.674   3.544
16566WAT     H249941   7.801   6.601   3.518
16567WAT      O49942   3.366   0.060   8.196
16567WAT     H149943   3.273   0.066   8.234
16567WAT     H249944   3.423   0.132   8.235
16568WAT      O49945   1.955   6.126   6.180
16568WAT     H149946   1.873   6.068   6.177
16568WAT     H249947   2.022   6.090   6.115
16569WAT      O49948   9.338   2.125   4.733
16569WAT     H149949   9.373   2.179   4.809
16569WAT     H249950   9.284   2.184   4.673
16570WAT      O49951   6.713   7.784   1.838
16570WAT     H149952   6.800   7.798   1.884
16570WAT     H249953   6.639   7.824   1.893
16571WAT      O49954   2.911   6.615   3.340
16571WAT     H149955   2.939   6.706   3.370
16571WAT     H249956   2.822   6.621   3.294
16572WAT      O49957   5.501   6.417   1.320
16572WAT     H149958   5.434   6.344   1.308
16572WAT     H249959   5.509   6.441   1.417
16573WAT      O49960   7.477   9.131   3.401
16573WAT     H149961   7.537   9.093   3.330
16573WAT     H249962   7.525   9.128   3.489
16574WAT      O49963   6.083   4.130   3.076
16574WAT     H149964   6.051   4.207   3.021
16574WAT     H249965   6.030   4.126   3.161
16575WAT      O49966   1.551   1.709   9.381
16575WAT     H149967   1.464   1.756   9.398
16575WAT     H249968   1.533   1.613   9.358
16576WAT      O49969   3.190   1.932   3.449
16576WAT     H149970   3.209   1.940   3.352
16576WAT     H249971   3.247   1.997   3.500
16577WAT      O49972   5.992   4.674   3.470
16577WAT     H149973   6.024   4.596   3.416
16577WAT     H249974   5.893   4.681   3.462
16578WAT      O49975   0.524   8.941   3.060
16578WAT     H149976   0.590   8.886   3.110
16578WAT     H249977   0.432   8.911   3.082
16579WAT      O49978   4.386   0.662   6.361
16579WAT     H149979   4.480   0.697   6.358
16579WAT     H249980   4.387   0.563   6.377
16580WAT      O49981   4.540   8.049   2.646
16580WAT     H149982   4.470   8.107   2.686
16580WAT     H249983   4.615   8.036   2.711
16581WAT      O49984   4.097   1.840   4.013
16581WAT     H149985   4.190   1.805   4.024
16581WAT     H249986   4.036   1.764   3.987
16582WAT      O49987   8.281   9.761   2.132
16582WAT     H149988   8.322   9.724   2.215
16582WAT     H249989   8.323   9.719   2.052
16583WAT      O49990   4.784   5.996   8.487
16583WAT     H149991   4.750   5.918   8.434
16583WAT     H249992   4.785   5.972   8.584
16584WAT      O49993   2.052   4.694   0.086
16584WAT     H149994   2.115   4.670   0.013
16584WAT     H249995   2.103   4.712   0.170
16585WAT      O49996   2.010   2.345   5.456
16585WAT     H149997   2.067   2.279   5.407
16585WAT     H249998   2.064   2.427   5.475
16586WAT      O49999   8.489   6.992   0.687
16586WAT     H150000   8.407   6.950   0.727
16586WAT     H250001   8.461   7.058   0.617
16587WAT      O50002   0.902   5.817   6.987
16587WAT     H150003   0.932   5.759   7.063
16587WAT     H250004   0.967   5.892   6.975
16588WAT      O50005   9.110   0.093   7.656
16588WAT     H150006   9.183   0.107   7.723
16588WAT     H250007   9.150   0.088   7.565
16589WAT      O50008   9.430   3.237   6.399
16589WAT     H150009   9.460   3.209   6.308
16589WAT     H250010   9.371   3.167   6.438
16590WAT      O50011   7.432   0.539   1.240
16590WAT     H150012   7.490   0.537   1.159
16590WAT     H250013   7.459   0.465   1.302
16591WAT      O50014   1.157   9.621   0.679
16591WAT     H150015   1.170   9.545   0.744
16591WAT     H250016   1.228   9.617   0.609
16592WAT      O50017   0.129   2.403   0.705
16592WAT     H150018   0.100   2.439   0.794
16592WAT     H250019   0.185   2.321   0.719
16593WAT      O50020   6.393   3.097   0.303
16593WAT     H150021   6.408   3.020   0.242
16593WAT     H250022   6.374   3.179   0.249
16594WAT      O50023   4.411   4.078   9.666
16594WAT     H150024   4.491   4.111   9.615
16594WAT     H250025   4.396   4.137   9.745
16595WAT      O50026   9.270   6.012   3.239
16595WAT     H150027   9.245   5.993   3.144
16595WAT     H250028   9.369   6.013   3.248
16596WAT      O50029   3.657   7.484   1.612
16596WAT     H150030   3.695   7.394   1.591
16596WAT     H250031   3.724   7.555   1.590
16597WAT      O50032   5.429   4.750   5.663
16597WAT     H150033   5.367   4.685   5.619
16597WAT     H250034   5.408   4.842   5.630
16598WAT      O50035   1.727   7.891   0.106
16598WAT     H150036   1.711   7.799   0.069
16598WAT     H250037   1.649   7.918   0.162
16599WAT      O50038   5.958   0.118   2.410
16599WAT     H150039   5.858   0.121   2.399
16599WAT     H250040   5.980   0.082   2.501
16600WAT      O50041   1.724   0.782   2.109
16600WAT     H150042   1.804   0.759   2.053
16600WAT     H250043   1.666   0.702   2.120
16601WAT      O50044   8.325   2.273   3.118
16601WAT     H150045   8.297   2.201   3.181
16601WAT     H250046   8.250   2.291   3.053
16602WAT      O50047   1.470   0.073   7.161
16602WAT     H150048   1.483   0.170   7.181
16602WAT     H250049   1.519   0.050   7.077
16603WAT      O50050   4.781   1.554   9.624
16603WAT     H150051   4.775   1.598   9.713
16603WAT     H250052   4.719   1.600   9.560
16604WAT      O50053   5.198   9.544   4.260
16604WAT     H150054   5.201   9.640   4.229
16604WAT     H250055   5.125   9.496   4.212
16605WAT      O50056   0.484   5.511   4.355
16605WAT     H150057   0.447   5.582   4.415
16605WAT     H250058   0.582   5.524   4.345
16606WAT      O50059   0.341   6.972   9.412
16606WAT     H150060   0.310   6.926   9.329
16606WAT     H250061   0.269   6.969   9.481
16607WAT      O50062   7.516   5.822   2.085
16607WAT     H150063   7.466   5.738   2.066
16607WAT     H250064   7.453   5.900   2.083
16608WAT      O50065   8.442   3.717   2.656
16608WAT     H150066   8.508   3.696   2.584
16608WAT     H250067   8.463   3.663   2.737
16609WAT      O50068   3.531   5.293   6.832
16609WAT     H150069   3.435   5.268   6.847
16609WAT     H250070   3.566   5.340   6.912
16610WAT      O50071   6.810   9.215   0.332
16610WAT     H150072   6.766   9.305   0.335
16610WAT     H250073   6.775   9.163   0.254
16611WAT      O50074   0.453   2.127   7.297
16611WAT     H150075   0.541   2.170   7.274
16611WAT     H250076   0.381   2.197   7.296
16612WAT      O50077   8.934   3.695   9.707
16612WAT     H150078   8.996   3.718   9.782
16612WAT     H250079   8.846   3.740   9.722
16613WAT      O50080   3.204   2.941   1.323
16613WAT     H150081   3.132   2.959   1.256
16613WAT     H250082   3.181   2.986   1.409
16614WAT      O50083   3.634   3.656   3.987
16614WAT     H150084   3.542   3.669   3.950
16614WAT     H250085   3.690   3.737   3.966
16615WAT      O50086   5.682   1.671   7.487
16615WAT     H150087   5.714   1.739   7.554
16615WAT     H250088   5.599   1.704   7.443
16616WAT      O50089   5.107   2.653   0.613
16616WAT     H150090   5.102   2.693   0.522
16616WAT     H250091   5.138   2.558   0.606
16617WAT      O50092   3.595   4.874   6.239
16617WAT     H150093   3.502   4.909   6.226
16617WAT     H250094   3.659   4.930   6.187
16618WAT      O50095   2.881   5.797   2.919
16618WAT     H150096   2.955   5.815   2.984
16618WAT     H250097   2.919   5.759   2.835
16619WAT      O50098   6.771   4.930   7.673
16619WAT     H150099   6.699   4.887   7.618
16619WAT     H250100   6.802   5.013   7.628
16620WAT      O50101   7.786   4.377   7.682
16620WAT     H150102   7.713   4.317   7.647
16620WAT     H250103   7.875   4.341   7.653
16621WAT      O50104   8.349   8.063   5.595
16621WAT     H150105   8.426   8.007   5.567
16621WAT     H250106   8.374   8.160   5.590
16622WAT      O50107   7.638   3.062   7.965
16622WAT     H150108   7.650   2.963   7.955
16622WAT     H250109   7.724   3.108   7.944
16623WAT      O50110   7.363   0.534   3.867
16623WAT     H150111   7.326   0.502   3.955
16623WAT     H250112   7.344   0.466   3.796
16624WAT      O50113   5.521   0.592   3.478
16624WAT     H150114   5.444   0.560   3.423
16624WAT     H250115   5.602   0.598   3.420
16625WAT      O50116   7.601   7.440   2.405
16625WAT     H150117   7.586   7.346   2.376
16625WAT     H250118   7.639   7.441   2.497
16626WAT      O50119   0.996   7.466   4.513
16626WAT     H150120   0.952   7.402   4.450
16626WAT     H250121   0.926   7.523   4.555
16627WAT      O50122   8.548   3.980   4.235
16627WAT     H150123   8.520   3.914   4.166
16627WAT     H250124   8.648   3.984   4.239
16628WAT      O50125   3.550   5.023   2.910
16628WAT     H150126   3.574   5.116   2.883
16628WAT     H250127   3.484   4.985   2.846
16629WAT      O50128   1.929   1.026   2.503
16629WAT     H150129   1.833   1.005   2.522
16629WAT     H250130   1.966   0.958   2.439
16630WAT      O50131   9.485   7.255   6.787
16630WAT     H150132   9.537   7.176   6.821
16630WAT     H250133   9.536   7.299   6.713
16631WAT      O50134   7.765   1.445   0.587
16631WAT     H150135   7.761   1.370   0.521
16631WAT     H250136   7.692   1.510   0.568
16632WAT      O50137   0.167   2.428   5.225
16632WAT     H150138   0.256   2.470   5.241
16632WAT     H250139   0.162   2.396   5.130
16633WAT      O50140   4.631   2.623   2.355
16633WAT     H150141   4.536   2.596   2.374
16633WAT     H250142   4.679   2.547   2.311
16634WAT      O50143   7.443   2.643   0.606
16634WAT     H150144   7.392   2.558   0.619
16634WAT     H250145   7.410   2.689   0.523
16635WAT      O50146   9.480   4.536   1.924
16635WAT     H150147   9.530   4.499   1.846
16635WAT     H250148   9.537   4.605   1.970
16636WAT      O50149   8.940   9.645   8.247
16636WAT     H150150   8.979   9.556   8.227
16636WAT     H250151   8.849   9.633   8.289
16637WAT      O50152   0.124   2.611   6.810
16637WAT     H150153   0.181   2.568   6.740
16637WAT     H250154   0.141   2.709   6.812
16638WAT      O50155   3.179   4.280   4.090
16638WAT     H150156   3.121   4.349   4.135
16638WAT     H250157   3.175   4.195   4.142
16639WAT      O50158   4.532   9.667   1.822
16639WAT     H150159   4.570   9.693   1.733
16639WAT     H250160   4.502   9.572   1.819
16640WAT      O50161   9.661   6.884   0.555
16640WAT     H150162   9.601   6.889   0.475
16640WAT     H250163   9.723   6.963   0.556
16641WAT      O50164   0.719   6.404   2.857
16641WAT     H150165   0.679   6.490   2.826
16641WAT     H250166   0.677   6.376   2.943
16642WAT      O50167   5.515   9.507   6.847
16642WAT     H150168   5.471   9.448   6.779
16642WAT     H250169   5.477   9.599   6.842
16643WAT      O50170   1.188   1.520   4.495
16643WAT     H150171   1.145   1.460   4.563
16643WAT     H250172   1.223   1.602   4.540
16644WAT      O50173   9.725   4.773   8.484
16644WAT     H150174   9.707   4.679   8.454
16644WAT     H250175   9.701   4.781   8.581
16645WAT      O50176   9.302   5.397   3.510
16645WAT     H150177   9.236   5.339   3.462
16645WAT     H250178   9.379   5.341   3.542
16646WAT      O50179   6.265   3.234   0.533
16646WAT     H150180   6.306   3.178   0.461
16646WAT     H250181   6.178   3.194   0.561
16647WAT      O50182   0.163   0.056   3.231
16647WAT     H150183   0.147  -0.036   3.267
16647WAT     H250184   0.261   0.077   3.235
16648WAT      O50185   9.041   5.885   0.977
16648WAT     H150186   9.088   5.945   0.912
16648WAT     H250187   8.964   5.934   1.017
16649WAT      O50188   8.464   5.957   5.866
16649WAT     H150189   8.439   5.902   5.946
16649WAT     H250190   8.489   6.049   5.894
16650WAT      O50191   4.341   0.883   6.016
16650WAT     H150192   4.250   0.840   6.018
16650WAT     H250193   4.331   0.978   5.988
16651WAT      O50194   3.184   7.845   0.178
16651WAT     H150195   3.210   7.761   0.227
16651WAT     H250196   3.262   7.908   0.178
16652WAT      O50197   5.043   7.672   0.710
16652WAT     H150198   5.092   7.589   0.684
16652WAT     H250199   4.945   7.655   0.707
16653WAT      O50200   1.853   4.725   5.945
16653WAT     H150201   1.911   4.751   6.022
16653WAT     H250202   1.786   4.657   5.975
16654WAT      O50203   2.764   4.271   8.730
16654WAT     H150204   2.839   4.206   8.720
16654WAT     H250205   2.677   4.222   8.726
16655WAT      O50206   1.555   8.584   2.377
16655WAT     H150207   1.576   8.677   2.407
16655WAT     H250208   1.628   8.551   2.316
16656WAT      O50209   9.496   6.298   5.999
16656WAT     H150210   9.501   6.392   6.035
16656WAT     H250211   9.538   6.295   5.909
16657WAT      O50212   9.317   4.483   2.498
16657WAT     H150213   9.399   4.469   2.443
16657WAT     H250214   9.276   4.394   2.520
16658WAT      O50215   8.080   9.142   7.163
16658WAT     H150216   8.122   9.071   7.105
16658WAT     H250217   8.151   9.186   7.218
16659WAT      O50218   0.365   0.339   9.152
16659WAT     H150219   0.455   0.381   9.167
16659WAT     H250220   0.303   0.408   9.114
16660WAT      O50221   8.723   7.174   1.200
16660WAT     H150222   8.719   7.141   1.294
16660WAT     H250223   8.771   7.106   1.144
16661WAT      O50224   7.892   6.772   2.967
16661WAT     H150225   7.991   6.757   2.969
16661WAT     H250226   7.873   6.869   2.957
16662WAT      O50227   2.002   5.935   5.695
16662WAT     H150228   2.028   6.013   5.638
16662WAT     H250229   2.004   5.852   5.640
16663WAT      O50230   8.495   9.192   1.055
16663WAT     H150231   8.450   9.215   0.968
16663WAT     H250232   8.426   9.192   1.128
16664WAT      O50233   8.979   4.681   0.095
16664WAT     H150234   8.922   4.688   0.176
16664WAT     H250235   8.995   4.773   0.058
16665WAT      O50236   2.731   5.769   0.218
16665WAT     H150237   2.705   5.772   0.121
16665WAT     H250238   2.728   5.675   0.251
16666WAT      O50239   8.158   5.129   0.168
16666WAT     H150240   8.059   5.135   0.176
16666WAT     H250241   8.188   5.035   0.186
16667WAT      O50242   0.515   6.291   0.607
16667WAT     H150243   0.439   6.275   0.670
16667WAT     H250244   0.598   6.252   0.645
16668WAT      O50245   5.212   2.093   9.165
16668WAT     H150246   5.170   2.003   9.168
16668WAT     H250247   5.280   2.101   9.238
16669WAT      O50248   4.380   3.916   0.164
16669WAT     H150249   4.316   3.917   0.087
16669WAT     H250250   4.393   4.010   0.198
16670WAT      O50251   3.496   8.488   2.921
16670WAT     H150252   3.461   8.450   3.007
16670WAT     H250253   3.425   8.485   2.851
16671WAT      O50254   5.590   7.148   9.669
16671WAT     H150255   5.500   7.158   9.627
16671WAT     H250256   5.581   7.148   9.769
16672WAT      O50257   5.906   0.947   3.012
16672WAT     H150258   5.987   0.987   3.055
16672WAT     H250259   5.826   1.005   3.029
16673WAT      O50260   2.661   1.360   3.084
16673WAT     H150261   2.688   1.336   2.990
16673WAT     H250262   2.713   1.440   3.114
16674WAT      O50263   4.680   1.066   5.121
16674WAT     H150264   4.736   1.028   5.047
16674WAT     H250265   4.721   1.044   5.209
16675WAT      O50266   9.677   1.741   1.046
16675WAT     H150267   9.729   1.753   1.131
16675WAT     H250268   9.632   1.827   1.022
16676WAT      O50269   7.026   4.127   0.224
16676WAT     H150270   7.012   4.108   0.127
16676WAT     H250271   7.105   4.075   0.257
16677WAT      O50272   8.696   8.596   4.152
16677WAT     H150273   8.602   8.565   4.169
16677WAT     H250274   8.756   8.561   4.223
16678WAT      O50275   0.799   9.589   1.493
16678WAT     H150276   0.707   9.616   1.466
16678WAT     H250277   0.862   9.665   1.480
16679WAT      O50278   6.030   1.262   1.605
16679WAT     H150279   6.093   1.185   1.617
16679WAT     H250280   6.061   1.340   1.658
16680WAT      O50281   7.691   7.579   4.800
16680WAT     H150282   7.782   7.577   4.759
16680WAT     H250283   7.637   7.502   4.765
16681WAT      O50284   1.012   8.867   4.151
16681WAT     H150285   0.941   8.798   4.161
16681WAT     H250286   0.999   8.940   4.218
16682WAT      O50287   8.080   8.145   9.795
16682WAT     H150288   8.058   8.051   9.821
16682WAT     H250289   8.174   8.150   9.761
16683WAT      O50290   7.955   8.135   3.182
16683WAT     H150291   7.891   8.070   3.223
16683WAT     H250292   7.924   8.157   3.090
16684WAT      O50293   4.822   9.612   7.928
16684WAT     H150294   4.773   9.590   7.844
16684WAT     H250295   4.892   9.682   7.908
16685WAT      O50296   1.794   2.844   6.329
16685WAT     H150297   1.712   2.807   6.375
16685WAT     H250298   1.823   2.927   6.376
16686WAT      O50299   1.207   7.314   5.225
16686WAT     H150300   1.303   7.340   5.216
16686WAT     H250301   1.150   7.396   5.221
16687WAT      O50302   2.126   2.244   2.540
16687WAT     H150303   2.189   2.301   2.486
16687WAT     H250304   2.179   2.183   2.598
16688WAT      O50305   6.420   5.179   4.791
16688WAT     H150306   6.495   5.134   4.839
16688WAT     H250307   6.439   5.181   4.693
16689WAT      O50308   4.560   4.368   7.322
16689WAT     H150309   4.616   4.302   7.372
16689WAT     H250310   4.555   4.342   7.226
16690WAT      O50311   6.341   5.870   8.862
16690WAT     H150312   6.407   5.826   8.923
16690WAT     H250313   6.258   5.892   8.913
16691WAT      O50314   8.434   2.327   0.512
16691WAT     H150315   8.511   2.373   0.556
16691WAT     H250316   8.439   2.229   0.530
16692WAT      O50317   2.450   4.034   7.247
16692WAT     H150318   2.486   3.942   7.241
16692WAT     H250319   2.405   4.058   7.160
16693WAT      O50320   7.302   9.021   6.103
16693WAT     H150321   7.331   9.117   6.109
16693WAT     H250322   7.355   8.966   6.167
16694WAT      O50323   2.414   7.975   0.777
16694WAT     H150324   2.380   7.883   0.796
16694WAT     H250325   2.496   7.969   0.720
16695WAT      O50326   8.274   6.143   2.705
16695WAT     H150327   8.328   6.188   2.634
16695WAT     H250328   8.332   6.078   2.755
16696WAT      O50329   7.507   1.238   8.819
16696WAT     H150330   7.497   1.140   8.806
16696WAT     H250331   7.560   1.256   8.902
16697WAT      O50332   2.327   4.322   1.281
16697WAT     H150333   2.309   4.224   1.289
16697WAT     H250334   2.243   4.373   1.298
16698WAT      O50335   1.090   8.771   6.300
16698WAT     H150336   1.053   8.828   6.374
16698WAT     H250337   1.016   8.720   6.257
16699WAT      O50338   9.576   6.771   1.821
16699WAT     H150339   9.504   6.840   1.825
16699WAT     H250340   9.660   6.811   1.787
16700WAT      O50341   3.377   9.325   7.737
16700WAT     H150342   3.430   9.275   7.805
16700WAT     H250343   3.439   9.382   7.682
16701WAT      O50344   5.673   2.347   9.796
16701WAT     H150345   5.646   2.251   9.786
16701WAT     H250346   5.624   2.388   9.872
16702WAT      O50347   8.047   5.139   6.738
16702WAT     H150348   8.070   5.064   6.676
16702WAT     H250349   8.105   5.134   6.819
16703WAT      O50350   1.339   8.863   6.242
16703WAT     H150351   1.333   8.940   6.179
16703WAT     H250352   1.248   8.824   6.256
16704WAT      O50353   9.113   2.538   6.486
16704WAT     H150354   9.172   2.516   6.408
16704WAT     H250355   9.065   2.455   6.515
16705WAT      O50356   5.644   6.706   3.727
16705WAT     H150357   5.560   6.674   3.686
16705WAT     H250358   5.712   6.724   3.656
16706WAT      O50359   5.149   0.618   5.012
16706WAT     H150360   5.141   0.619   5.112
16706WAT     H250361   5.177   0.526   4.982
16707WAT      O50362   4.990   5.630   3.340
16707WAT     H150363   5.009   5.688   3.419
16707WAT     H250364   5.049   5.550   3.343
16708WAT      O50365   3.393   5.571   9.264
16708WAT     H150366   3.314   5.568   9.203
16708WAT     H250367   3.445   5.486   9.257
16709WAT      O50368   6.677   9.460   0.439
16709WAT     H150369   6.605   9.525   0.413
16709WAT     H250370   6.663   9.431   0.533
16710WAT      O50371   5.820   2.875   8.112
16710WAT     H150372   5.753   2.829   8.170
16710WAT     H250373   5.775   2.942   8.055
16711WAT      O50374   7.210   0.216   1.949
16711WAT     H150375   7.212   0.187   2.044
16711WAT     H250376   7.204   0.136   1.889
16712WAT      O50377   5.134   4.976   8.840
16712WAT     H150378   5.060   5.002   8.778
16712WAT     H250379   5.095   4.955   8.930
16713WAT      O50380   8.925   1.579   5.168
16713WAT     H150381   8.979   1.556   5.087
16713WAT     H250382   8.892   1.673   5.159
16714WAT      O50383   7.536   6.130   8.198
16714WAT     H150384   7.470   6.075   8.145
16714WAT     H250385   7.621   6.137   8.146
16715WAT      O50386   4.376   9.445   1.879
16715WAT     H150387   4.357   9.357   1.835
16715WAT     H250388   4.410   9.429   1.972
16716WAT      O50389   0.434   8.351   8.339
16716WAT     H150390   0.372   8.426   8.365
16716WAT     H250391   0.457   8.359   8.242
16717WAT      O50392   0.267   4.863   0.080
16717WAT     H150393   0.187   4.861   0.020
16717WAT     H250394   0.251   4.928   0.154
16718WAT      O50395   9.657   1.905   4.293
16718WAT     H150396   9.689   1.813   4.269
16718WAT     H250397   9.706   1.972   4.237
16719WAT      O50398   3.999   4.705   2.714
16719WAT     H150399   3.962   4.613   2.721
16719WAT     H250400   3.928   4.767   2.679
16720WAT      O50401   0.764   2.276   4.007
16720WAT     H150402   0.742   2.323   3.922
16720WAT     H250403   0.715   2.189   4.011
16721WAT      O50404   7.880   2.701   8.921
16721WAT     H150405   7.928   2.648   8.991
16721WAT     H250406   7.782   2.684   8.927
16722WAT      O50407   6.873   7.764   0.188
16722WAT     H150408   6.928   7.680   0.187
16722WAT     H250409   6.930   7.841   0.160
16723WAT      O50410   4.600   2.813   2.866
16723WAT     H150411   4.528   2.749   2.893
16723WAT     H250412   4.583   2.847   2.774
16724WAT      O50413   5.930   4.164   7.363
16724WAT     H150414   5.919   4.225   7.284
16724WAT     H250415   5.856   4.096   7.362
16725WAT      O50416   6.017   8.096   1.517
16725WAT     H150417   6.104   8.077   1.473
16725WAT     H250418   6.010   8.042   1.602
16726WAT      O50419   5.865   0.703   1.991
16726WAT     H150420   5.937   0.667   2.051
16726WAT     H250421   5.867   0.652   1.904
16727WAT      O50422   4.816   5.211   8.197
16727WAT     H150423   4.797   5.145   8.269
16727WAT     H250424   4.909   5.198   8.163
16728WAT      O50425   8.724   7.182   8.915
16728WAT     H150426   8.810   7.164   8.868
16728WAT     H250427   8.698   7.278   8.902
16729WAT      O50428   0.367   2.608   6.059
16729WAT     H150429   0.296   2.674   6.082
16729WAT     H250430   0.398   2.561   6.142
16730WAT      O50431   8.197   3.616   1.547
16730WAT     H150432   8.160   3.524   1.558
16730WAT     H250433   8.186   3.646   1.452
16731WAT      O50434   3.351   8.370   2.150
16731WAT     H150435   3.404   8.450   2.121
16731WAT     H250436   3.358   8.358   2.249
16732WAT      O50437   9.614   9.413   4.732
16732WAT     H150438   9.514   9.412   4.735
16732WAT     H250439   9.649   9.347   4.799
16733WAT      O50440   1.080   2.309   6.202
16733WAT     H150441   0.988   2.295   6.238
16733WAT     H250442   1.098   2.406   6.191
16734WAT      O50443   0.712   9.124   0.495
16734WAT     H150444   0.724   9.111   0.397
16734WAT     H250445   0.682   9.037   0.536
16735WAT      O50446   7.018   9.435   7.242
16735WAT     H150447   6.992   9.492   7.320
16735WAT     H250448   7.090   9.372   7.270
16736WAT      O50449   6.822   9.452   5.065
16736WAT     H150450   6.838   9.500   5.151
16736WAT     H250451   6.796   9.517   4.994
16737WAT      O50452   3.841   3.141   4.824
16737WAT     H150453   3.843   3.121   4.727
16737WAT     H250454   3.796   3.229   4.839
16738WAT      O50455   0.721   1.210   1.934
16738WAT     H150456   0.653   1.201   2.006
16738WAT     H250457   0.775   1.126   1.929
16739WAT      O50458   0.406   1.827   7.909
16739WAT     H150459   0.429   1.847   8.004
16739WAT     H250460   0.307   1.830   7.897
16740WAT      O50461   9.435   0.067   0.498
16740WAT     H150462   9.535   0.064   0.503
16740WAT     H250463   9.398  -0.025   0.514
16741WAT      O50464   3.524   7.327   3.201
16741WAT     H150465   3.610   7.370   3.225
16741WAT     H250466   3.527   7.230   3.225
16742WAT      O50467   0.098   1.566   6.735
16742WAT     H150468   0.156   1.640   6.769
16742WAT     H250469   0.066   1.589   6.643
16743WAT      O50470   8.842   5.316   8.060
16743WAT     H150471   8.750   5.288   8.084
16743WAT     H250472   8.897   5.327   8.144
16744WAT      O50473   2.509   8.880   4.266
16744WAT     H150474   2.478   8.792   4.229
16744WAT     H250475   2.582   8.865   4.332
16745WAT      O50476   5.216   3.261   1.118
16745WAT     H150477   5.174   3.195   1.180
16745WAT     H250478   5.314   3.268   1.138
16746WAT      O50479   2.061   4.635   7.698
16746WAT     H150480   2.069   4.725   7.741
16746WAT     H250481   1.975   4.592   7.725
16747WAT      O50482   3.073   8.456   4.606
16747WAT     H150483   3.077   8.523   4.681
16747WAT     H250484   3.078   8.363   4.644
16748WAT      O50485   6.036   8.122   4.736
16748WAT     H150486   6.073   8.192   4.797
16748WAT     H250487   6.080   8.034   4.756
16749WAT      O50488   0.103   6.529   3.266
16749WAT     H150489   0.055   6.600   3.214
16749WAT     H250490   0.178   6.492   3.211
16750WAT      O50491   6.607   8.723   4.785
16750WAT     H150492   6.643   8.802   4.835
16750WAT     H250493   6.677   8.652   4.779
16751WAT      O50494   6.481   9.328   9.360
16751WAT     H150495   6.537   9.271   9.300
16751WAT     H250496   6.398   9.357   9.311
16752WAT      O50497   4.168   4.861   9.002
16752WAT     H150498   4.240   4.874   9.070
16752WAT     H250499   4.207   4.821   8.919
16753WAT      O50500   9.460   3.690   3.907
16753WAT     H150501   9.365   3.663   3.913
16753WAT     H250502   9.467   3.790   3.910
16754WAT      O50503   2.680   3.106   6.480
16754WAT     H150504   2.601   3.099   6.542
16754WAT     H250505   2.702   3.016   6.444
16755WAT      O50506   4.203   7.749   8.025
16755WAT     H150507   4.254   7.681   7.974
16755WAT     H250508   4.157   7.811   7.961
16756WAT      O50509   5.449   3.743   7.321
16756WAT     H150510   5.456   3.835   7.283
16756WAT     H250511   5.441   3.676   7.246
16757WAT      O50512   5.476   4.427   9.561
16757WAT     H150513   5.460   4.526   9.569
16757WAT     H250514   5.395   4.378   9.594
16758WAT      O50515   5.361   1.439   7.125
16758WAT     H150516   5.449   1.488   7.129
16758WAT     H250517   5.356   1.387   7.040
16759WAT      O50518   1.746   3.674   1.978
16759WAT     H150519   1.798   3.731   1.915
16759WAT     H250520   1.808   3.623   2.037
16760WAT      O50521   3.351   4.036   4.608
16760WAT     H150522   3.418   4.027   4.682
16760WAT     H250523   3.349   4.131   4.577
16761WAT      O50524   4.712   6.780   6.881
16761WAT     H150525   4.701   6.771   6.782
16761WAT     H250526   4.751   6.695   6.917
16762WAT      O50527   9.110   1.947   1.032
16762WAT     H150528   9.165   1.976   0.954
16762WAT     H250529   9.160   1.876   1.083
16763WAT      O50530   1.082   0.639   6.839
16763WAT     H150531   1.102   0.642   6.937
16763WAT     H250532   1.126   0.716   6.794
16764WAT      O50533   4.439   7.054   6.762
16764WAT     H150534   4.347   7.078   6.732
16764WAT     H250535   4.492   7.137   6.780
16765WAT      O50536   0.236   5.283   2.976
16765WAT     H150537   0.319   5.335   2.998
16765WAT     H250538   0.167   5.346   2.939
16766WAT      O50539   1.814   4.983   4.635
16766WAT     H150540   1.745   4.922   4.597
16766WAT     H250541   1.783   5.078   4.628
16767WAT      O50542   0.724   6.888   5.940
16767WAT     H150543   0.676   6.805   5.968
16767WAT     H250544   0.680   6.967   5.981
16768WAT      O50545   3.439   6.567   2.091
16768WAT     H150546   3.433   6.503   2.015
16768WAT     H250547   3.488   6.524   2.167
16769WAT      O50548   1.983   0.559   7.449
16769WAT     H150549   2.041   0.600   7.519
16769WAT     H250550   1.904   0.515   7.492
16770WAT      O50551   8.764   6.635   3.312
16770WAT     H150552   8.855   6.599   3.331
16770WAT     H250553   8.717   6.574   3.248
16771WAT      O50554   2.392   4.804   2.801
16771WAT     H150555   2.453   4.803   2.880
16771WAT     H250556   2.435   4.756   2.725
16772WAT      O50557   6.568   7.733   8.251
16772WAT     H150558   6.474   7.698   8.243
16772WAT     H250559   6.632   7.657   8.242
16773WAT      O50560   8.242   5.200   2.630
16773WAT     H150561   8.282   5.291   2.617
16773WAT     H250562   8.293   5.133   2.577
16774WAT      O50563   3.032   2.891   9.430
16774WAT     H150564   3.119   2.851   9.457
16774WAT     H250565   2.971   2.894   9.509
16775WAT      O50566   5.290   7.534   1.385
16775WAT     H150567   5.254   7.450   1.425
16775WAT     H250568   5.215   7.584   1.340
16776WAT      O50569   6.923   7.070   7.705
16776WAT     H150570   6.967   7.157   7.683
16776WAT     H250571   6.893   7.070   7.800
16777WAT      O50572   0.651   3.325   3.946
16777WAT     H150573   0.681   3.265   3.872
16777WAT     H250574   0.551   3.321   3.953
16778WAT      O50575   2.020   0.517   1.359
16778WAT     H150576   1.981   0.551   1.273
16778WAT     H250577   2.006   0.585   1.431
16779WAT      O50578   5.195   1.075   3.803
16779WAT     H150579   5.291   1.047   3.808
16779WAT     H250580   5.159   1.089   3.896
16780WAT      O50581   9.084   2.292   7.017
16780WAT     H150582   9.076   2.198   6.982
16780WAT     H250583   9.089   2.355   6.940
16781WAT      O50584   8.649   8.394   6.773
16781WAT     H150585   8.700   8.314   6.742
16781WAT     H250586   8.700   8.477   6.752
16782WAT      O50587   6.974   4.296   8.814
16782WAT     H150588   6.918   4.313   8.732
16782WAT     H250589   7.016   4.206   8.807
16783WAT      O50590   4.620   2.152   7.776
16783WAT     H150591   4.535   2.158   7.723
16783WAT     H250592   4.602   2.106   7.863
16784WAT      O50593   5.698   1.077   4.070
16784WAT     H150594   5.761   1.134   4.016
16784WAT     H250595   5.681   0.991   4.022
16785WAT      O50596   7.682   0.301   4.767
16785WAT     H150597   7.624   0.222   4.749
16785WAT     H250598   7.684   0.320   4.865
16786WAT      O50599   5.564   7.745   0.538
16786WAT     H150600   5.537   7.760   0.442
16786WAT     H250601   5.540   7.826   0.592
16787WAT      O50602   8.024   2.212   5.726
16787WAT     H150603   7.953   2.168   5.671
16787WAT     H250604   8.061   2.291   5.676
16788WAT      O50605   9.000   1.677   1.886
16788WAT     H150606   8.920   1.635   1.843
16788WAT     H250607   8.993   1.776   1.881
16789WAT      O50608   2.705   9.295   2.577
16789WAT     H150609   2.776   9.266   2.514
16789WAT     H250610   2.638   9.352   2.529
16790WAT      O50611   6.240   3.955   0.747
16790WAT     H150612   6.274   4.012   0.822
16790WAT     H250613   6.297   3.969   0.666
16791WAT      O50614   0.559   1.496   9.651
16791WAT     H150615   0.556   1.587   9.609
16791WAT     H250616   0.631   1.442   9.608
16792WAT      O50617   3.850   8.200   5.137
16792WAT     H150618   3.800   8.198   5.050
16792WAT     H250619   3.804   8.264   5.200
16793WAT      O50620   3.165   3.913   4.463
16793WAT     H150621   3.228   3.968   4.518
16793WAT     H250622   3.092   3.877   4.521
16794WAT      O50623   6.903   2.739   3.761
16794WAT     H150624   6.910   2.715   3.857
16794WAT     H250625   6.941   2.666   3.705
16795WAT      O50626   4.105   1.745   6.332
16795WAT     H150627   4.169   1.686   6.283
16795WAT     H250628   4.018   1.697   6.342
16796WAT      O50629   2.228   9.137   5.377
16796WAT     H150630   2.213   9.090   5.464
16796WAT     H250631   2.143   9.181   5.347
16797WAT      O50632   5.444   2.872   3.075
16797WAT     H150633   5.467   2.951   3.019
16797WAT     H250634   5.495   2.876   3.161
16798WAT      O50635   1.872   1.036   6.589
16798WAT     H150636   1.837   1.043   6.682
16798WAT     H250637   1.945   0.967   6.586
16799WAT      O50638   8.495   1.548   8.885
16799WAT     H150639   8.487   1.621   8.817
16799WAT     H250640   8.592   1.527   8.900
16800WAT      O50641   5.990   3.040   2.938
16800WAT     H150642   5.958   3.033   2.843
16800WAT     H250643   6.039   2.956   2.962
16801WAT      O50644   8.925   4.135   1.129
16801WAT     H150645   8.842   4.130   1.185
16801WAT     H250646   8.914   4.077   1.049
16802WAT      O50647   4.893   3.277   7.808
16802WAT     H150648   4.968   3.247   7.749
16802WAT     H250649   4.812   3.296   7.753
16803WAT      O50650   7.983   1.351   4.168
16803WAT     H150651   7.994   1.377   4.264
16803WAT     H250652   8.046   1.404   4.112
16804WAT      O50653   4.461   4.334   2.464
16804WAT     H150654   4.530   4.264   2.444
16804WAT     H250655   4.383   4.292   2.510
16805WAT      O50656   0.537   2.196   8.382
16805WAT     H150657   0.519   2.257   8.306
16805WAT     H250658   0.600   2.124   8.354
16806WAT      O50659   1.121   8.220   7.804
16806WAT     H150660   1.217   8.231   7.831
16806WAT     H250661   1.066   8.197   7.885
16807WAT      O50662   6.005   9.082   0.055
16807WAT     H150663   6.098   9.057   0.083
16807WAT     H250664   5.989   9.049  -0.038
16808WAT      O50665   1.916   8.671   9.249
16808WAT     H150666   1.821   8.702   9.243
16808WAT     H250667   1.922   8.595   9.313
16809WAT      O50668   4.326   3.210   3.036
16809WAT     H150669   4.274   3.125   3.022
16809WAT     H250670   4.385   3.226   2.957
16810WAT      O50671   8.070   4.450   1.747
16810WAT     H150672   8.152   4.466   1.691
16810WAT     H250673   7.994   4.422   1.689
16811WAT      O50674   7.915   3.359   5.830
16811WAT     H150675   7.989   3.416   5.864
16811WAT     H250676   7.939   3.262   5.842
16812WAT      O50677   3.288   8.051   6.289
16812WAT     H150678   3.368   8.107   6.263
16812WAT     H250679   3.263   7.992   6.212
16813WAT      O50680   8.437   9.120   7.522
16813WAT     H150681   8.392   9.055   7.584
16813WAT     H250682   8.406   9.213   7.543
16814WAT      O50683   8.674   9.634   8.289
16814WAT     H150684   8.599   9.646   8.225
16814WAT     H250685   8.639   9.596   8.374
16815WAT      O50686   8.292   5.895   0.533
16815WAT     H150687   8.206   5.919   0.577
16815WAT     H250688   8.294   5.932   0.440
16816WAT      O50689   3.535   5.335   8.233
16816WAT     H150690   3.596   5.403   8.276
16816WAT     H250691   3.559   5.326   8.136
16817WAT      O50692   5.412   7.550   6.025
16817WAT     H150693   5.402   7.649   6.033
16817WAT     H250694   5.507   7.525   6.045
16818WAT      O50695   5.033   9.080   1.981
16818WAT     H150696   5.087   9.060   1.900
16818WAT     H250697   5.092   9.079   2.062
16819WAT      O50698   2.825   6.881   5.120
16819WAT     H150699   2.836   6.898   5.022
16819WAT     H250700   2.742   6.927   5.152
16820WAT      O50701   3.857   5.326   3.809
16820WAT     H150702   3.890   5.400   3.751
16820WAT     H250703   3.867   5.239   3.760
16821WAT      O50704   6.629   8.068   4.295
16821WAT     H150705   6.576   8.153   4.300
16821WAT     H250706   6.598   8.014   4.216
16822WAT      O50707   2.905   0.127   2.569
16822WAT     H150708   2.832   0.059   2.579
16822WAT     H250709   2.879   0.211   2.617
16823WAT      O50710   5.938   7.007   8.098
16823WAT     H150711   6.032   7.023   8.068
16823WAT     H250712   5.902   6.925   8.052
16824WAT      O50713   0.016   3.880   7.588
16824WAT     H150714  -0.084   3.884   7.587
16824WAT     H250715   0.052   3.948   7.524
16825WAT      O50716   7.102   6.811   3.348
16825WAT     H150717   7.122   6.908   3.338
16825WAT     H250718   7.181   6.757   3.320
16826WAT      O50719   6.976   3.132   2.761
16826WAT     H150720   7.053   3.088   2.717
16826WAT     H250721   6.923   3.064   2.813
16827WAT      O50722   0.530   0.955   8.043
16827WAT     H150723   0.621   0.994   8.034
16827WAT     H250724   0.497   0.967   8.137
16828WAT      O50725   8.573   0.793   9.566
16828WAT     H150726   8.503   0.814   9.634
16828WAT     H250727   8.571   0.861   9.493
16829WAT      O50728   4.225   0.175   4.781
16829WAT     H150729   4.259   0.258   4.736
16829WAT     H250730   4.301   0.112   4.796
16830WAT      O50731   5.176   0.585   2.556
16830WAT     H150732   5.150   0.498   2.513
16830WAT     H250733   5.254   0.570   2.617
16831WAT      O50734   5.102   2.193   5.729
16831WAT     H150735   5.025   2.135   5.702
16831WAT     H250736   5.180   2.174   5.671
16832WAT      O50737   6.784   8.999   2.037
16832WAT     H150738   6.718   8.969   1.968
16832WAT     H250739   6.817   8.920   2.088
16833WAT      O50740   5.394   0.276   1.752
16833WAT     H150741   5.490   0.260   1.728
16833WAT     H250742   5.340   0.194   1.730
16834WAT      O50743   5.575   3.685   9.011
16834WAT     H150744   5.494   3.627   9.003
16834WAT     H250745   5.585   3.715   9.106
16835WAT      O50746   4.516   9.816   9.496
16835WAT     H150747   4.615   9.829   9.503
16835WAT     H250748   4.491   9.728   9.538
16836WAT      O50749   3.243   9.236   9.120
16836WAT     H150750   3.211   9.317   9.070
16836WAT     H250751   3.342   9.236   9.123
16837WAT      O50752   9.113   5.027   0.313
16837WAT     H150753   9.143   4.951   0.370
16837WAT     H250754   9.092   4.993   0.221
16838WAT      O50755   8.925   0.980   6.733
16838WAT     H150756   8.828   0.956   6.745
16838WAT     H250757   8.932   1.075   6.702
16839WAT      O50758   8.229   3.920   2.018
16839WAT     H150759   8.237   3.909   1.919
16839WAT     H250760   8.173   4.000   2.038
16840WAT      O50761   3.328   7.884   4.678
16840WAT     H150762   3.277   7.904   4.594
16840WAT     H250763   3.293   7.940   4.753
16841WAT      O50764   1.402   0.030   5.874
16841WAT     H150765   1.460   0.024   5.793
16841WAT     H250766   1.323  -0.030   5.863
16842WAT      O50767   9.660   3.539   9.688
16842WAT     H150768   9.734   3.597   9.721
16842WAT     H250769   9.582   3.596   9.662
16843WAT      O50770   1.084   2.797   7.133
16843WAT     H150771   1.117   2.891   7.131
16843WAT     H250772   1.094   2.760   7.225
16844WAT      O50773   6.109   5.701   2.977
16844WAT     H150774   6.099   5.657   2.888
16844WAT     H250775   6.072   5.641   3.048
16845WAT      O50776   6.016   7.638   1.402
16845WAT     H150777   5.975   7.703   1.337
16845WAT     H250778   6.057   7.562   1.351
16846WAT      O50779   3.753   5.160   2.383
16846WAT     H150780   3.666   5.148   2.334
16846WAT     H250781   3.813   5.219   2.330
16847WAT      O50782   4.326   5.964   6.682
16847WAT     H150783   4.298   6.046   6.731
16847WAT     H250784   4.424   5.968   6.662
16848WAT      O50785   1.307   1.006   2.284
16848WAT     H150786   1.328   1.007   2.186
16848WAT     H250787   1.263   0.920   2.308
16849WAT      O50788   2.916   1.413   0.589
16849WAT     H150789   2.914   1.492   0.528
16849WAT     H250790   3.003   1.365   0.579
16850WAT      O50791   2.737   8.006   2.900
16850WAT     H150792   2.684   7.927   2.929
16850WAT     H250793   2.676   8.071   2.853
16851WAT      O50794   5.447   7.430   4.089
16851WAT     H150795   5.409   7.361   4.149
16851WAT     H250796   5.380   7.456   4.020
16852WAT      O50797   9.082   0.077   4.714
16852WAT     H150798   9.121   0.088   4.806
16852WAT     H250799   8.988   0.110   4.714
16853WAT      O50800   4.438   8.702   1.765
16853WAT     H150801   4.444   8.777   1.699
16853WAT     H250802   4.399   8.737   1.851
16854WAT      O50803   0.592   3.480   0.692
16854WAT     H150804   0.504   3.431   0.685
16854WAT     H250805   0.662   3.428   0.643
16855WAT      O50806   2.944   6.482   2.649
16855WAT     H150807   3.001   6.561   2.672
16855WAT     H250808   2.923   6.484   2.551
16856WAT      O50809   3.688   5.989   3.786
16856WAT     H150810   3.768   5.934   3.759
16856WAT     H250811   3.697   6.013   3.883
16857WAT      O50812   9.446   0.217   3.022
16857WAT     H150813   9.534   0.233   2.977
16857WAT     H250814   9.456   0.145   3.090
16858WAT      O50815   0.035   0.902   0.041
16858WAT     H150816   0.115   0.913   0.100
16858WAT     H250817   0.049   0.953  -0.044
16859WAT      O50818   3.980   3.952   4.270
16859WAT     H150819   3.956   3.992   4.182
16859WAT     H250820   4.076   3.923   4.268
16860WAT      O50821   6.443   5.602   0.176
16860WAT     H150822   6.476   5.570   0.264
16860WAT     H250823   6.374   5.539   0.141
16861WAT      O50824   2.184   0.296   6.041
16861WAT     H150825   2.117   0.243   5.989
16861WAT     H250826   2.228   0.362   5.981
16862WAT      O50827   7.978   7.099   8.327
16862WAT     H150828   7.892   7.048   8.334
16862WAT     H250829   8.035   7.078   8.406
16863WAT      O50830   5.291   3.807   9.083
16863WAT     H150831   5.322   3.827   8.990
16863WAT     H250832   5.256   3.713   9.087
16864WAT      O50833   1.976   3.712   4.835
16864WAT     H150834   1.985   3.766   4.752
16864WAT     H250835   1.929   3.765   4.905
16865WAT      O50836   2.836   5.411   2.178
16865WAT     H150837   2.917   5.466   2.194
16865WAT     H250838   2.838   5.329   2.235
16866WAT      O50839   3.908   2.704   9.390
16866WAT     H150840   3.968   2.758   9.332
16866WAT     H250841   3.877   2.623   9.340
16867WAT      O50842   2.426   6.571   9.597
16867WAT     H150843   2.522   6.568   9.571
16867WAT     H250844   2.398   6.666   9.610
16868WAT      O50845   4.513   8.999   3.220
16868WAT     H150846   4.489   8.967   3.312
16868WAT     H250847   4.573   9.078   3.227
16869WAT      O50848   5.492   2.091   1.471
16869WAT     H150849   5.531   2.067   1.559
16869WAT     H250850   5.565   2.118   1.408
16870WAT      O50851   7.469   6.457   1.208
16870WAT     H150852   7.451   6.418   1.298
16870WAT     H250853   7.392   6.437   1.147
16871WAT      O50854   7.432   5.616   0.167
16871WAT     H150855   7.501   5.606   0.096
16871WAT     H250856   7.341   5.618   0.126
16872WAT      O50857   9.044   4.376   6.793
16872WAT     H150858   9.127   4.432   6.796
16872WAT     H250859   8.967   4.429   6.829
16873WAT      O50860   0.086   0.273   3.893
16873WAT     H150861   0.050   0.225   3.973
16873WAT     H250862   0.010   0.314   3.842
16874WAT      O50863   9.164   7.379   8.698
16874WAT     H150864   9.119   7.313   8.638
16874WAT     H250865   9.111   7.389   8.782
16875WAT      O50866   8.602   5.297   5.888
16875WAT     H150867   8.669   5.273   5.818
16875WAT     H250868   8.510   5.287   5.852
16876WAT      O50869   5.942   5.328   2.380
16876WAT     H150870   5.947   5.297   2.474
16876WAT     H250871   5.940   5.428   2.378
16877WAT      O50872   4.987   8.913   2.408
16877WAT     H150873   4.999   9.011   2.427
16877WAT     H250874   4.890   8.891   2.402
16878WAT      O50875   5.749   2.356   7.028
16878WAT     H150876   5.785   2.443   7.064
16878WAT     H250877   5.778   2.281   7.088
16879WAT      O50878   5.384   6.251   2.656
16879WAT     H150879   5.346   6.266   2.564
16879WAT     H250880   5.384   6.153   2.676
16880WAT      O50881   3.443   7.624   3.489
16880WAT     H150882   3.415   7.627   3.394
16880WAT     H250883   3.470   7.716   3.519
16881WAT      O50884   3.902   8.394   6.055
16881WAT     H150885   3.916   8.295   6.047
16881WAT     H250886   3.959   8.430   6.128
16882WAT      O50887   6.536   2.481   4.387
16882WAT     H150888   6.481   2.457   4.307
16882WAT     H250889   6.582   2.399   4.421
16883WAT      O50890   8.372   4.462   2.516
16883WAT     H150891   8.444   4.466   2.585
16883WAT     H250892   8.411   4.433   2.429
16884WAT      O50893   6.122   3.485   0.554
16884WAT     H150894   6.190   3.412   0.550
16884WAT     H250895   6.113   3.527   0.464
16885WAT      O50896   4.774   0.307   2.644
16885WAT     H150897   4.687   0.273   2.609
16885WAT     H250898   4.778   0.406   2.634
16886WAT      O50899   5.907   8.382   4.589
16886WAT     H150900   5.823   8.356   4.639
16886WAT     H250901   5.927   8.313   4.520
16887WAT      O50902   9.805   0.552   8.197
16887WAT     H150903   9.771   0.597   8.279
16887WAT     H250904   9.732   0.549   8.129
16888WAT      O50905   9.421   2.946   4.725
16888WAT     H150906   9.447   3.006   4.649
16888WAT     H250907   9.489   2.873   4.734
16889WAT      O50908   3.325   0.480   4.018
16889WAT     H150909   3.344   0.428   3.935
16889WAT     H250910   3.263   0.556   3.996
16890WAT      O50911   4.239   7.200   3.494
16890WAT     H150912   4.174   7.133   3.459
16890WAT     H250913   4.198   7.250   3.571
16891WAT      O50914   9.118   5.360   7.458
16891WAT     H150915   9.031   5.345   7.505
16891WAT     H250916   9.105   5.350   7.359
16892WAT      O50917   8.435   0.543   5.043
16892WAT     H150918   8.467   0.593   4.963
16892WAT     H250919   8.502   0.473   5.068
16893WAT      O50920   6.944   7.719   1.469
16893WAT     H150921   6.944   7.791   1.400
16893WAT     H250922   6.850   7.688   1.484
16894WAT      O50923   4.266   2.149   2.961
16894WAT     H150924   4.354   2.137   3.006
16894WAT     H250925   4.279   2.202   2.877
16895WAT      O50926   3.594   6.041   1.835
16895WAT     H150927   3.624   6.135   1.855
16895WAT     H250928   3.558   5.999   1.918
16896WAT      O50929   9.709   9.378   1.017
16896WAT     H150930   9.691   9.469   1.054
16896WAT     H250931   9.777   9.385   0.944
16897WAT      O50932   1.586   7.843   5.459
16897WAT     H150933   1.640   7.798   5.530
16897WAT     H250934   1.490   7.819   5.471
16898WAT      O50935   4.725   5.269   6.743
16898WAT     H150936   4.738   5.251   6.840
16898WAT     H250937   4.705   5.366   6.729
16899WAT      O50938   4.194   7.434   9.642
16899WAT     H150939   4.144   7.494   9.580
16899WAT     H250940   4.254   7.489   9.700
16900WAT      O50941   9.067   9.242   0.927
16900WAT     H150942   9.036   9.331   0.894
16900WAT     H250943   9.045   9.233   1.024
16901WAT      O50944   2.931   7.212   1.766
16901WAT     H150945   2.948   7.161   1.851
16901WAT     H250946   2.886   7.153   1.700
16902WAT      O50947   9.139   7.791   2.925
16902WAT     H150948   9.080   7.772   2.846
16902WAT     H250949   9.163   7.888   2.925
16903WAT      O50950   9.452   4.389   9.118
16903WAT     H150951   9.424   4.483   9.100
16903WAT     H250952   9.487   4.382   9.211
16904WAT      O50953   5.573   8.870   7.983
16904WAT     H150954   5.543   8.791   8.037
16904WAT     H250955   5.538   8.862   7.890
16905WAT      O50956   3.286   9.123   0.966
16905WAT     H150957   3.329   9.203   1.008
16905WAT     H250958   3.312   9.041   1.016
16906WAT      O50959   7.532   7.327   6.838
16906WAT     H150960   7.575   7.275   6.911
16906WAT     H250961   7.471   7.268   6.786
16907WAT      O50962   0.784   6.899   0.790
16907WAT     H150963   0.719   6.970   0.765
16907WAT     H250964   0.876   6.927   0.763
16908WAT      O50965   1.878   1.104   1.265
16908WAT     H150966   1.968   1.125   1.302
16908WAT     H250967   1.851   1.176   1.201
16909WAT      O50968   0.470   5.759   5.538
16909WAT     H150969   0.443   5.809   5.621
16909WAT     H250970   0.517   5.675   5.565
16910WAT      O50971   2.657   4.401   8.366
16910WAT     H150972   2.686   4.417   8.271
16910WAT     H250973   2.728   4.435   8.428
16911WAT      O50974   5.798   0.473   6.412
16911WAT     H150975   5.772   0.541   6.343
16911WAT     H250976   5.807   0.518   6.501
16912WAT      O50977   0.157   8.139   5.017
16912WAT     H150978   0.140   8.176   4.926
16912WAT     H250979   0.163   8.213   5.083
16913WAT      O50980   8.202   0.888   8.826
16913WAT     H150981   8.109   0.857   8.805
16913WAT     H250982   8.205   0.988   8.821
16914WAT      O50983   6.574   7.125   1.656
16914WAT     H150984   6.559   7.220   1.684
16914WAT     H250985   6.516   7.104   1.577
16915WAT      O50986   5.336   9.060   1.373
16915WAT     H150987   5.267   8.988   1.364
16915WAT     H250988   5.315   9.116   1.454
16916WAT      O50989   6.780   6.509   1.954
16916WAT     H150990   6.832   6.428   1.925
16916WAT     H250991   6.691   6.479   1.990
16917WAT      O50992   5.366   9.715   6.689
16917WAT     H150993   5.267   9.717   6.679
16917WAT     H250994   5.404   9.647   6.626
16918WAT      O50995   8.172   5.455   5.658
16918WAT     H150996   8.224   5.507   5.589
16918WAT     H250997   8.112   5.517   5.707
16919WAT      O50998   0.628   4.029   0.232
16919WAT     H150999   0.702   3.966   0.207
16919WAT     H251000   0.624   4.104   0.165
16920WAT      O51001   7.287   1.182   3.450
16920WAT     H151002   7.275   1.090   3.412
16920WAT     H251003   7.377   1.218   3.425
16921WAT      O51004   2.618   6.744   0.673
16921WAT     H151005   2.557   6.820   0.694
16921WAT     H251006   2.599   6.711   0.580
16922WAT      O51007   4.158   4.095   9.561
16922WAT     H151008   4.256   4.077   9.563
16922WAT     H251009   4.109   4.015   9.595
16923WAT      O51010   7.609   4.825   0.532
16923WAT     H151011   7.511   4.818   0.547
16923WAT     H251012   7.637   4.760   0.461
16924WAT      O51013   5.320   5.247   7.013
16924WAT     H151014   5.317   5.327   6.953
16924WAT     H251015   5.345   5.275   7.106
16925WAT      O51016   2.531   0.079   1.561
16925WAT     H151017   2.475   0.081   1.478
16925WAT     H251018   2.502   0.153   1.622
16926WAT      O51019   1.251   2.307   8.392
16926WAT     H151020   1.276   2.398   8.360
16926WAT     H251021   1.295   2.238   8.335
16927WAT      O51022   0.636   3.209   1.980
16927WAT     H151023   0.653   3.283   2.046
16927WAT     H251024   0.653   3.121   2.024
16928WAT      O51025   1.815   3.068   2.990
16928WAT     H151026   1.890   3.081   3.055
16928WAT     H251027   1.847   3.086   2.897
16929WAT      O51028   4.858   2.806   6.222
16929WAT     H151029   4.789   2.854   6.167
16929WAT     H251030   4.860   2.709   6.196
16930WAT      O51031   6.416   3.712   1.764
16930WAT     H151032   6.510   3.718   1.796
16930WAT     H251033   6.414   3.671   1.673
16931WAT      O51034   7.416   7.790   7.048
16931WAT     H151035   7.458   7.871   7.006
16931WAT     H251036   7.437   7.709   6.993
16932WAT      O51037   4.125   2.899   6.664
16932WAT     H151038   4.114   2.951   6.579
16932WAT     H251039   4.121   2.960   6.742
16933WAT      O51040   1.495   8.430   1.389
16933WAT     H151041   1.516   8.496   1.317
16933WAT     H251042   1.518   8.470   1.478
16934WAT      O51043   2.047   6.237   3.074
16934WAT     H151044   2.038   6.170   3.000
16934WAT     H251045   1.968   6.298   3.074
16935WAT      O51046   3.134   5.653   9.796
16935WAT     H151047   3.139   5.715   9.874
16935WAT     H251048   3.199   5.578   9.809
16936WAT      O51049   9.501   1.191   1.800
16936WAT     H151050   9.575   1.227   1.743
16936WAT     H251051   9.423   1.166   1.742
16937WAT      O51052   2.802   8.607   7.985
16937WAT     H151053   2.882   8.655   8.022
16937WAT     H251054   2.723   8.624   8.044
16938WAT      O51055   6.475   6.091   5.514
16938WAT     H151056   6.498   6.137   5.428
16938WAT     H251057   6.429   6.154   5.575
16939WAT      O51058   6.032   7.824   4.568
16939WAT     H151059   5.940   7.848   4.538
16939WAT     H251060   6.033   7.808   4.667
16940WAT      O51061   2.461   3.652   0.450
16940WAT     H151062   2.430   3.745   0.465
16940WAT     H251063   2.415   3.613   0.371
16941WAT      O51064   7.241   3.790   1.354
16941WAT     H151065   7.249   3.880   1.397
16941WAT     H251066   7.144   3.767   1.344
16942WAT      O51067   8.893   5.242   4.498
16942WAT     H151068   8.891   5.194   4.410
16942WAT     H251069   8.835   5.323   4.493
16943WAT      O51070   5.190   5.440   3.471
16943WAT     H151071   5.221   5.345   3.478
16943WAT     H251072   5.263   5.501   3.499
16944WAT      O51073   6.993   9.758   1.232
16944WAT     H151074   6.903   9.798   1.247
16944WAT     H251075   6.985   9.676   1.176
16945WAT      O51076   2.109   1.266   6.103
16945WAT     H151077   2.054   1.222   6.174
16945WAT     H251078   2.145   1.197   6.040
16946WAT      O51079   0.666   4.732   6.524
16946WAT     H151080   0.687   4.737   6.621
16946WAT     H251081   0.650   4.824   6.488
16947WAT      O51082   6.155   4.737   6.613
16947WAT     H151083   6.242   4.785   6.608
16947WAT     H251084   6.146   4.674   6.537
16948WAT      O51085   7.884   1.011   3.913
16948WAT     H151086   7.876   1.015   4.012
16948WAT     H251087   7.823   0.941   3.877
16949WAT      O51088   3.788   2.976   6.234
16949WAT     H151089   3.781   3.064   6.281
16949WAT     H251090   3.816   2.990   6.140
16950WAT      O51091   0.939   1.356   6.384
16950WAT     H151092   0.982   1.418   6.449
16950WAT     H251093   0.956   1.389   6.291
16951WAT      O51094   2.165   4.417   4.261
16951WAT     H151095   2.121   4.470   4.333
16951WAT     H251096   2.139   4.455   4.172
16952WAT      O51097   7.613   5.428   8.976
16952WAT     H151098   7.516   5.429   9.000
16952WAT     H251099   7.649   5.521   8.977
16953WAT      O51100   5.168   6.767   2.619
16953WAT     H151101   5.246   6.707   2.600
16953WAT     H251102   5.178   6.851   2.566
16954WAT      O51103   6.963   5.010   6.688
16954WAT     H151104   7.014   5.077   6.633
16954WAT     H251105   7.025   4.938   6.720
16955WAT      O51106   5.664   4.892   5.755
16955WAT     H151107   5.670   4.926   5.849
16955WAT     H251108   5.569   4.887   5.727
16956WAT      O51109   5.706   6.955   2.943
16956WAT     H151110   5.656   7.025   2.892
16956WAT     H251111   5.752   6.997   3.022
16957WAT      O51112   9.681   1.358   8.619
16957WAT     H151113   9.632   1.441   8.592
16957WAT     H251114   9.632   1.312   8.693
16958WAT      O51115   4.414   6.850   5.234
16958WAT     H151116   4.316   6.839   5.219
16958WAT     H251117   4.435   6.947   5.250
16959WAT      O51118   5.168   1.718   7.407
16959WAT     H151119   5.105   1.782   7.364
16959WAT     H251120   5.149   1.713   7.505
16960WAT      O51121   2.191   6.264   4.120
16960WAT     H151122   2.108   6.291   4.071
16960WAT     H251123   2.271   6.293   4.067
16961WAT      O51124   6.726   5.899   6.816
16961WAT     H151125   6.652   5.895   6.882
16961WAT     H251126   6.694   5.944   6.733
16962WAT      O51127   4.433   9.823   2.920
16962WAT     H151128   4.421   9.904   2.863
16962WAT     H251129   4.419   9.847   3.016
16963WAT      O51130   5.553   0.364   2.806
16963WAT     H151131   5.594   0.341   2.894
16963WAT     H251132   5.582   0.297   2.738
16964WAT      O51133   1.051   8.429   7.629
16964WAT     H151134   0.975   8.399   7.572
16964WAT     H251135   1.095   8.350   7.671
16965WAT      O51136   3.410   8.483   8.674
16965WAT     H151137   3.352   8.540   8.616
16965WAT     H251138   3.352   8.419   8.726
16966WAT      O51139   5.858   7.081   2.318
16966WAT     H151140   5.952   7.070   2.351
16966WAT     H251141   5.841   7.016   2.245
16967WAT      O51142   4.535   6.107   7.318
16967WAT     H151143   4.541   6.105   7.219
16967WAT     H251144   4.499   6.020   7.352
16968WAT      O51145   6.399   2.562   7.942
16968WAT     H151146   6.462   2.634   7.968
16968WAT     H251147   6.374   2.572   7.845
16969WAT      O51148   0.200   6.326   2.863
16969WAT     H151149   0.276   6.302   2.804
16969WAT     H251150   0.127   6.368   2.809
16970WAT      O51151   8.428   0.301   3.829
16970WAT     H151152   8.403   0.246   3.749
16970WAT     H251153   8.362   0.375   3.841
16971WAT      O51154   0.827   3.320   8.282
16971WAT     H151155   0.805   3.366   8.196
16971WAT     H251156   0.906   3.260   8.268
16972WAT      O51157   6.820   5.429   5.849
16972WAT     H151158   6.731   5.419   5.806
16972WAT     H251159   6.829   5.521   5.887
16973WAT      O51160   7.504   5.119   3.482
16973WAT     H151161   7.480   5.046   3.545
16973WAT     H251162   7.423   5.174   3.461
16974WAT      O51163   1.482   1.071   6.459
16974WAT     H151164   1.563   1.012   6.455
16974WAT     H251165   1.401   1.016   6.478
16975WAT      O51166   5.417   0.189   0.584
16975WAT     H151167   5.411   0.266   0.521
16975WAT     H251168   5.484   0.122   0.551
16976WAT      O51169   6.842   9.783   7.343
16976WAT     H151170   6.851   9.782   7.244
16976WAT     H251171   6.872   9.695   7.380
16977WAT      O51172   9.354   4.635   4.867
16977WAT     H151173   9.307   4.588   4.942
16977WAT     H251174   9.286   4.680   4.809
16978WAT      O51175   1.650   9.030   7.933
16978WAT     H151176   1.690   9.092   7.866
16978WAT     H251177   1.691   8.939   7.923
16979WAT      O51178   7.881   1.792   2.806
16979WAT     H151179   7.917   1.868   2.752
16979WAT     H251180   7.781   1.791   2.800
16980WAT      O51181   3.694   6.052   8.203
16980WAT     H151182   3.663   6.147   8.213
16980WAT     H251183   3.791   6.051   8.180
16981WAT      O51184   8.360   8.374   0.148
16981WAT     H151185   8.411   8.296   0.113
16981WAT     H251186   8.293   8.403   0.080
16982WAT      O51187   4.170   4.508   9.409
16982WAT     H151188   4.122   4.440   9.465
16982WAT     H251189   4.221   4.570   9.468
16983WAT      O51190   8.756   8.891   4.118
16983WAT     H151191   8.753   8.792   4.133
16983WAT     H251192   8.685   8.917   4.053
16984WAT      O51193   4.503   2.340   3.635
16984WAT     H151194   4.428   2.404   3.622
16984WAT     H251195   4.569   2.377   3.701
16985WAT      O51196   4.396   9.581   7.401
16985WAT     H151197   4.423   9.485   7.394
16985WAT     H251198   4.298   9.589   7.381
16986WAT      O51199   8.143   3.421   7.331
16986WAT     H151200   8.043   3.424   7.334
16986WAT     H251201   8.172   3.363   7.255
16987WAT      O51202   4.567   2.701   6.252
16987WAT     H151203   4.518   2.780   6.289
16987WAT     H251204   4.651   2.686   6.304
16988WAT      O51205   6.116   2.540   5.171
16988WAT     H151206   6.180   2.595   5.117
16988WAT     H251207   6.024   2.576   5.160
16989WAT      O51208   3.653   2.124   7.546
16989WAT     H151209   3.571   2.086   7.503
16989WAT     H251210   3.734   2.095   7.494
16990WAT      O51211   9.445   6.517   6.968
16990WAT     H151212   9.510   6.461   6.916
16990WAT     H251213   9.472   6.518   7.064
16991WAT      O51214   5.329   6.591   3.051
16991WAT     H151215   5.380   6.509   3.027
16991WAT     H251216   5.390   6.670   3.047
16992WAT      O51217   7.856   3.318   8.169
16992WAT     H151218   7.777   3.271   8.209
16992WAT     H251219   7.897   3.261   8.098
16993WAT      O51220   5.388   6.665   1.225
16993WAT     H151221   5.430   6.601   1.290
16993WAT     H251222   5.328   6.614   1.163
16994WAT      O51223   2.097   5.725   0.166
16994WAT     H151224   2.058   5.643   0.207
16994WAT     H251225   2.102   5.797   0.235
16995WAT      O51226   7.032   1.042   6.014
16995WAT     H151227   7.070   0.981   5.945
16995WAT     H251228   6.974   1.111   5.969
16996WAT      O51229   3.622   0.268   9.008
16996WAT     H151230   3.716   0.271   8.975
16996WAT     H251231   3.559   0.265   8.931
16997WAT      O51232   9.805   2.046   2.390
16997WAT     H151233   9.732   2.077   2.329
16997WAT     H251234   9.785   2.076   2.483
16998WAT      O51235   3.504   5.869   7.518
16998WAT     H151236   3.514   5.870   7.618
16998WAT     H251237   3.474   5.778   7.489
16999WAT      O51238   4.803   0.848   9.471
16999WAT     H151239   4.821   0.864   9.568
16999WAT     H251240   4.857   0.770   9.439
17000WAT      O51241   0.777   0.199   3.320
17000WAT     H151242   0.696   0.185   3.265
17000WAT     H251243   0.828   0.279   3.286
17001WAT      O51244   6.274   1.450   8.900
17001WAT     H151245   6.182   1.420   8.875
17001WAT     H251246   6.314   1.503   8.825
17002WAT      O51247   9.481   8.355   7.073
17002WAT     H151248   9.570   8.363   7.030
17002WAT     H251249   9.412   8.402   7.018
17003WAT      O51250   4.453   3.185   5.449
17003WAT     H151251   4.530   3.242   5.476
17003WAT     H251252   4.367   3.230   5.476
17004WAT      O51253   5.525   8.753   6.609
17004WAT     H151254   5.597   8.821   6.595
17004WAT     H251255   5.436   8.798   6.604
17005WAT      O51256   5.579   3.147   8.309
17005WAT     H151257   5.518   3.227   8.310
17005WAT     H251258   5.610   3.130   8.216
17006WAT      O51259   5.980   3.422   2.798
17006WAT     H151260   6.025   3.387   2.880
17006WAT     H251261   5.991   3.522   2.795
17007WAT      O51262   4.875   7.339   7.721
17007WAT     H151263   4.876   7.403   7.798
17007WAT     H251264   4.902   7.387   7.638
17008WAT      O51265   0.164   8.740   6.983
17008WAT     H151266   0.136   8.645   6.979
17008WAT     H251267   0.092   8.798   6.944
17009WAT      O51268   5.152   8.342   4.268
17009WAT     H151269   5.060   8.305   4.276
17009WAT     H251270   5.149   8.427   4.214
17010WAT      O51271   0.874   5.109   7.324
17010WAT     H151272   0.950   5.152   7.275
17010WAT     H251273   0.804   5.081   7.259
17011WAT      O51274   0.756   2.177   3.662
17011WAT     H151275   0.768   2.272   3.691
17011WAT     H251276   0.832   2.151   3.602
17012WAT      O51277   1.049   3.221   3.664
17012WAT     H151278   0.966   3.210   3.610
17012WAT     H251279   1.053   3.314   3.701
17013WAT      O51280   2.056   6.671   8.046
17013WAT     H151281   2.062   6.582   8.002
17013WAT     H251282   2.057   6.660   8.145
17014WAT      O51283   5.057   3.849   0.798
17014WAT     H151284   5.128   3.803   0.745
17014WAT     H251285   4.979   3.868   0.738
17015WAT      O51286   1.630   5.612   2.971
17015WAT     H151287   1.682   5.527   2.982
17015WAT     H251288   1.663   5.661   2.890
17016WAT      O51289   0.916   6.754   0.399
17016WAT     H151290   0.824   6.736   0.434
17016WAT     H251291   0.975   6.675   0.417
17017WAT      O51292   4.085   4.326   0.756
17017WAT     H151293   4.104   4.348   0.661
17017WAT     H251294   4.075   4.227   0.766
17018WAT      O51295   5.435   8.349   1.437
17018WAT     H151296   5.403   8.410   1.365
17018WAT     H251297   5.479   8.403   1.509
17019WAT      O51298   6.486   7.015   8.574
17019WAT     H151299   6.502   6.954   8.496
17019WAT     H251300   6.487   7.110   8.542
17020WAT      O51301   0.907   3.458   5.011
17020WAT     H151302   0.863   3.436   5.098
17020WAT     H251303   0.849   3.521   4.959
17021WAT      O51304   7.753   0.301   3.766
17021WAT     H151305   7.751   0.286   3.865
17021WAT     H251306   7.659   0.306   3.731
17022WAT      O51307   9.359   3.235   1.901
17022WAT     H151308   9.274   3.251   1.952
17022WAT     H251309   9.353   3.279   1.812
17023WAT      O51310   1.696   3.425   7.761
17023WAT     H151311   1.654   3.480   7.689
17023WAT     H251312   1.735   3.486   7.830
17024WAT      O51313   6.759   8.471   7.721
17024WAT     H151314   6.683   8.516   7.676
17024WAT     H251315   6.775   8.513   7.810
17025WAT      O51316   7.969   6.182   7.028
17025WAT     H151317   8.061   6.171   7.065
17025WAT     H251318   7.932   6.093   7.002
17026WAT      O51319   7.402   3.238   5.177
17026WAT     H151320   7.484   3.250   5.233
17026WAT     H251321   7.423   3.258   5.082
17027WAT      O51322   6.372   4.807   7.791
17027WAT     H151323   6.430   4.805   7.873
17027WAT     H251324   6.415   4.754   7.719
17028WAT      O51325   5.586   6.276   7.791
17028WAT     H151326   5.536   6.274   7.877
17028WAT     H251327   5.527   6.245   7.717
17029WAT      O51328   1.237   7.035   5.185
17029WAT     H151329   1.157   6.975   5.182
17029WAT     H251330   1.210   7.124   5.221
17030WAT      O51331   2.225   6.237   4.383
17030WAT     H151332   2.187   6.254   4.292
17030WAT     H251333   2.269   6.147   4.385
17031WAT      O51334   6.233   7.729   7.091
17031WAT     H151335   6.166   7.690   7.029
17031WAT     H251336   6.317   7.675   7.087
17032WAT      O51337   7.889   8.150   3.909
17032WAT     H151338   7.982   8.122   3.934
17032WAT     H251339   7.889   8.246   3.881
17033WAT      O51340   5.879   9.059   1.999
17033WAT     H151341   5.957   9.007   2.035
17033WAT     H251342   5.870   9.043   1.901
17034WAT      O51343   4.333   0.729   5.642
17034WAT     H151344   4.363   0.704   5.550
17034WAT     H251345   4.280   0.654   5.682
17035WAT      O51346   3.928   8.453   4.254
17035WAT     H151347   3.978   8.538   4.242
17035WAT     H251348   3.835   8.463   4.218
17036WAT      O51349   6.963   7.853   5.908
17036WAT     H151350   6.901   7.791   5.860
17036WAT     H251351   7.016   7.905   5.841
17037WAT      O51352   3.549   0.141   1.693
17037WAT     H151353   3.644   0.135   1.723
17037WAT     H251354   3.538   0.094   1.605
17038WAT      O51355   8.252   9.447   8.770
17038WAT     H151356   8.326   9.463   8.705
17038WAT     H251357   8.171   9.415   8.721
17039WAT      O51358   8.108   3.393   8.314
17039WAT     H151359   8.029   3.348   8.273
17039WAT     H251360   8.164   3.434   8.243
17040WAT      O51361   9.788   4.206   1.129
17040WAT     H151362   9.735   4.121   1.126
17040WAT     H251363   9.780   4.253   1.041
17041WAT      O51364   6.556   0.779   8.711
17041WAT     H151365   6.630   0.751   8.772
17041WAT     H251366   6.468   0.772   8.758
17042WAT      O51367   9.065   0.409   6.263
17042WAT     H151368   9.033   0.380   6.173
17042WAT     H251369   9.121   0.492   6.254
17043WAT      O51370   5.971   6.457   4.974
17043WAT     H151371   6.012   6.401   4.902
17043WAT     H251372   5.872   6.462   4.960
17044WAT      O51373   8.627   4.440   1.365
17044WAT     H151374   8.573   4.474   1.287
17044WAT     H251375   8.724   4.454   1.347
17045WAT      O51376   9.832   8.894   6.193
17045WAT     H151377   9.791   8.842   6.119
17045WAT     H251378   9.921   8.931   6.164
17046WAT      O51379   6.026   8.082   8.954
17046WAT     H151380   6.038   7.998   9.008
17046WAT     H251381   6.023   8.058   8.857
17047WAT      O51382   6.803   1.924   7.443
17047WAT     H151383   6.821   2.013   7.484
17047WAT     H251384   6.876   1.860   7.468
17048WAT      O51385   9.098   9.436   8.716
17048WAT     H151386   9.040   9.425   8.797
17048WAT     H251387   9.179   9.379   8.725
17049WAT      O51388   3.966   4.396   7.417
17049WAT     H151389   4.055   4.367   7.380
17049WAT     H251390   3.893   4.340   7.377
17050WAT      O51391   6.746   3.523   2.508
17050WAT     H151392   6.706   3.455   2.446
17050WAT     H251393   6.826   3.485   2.554
17051WAT      O51394   7.109   6.441   0.236
17051WAT     H151395   7.037   6.508   0.247
17051WAT     H251396   7.194   6.475   0.277
17052WAT      O51397   4.982   2.886   4.471
17052WAT     H151398   4.927   2.802   4.467
17052WAT     H251399   5.053   2.876   4.540
17053WAT      O51400   9.481   6.443   5.357
17053WAT     H151401   9.512   6.433   5.262
17053WAT     H251402   9.561   6.438   5.418
17054WAT      O51403   4.470   3.447   7.938
17054WAT     H151404   4.500   3.524   7.883
17054WAT     H251405   4.464   3.365   7.881
17055WAT      O51406   1.370   5.177   5.066
17055WAT     H151407   1.341   5.269   5.091
17055WAT     H251408   1.290   5.123   5.038
17056WAT      O51409   7.682   5.257   6.310
17056WAT     H151410   7.771   5.283   6.349
17056WAT     H251411   7.691   5.169   6.264
17057WAT      O51412   5.155   9.490   1.868
17057WAT     H151413   5.244   9.454   1.838
17057WAT     H251414   5.169   9.556   1.942
17058WAT      O51415   6.513   0.799   5.651
17058WAT     H151416   6.561   0.780   5.565
17058WAT     H251417   6.571   0.858   5.708
17059WAT      O51418   7.056   1.736   3.179
17059WAT     H151419   6.998   1.816   3.166
17059WAT     H251420   7.147   1.765   3.207
17060WAT      O51421   7.442   7.042   5.756
17060WAT     H151422   7.454   7.110   5.683
17060WAT     H251423   7.529   6.994   5.771
17061WAT      O51424   6.151   8.122   3.079
17061WAT     H151425   6.144   8.037   3.131
17061WAT     H251426   6.152   8.200   3.142
17062WAT      O51427   8.831   3.030   3.381
17062WAT     H151428   8.828   2.975   3.465
17062WAT     H251429   8.831   3.127   3.406
17063WAT      O51430   8.939   9.680   0.065
17063WAT     H151431   8.989   9.595   0.050
17063WAT     H251432   8.992   9.757   0.029
17064WAT      O51433   1.231   0.543   7.892
17064WAT     H151434   1.139   0.578   7.875
17064WAT     H251435   1.251   0.470   7.827
17065WAT      O51436   9.088   7.648   1.026
17065WAT     H151437   9.080   7.747   1.016
17065WAT     H251438   9.184   7.621   1.019
17066WAT      O51439   0.892   7.847   2.115
17066WAT     H151440   0.866   7.785   2.189
17066WAT     H251441   0.991   7.843   2.102
17067WAT      O51442   7.360   8.426   4.593
17067WAT     H151443   7.338   8.342   4.643
17067WAT     H251444   7.365   8.406   4.495
17068WAT      O51445   0.360   5.287   6.849
17068WAT     H151446   0.436   5.242   6.803
17068WAT     H251447   0.283   5.296   6.786
17069WAT      O51448   5.968   6.248   6.590
17069WAT     H151449   5.981   6.206   6.500
17069WAT     H251450   6.038   6.214   6.653
17070WAT      O51451   3.983   9.489   2.017
17070WAT     H151452   4.048   9.473   2.091
17070WAT     H251453   3.911   9.420   2.019
17071WAT      O51454   4.905   8.205   4.307
17071WAT     H151455   4.854   8.291   4.309
17071WAT     H251456   4.854   8.136   4.359
17072WAT      O51457   1.493   5.291   1.030
17072WAT     H151458   1.527   5.329   1.116
17072WAT     H251459   1.395   5.310   1.021
17073WAT      O51460   4.843   0.850   8.972
17073WAT     H151461   4.877   0.889   8.887
17073WAT     H251462   4.748   0.819   8.960
17074WAT      O51463   8.610   0.565   8.946
17074WAT     H151464   8.580   0.473   8.921
17074WAT     H251465   8.608   0.623   8.865
17075WAT      O51466   9.733   4.663   7.808
17075WAT     H151467   9.831   4.681   7.808
17075WAT     H251468   9.685   4.741   7.847
17076WAT      O51469   6.945   2.626   3.995
17076WAT     H151470   6.930   2.649   4.091
17076WAT     H251471   6.881   2.553   3.968
17077WAT      O51472   4.932   0.061   4.445
17077WAT     H151473   4.991   0.046   4.525
17077WAT     H251474   4.837   0.056   4.474
17078WAT      O51475   4.941   7.071   3.265
17078WAT     H151476   4.990   6.995   3.224
17078WAT     H251477   4.919   7.139   3.194
17079WAT      O51478   7.308   7.724   4.138
17079WAT     H151479   7.306   7.693   4.043
17079WAT     H251480   7.264   7.813   4.145
17080WAT      O51481   5.500   1.079   5.992
17080WAT     H151482   5.501   1.099   5.894
17080WAT     H251483   5.407   1.089   6.027
17081WAT      O51484   3.287   5.910   6.168
17081WAT     H151485   3.343   5.931   6.088
17081WAT     H251486   3.261   5.814   6.166
17082WAT      O51487   7.450   8.748   0.171
17082WAT     H151488   7.536   8.796   0.159
17082WAT     H251489   7.375   8.814   0.177
17083WAT      O51490   6.778   5.983   6.197
17083WAT     H151491   6.865   6.009   6.239
17083WAT     H251492   6.764   6.038   6.114
17084WAT      O51493   8.738   6.674   7.006
17084WAT     H151494   8.828   6.697   7.040
17084WAT     H251495   8.706   6.745   6.944
17085WAT      O51496   2.811   5.028   0.444
17085WAT     H151497   2.883   4.961   0.426
17085WAT     H251498   2.778   5.064   0.356
17086WAT      O51499   3.848   4.776   2.044
17086WAT     H151500   3.935   4.729   2.057
17086WAT     H251501   3.843   4.813   1.951
17087WAT      O51502   3.812   2.012   5.103
17087WAT     H151503   3.791   2.060   5.188
17087WAT     H251504   3.756   1.929   5.096
17088WAT      O51505   5.666   3.727   2.620
17088WAT     H151506   5.638   3.632   2.607
17088WAT     H251507   5.761   3.738   2.590
17089WAT      O51508   9.495   7.290   2.442
17089WAT     H151509   9.458   7.360   2.504
17089WAT     H251510   9.420   7.250   2.389
17090WAT      O51511   6.288   4.025   6.114
17090WAT     H151512   6.232   4.004   6.034
17090WAT     H251513   6.228   4.053   6.189
17091WAT      O51514   5.538   3.942   0.249
17091WAT     H151515   5.550   3.977   0.156
17091WAT     H251516   5.476   3.863   0.247
17092WAT      O51517   0.375   5.088   6.514
17092WAT     H151518   0.322   5.154   6.567
17092WAT     H251519   0.370   5.112   6.417
17093WAT      O51520   0.398   2.336   7.084
17093WAT     H151521   0.358   2.423   7.057
17093WAT     H251522   0.481   2.319   7.030
17094WAT      O51523   3.837   7.598   6.588
17094WAT     H151524   3.809   7.536   6.661
17094WAT     H251525   3.762   7.612   6.524
17095WAT      O51526   3.387   6.033   0.279
17095WAT     H151527   3.384   6.027   0.179
17095WAT     H251528   3.295   6.019   0.315
17096WAT      O51529   3.932   7.750   7.714
17096WAT     H151530   3.967   7.659   7.688
17096WAT     H251531   4.009   7.813   7.723
17097WAT      O51532   4.779   0.833   3.862
17097WAT     H151533   4.808   0.907   3.923
17097WAT     H251534   4.841   0.828   3.783
17098WAT      O51535   3.509   1.671   0.050
17098WAT     H151536   3.470   1.606  -0.016
17098WAT     H251537   3.596   1.635   0.084
17099WAT      O51538   7.891   5.023   5.513
17099WAT     H151539   7.793   5.006   5.501
17099WAT     H251540   7.913   5.115   5.479
17100WAT      O51541   6.111   3.279   8.422
17100WAT     H151542   6.048   3.208   8.454
17100WAT     H251543   6.063   3.367   8.417
17101WAT      O51544   1.982   9.720   0.468
17101WAT     H151545   1.992   9.816   0.441
17101WAT     H251546   2.057   9.667   0.428
17102WAT      O51547   5.652   8.225   1.777
17102WAT     H151548   5.576   8.271   1.731
17102WAT     H251549   5.696   8.161   1.714
17103WAT      O51550   8.482   5.480   9.583
17103WAT     H151551   8.414   5.469   9.656
17103WAT     H251552   8.452   5.433   9.501
17104WAT      O51553   1.557   5.757   3.191
17104WAT     H151554   1.493   5.721   3.259
17104WAT     H251555   1.561   5.695   3.112
17105WAT      O51556   8.023   9.007   6.190
17105WAT     H151557   8.026   8.986   6.287
17105WAT     H251558   7.954   8.949   6.145
17106WAT      O51559   5.419   5.028   6.357
17106WAT     H151560   5.509   5.005   6.393
17106WAT     H251561   5.384   5.109   6.403
17107WAT      O51562   0.101   9.075   3.087
17107WAT     H151563   0.048   9.000   3.049
17107WAT     H251564   0.098   9.153   3.025
17108WAT      O51565   4.590   3.823   2.616
17108WAT     H151566   4.594   3.760   2.694
17108WAT     H251567   4.669   3.885   2.619
17109WAT      O51568   2.087   7.018   2.500
17109WAT     H151569   2.150   7.085   2.460
17109WAT     H251570   2.098   7.017   2.599
17110WAT      O51571   4.595   3.292   5.842
17110WAT     H151572   4.690   3.322   5.833
17110WAT     H251573   4.537   3.350   5.785
17111WAT      O51574   8.090   8.469   3.712
17111WAT     H151575   8.102   8.546   3.649
17111WAT     H251576   7.993   8.462   3.737
17112WAT      O51577   7.598   4.377   6.460
17112WAT     H151578   7.573   4.434   6.539
17112WAT     H251579   7.515   4.348   6.413
17113WAT      O51580   9.603   1.064   6.560
17113WAT     H151581   9.690   1.022   6.536
17113WAT     H251582   9.531   1.029   6.500
17114WAT      O51583   1.463   5.367   5.751
17114WAT     H151584   1.518   5.316   5.686
17114WAT     H251585   1.366   5.347   5.737
17115WAT      O51586   8.932   2.868   5.654
17115WAT     H151587   8.846   2.839   5.696
17115WAT     H251588   9.009   2.833   5.708
17116WAT      O51589   2.805   7.691   8.070
17116WAT     H151590   2.904   7.705   8.061
17116WAT     H251591   2.757   7.745   8.002
17117WAT      O51592   4.186   0.105   7.314
17117WAT     H151593   4.195   0.035   7.386
17117WAT     H251594   4.202   0.063   7.225
17118WAT      O51595   5.807   4.369   8.650
17118WAT     H151596   5.771   4.427   8.577
17118WAT     H251597   5.745   4.373   8.728
17119WAT      O51598   6.260   7.213   8.948
17119WAT     H151599   6.237   7.300   8.992
17119WAT     H251600   6.177   7.158   8.938
17120WAT      O51601   8.843   3.908   3.720
17120WAT     H151602   8.928   3.855   3.726
17120WAT     H251603   8.840   3.955   3.632
17121WAT      O51604   9.198   7.023   4.201
17121WAT     H151605   9.237   7.113   4.185
17121WAT     H251606   9.104   7.019   4.167
17122WAT      O51607   0.450   2.617   4.145
17122WAT     H151608   0.423   2.537   4.198
17122WAT     H251609   0.539   2.649   4.178
17123WAT      O51610   3.597   5.304   2.783
17123WAT     H151611   3.506   5.288   2.821
17123WAT     H251612   3.599   5.275   2.687
17124WAT      O51613   3.880   4.478   2.772
17124WAT     H151614   3.917   4.437   2.855
17124WAT     H251615   3.781   4.489   2.780
17125WAT      O51616   2.119   3.111   6.063
17125WAT     H151617   2.180   3.091   5.987
17125WAT     H251618   2.104   3.210   6.068
17126WAT      O51619   7.923   4.316   5.240
17126WAT     H151620   7.965   4.396   5.197
17126WAT     H251621   7.855   4.277   5.178
17127WAT      O51622   7.760   8.416   2.592
17127WAT     H151623   7.698   8.463   2.655
17127WAT     H251624   7.855   8.429   2.622
17128WAT      O51625   6.013   0.782   1.250
17128WAT     H151626   6.092   0.731   1.216
17128WAT     H251627   6.044   0.863   1.299
17129WAT      O51628   5.952   2.139   2.171
17129WAT     H151629   5.887   2.215   2.174
17129WAT     H251630   5.959   2.097   2.261
17130WAT      O51631   5.754   5.961   8.922
17130WAT     H151632   5.812   5.907   8.983
17130WAT     H251633   5.681   6.003   8.976
17131WAT      O51634   6.652   6.015   8.499
17131WAT     H151635   6.632   6.045   8.592
17131WAT     H251636   6.627   5.919   8.488
17132WAT      O51637   4.521   0.622   1.677
17132WAT     H151638   4.521   0.552   1.606
17132WAT     H251639   4.614   0.655   1.692
17133WAT      O51640   1.322   8.740   6.696
17133WAT     H151641   1.297   8.644   6.706
17133WAT     H251642   1.420   8.752   6.712
17134WAT      O51643   6.381   9.200   7.187
17134WAT     H151644   6.344   9.147   7.264
17134WAT     H251645   6.480   9.210   7.198
17135WAT      O51646   5.930   7.465   0.033
17135WAT     H151647   5.904   7.388  -0.024
17135WAT     H251648   5.878   7.463   0.119
17136WAT      O51649   4.311   3.134   1.127
17136WAT     H151650   4.270   3.221   1.156
17136WAT     H251651   4.251   3.059   1.154
17137WAT      O51652   0.666   1.449   5.215
17137WAT     H151653   0.706   1.371   5.262
17137WAT     H251654   0.712   1.533   5.245
17138WAT      O51655   1.124   2.113   2.546
17138WAT     H151656   1.138   2.034   2.606
17138WAT     H251657   1.136   2.084   2.451
17139WAT      O51658   7.216   0.717   9.684
17139WAT     H151659   7.202   0.645   9.752
17139WAT     H251660   7.142   0.715   9.617
17140WAT      O51661   3.813   3.106   2.576
17140WAT     H151662   3.806   3.100   2.476
17140WAT     H251663   3.738   3.054   2.617
17141WAT      O51664   2.338   0.420   0.687
17141WAT     H151665   2.326   0.372   0.600
17141WAT     H251666   2.306   0.361   0.762
17142WAT      O51667   9.889   6.024   8.408
17142WAT     H151668   9.836   6.090   8.354
17142WAT     H251669   9.870   5.932   8.375
17143WAT      O51670   6.513   1.613   6.435
17143WAT     H151671   6.541   1.684   6.499
17143WAT     H251672   6.423   1.579   6.461
17144WAT      O51673   0.799   8.366   5.743
17144WAT     H151674   0.741   8.426   5.688
17144WAT     H251675   0.744   8.323   5.815
17145WAT      O51676   9.770   3.639   3.902
17145WAT     H151677   9.801   3.612   3.993
17145WAT     H251678   9.677   3.675   3.908
17146WAT      O51679   9.757   0.100   4.890
17146WAT     H151680   9.704   0.174   4.933
17146WAT     H251681   9.850   0.100   4.926
17147WAT      O51682   5.894   5.963   0.881
17147WAT     H151683   5.986   5.989   0.912
17147WAT     H251684   5.881   5.865   0.894
17148WAT      O51685   4.594   6.132   3.981
17148WAT     H151686   4.592   6.033   3.971
17148WAT     H251687   4.668   6.170   3.926
17149WAT      O51688   2.922   8.332   4.182
17149WAT     H151689   2.949   8.415   4.232
17149WAT     H251690   2.854   8.356   4.112
17150WAT      O51691   8.871   7.835   3.387
17150WAT     H151692   8.949   7.784   3.422
17150WAT     H251693   8.902   7.905   3.323
17151WAT      O51694   5.658   5.717   4.208
17151WAT     H151695   5.727   5.759   4.267
17151WAT     H251696   5.698   5.637   4.162
17152WAT      O51697   0.487   7.392   1.261
17152WAT     H151698   0.435   7.318   1.218
17152WAT     H251699   0.424   7.456   1.305
17153WAT      O51700   2.720   2.612   9.187
17153WAT     H151701   2.819   2.606   9.203
17153WAT     H251702   2.692   2.540   9.124
17154WAT      O51703   7.724   3.056   6.640
17154WAT     H151704   7.806   3.001   6.628
17154WAT     H251705   7.643   2.999   6.628
17155WAT      O51706   9.421   3.484   2.694
17155WAT     H151707   9.465   3.527   2.615
17155WAT     H251708   9.383   3.555   2.753
17156WAT      O51709   9.804   8.418   1.703
17156WAT     H151710   9.713   8.458   1.690
17156WAT     H251711   9.858   8.478   1.762
17157WAT      O51712   3.755   8.553   7.424
17157WAT     H151713   3.701   8.483   7.376
17157WAT     H251714   3.770   8.631   7.364
17158WAT      O51715   3.733   2.031   2.624
17158WAT     H151716   3.749   2.105   2.559
17158WAT     H251717   3.710   2.070   2.713
17159WAT      O51718   0.920   5.801   9.380
17159WAT     H151719   0.938   5.707   9.406
17159WAT     H251720   1.003   5.855   9.390
17160WAT      O51721   4.037   8.488   7.381
17160WAT     H151722   3.976   8.559   7.415
17160WAT     H251723   4.088   8.448   7.458
17161WAT      O51724   9.637   1.275   5.245
17161WAT     H151725   9.574   1.204   5.276
17161WAT     H251726   9.617   1.361   5.292
17162WAT      O51727   2.083   1.993   7.241
17162WAT     H151728   2.135   2.037   7.168
17162WAT     H251729   2.019   1.927   7.202
17163WAT      O51730   8.058   5.034   9.459
17163WAT     H151731   8.056   5.053   9.361
17163WAT     H251732   8.152   5.040   9.492
17164WAT      O51733   4.153   1.305   2.630
17164WAT     H151734   4.087   1.301   2.704
17164WAT     H251735   4.218   1.379   2.647
17165WAT      O51736   7.884   2.076   0.713
17165WAT     H151737   7.927   2.163   0.688
17165WAT     H251738   7.822   2.091   0.791
17166WAT      O51739   0.130   6.716   0.626
17166WAT     H151740   0.104   6.787   0.691
17166WAT     H251741   0.210   6.744   0.574
17167WAT      O51742   0.425   6.220   5.183
17167WAT     H151743   0.403   6.273   5.101
17167WAT     H251744   0.520   6.188   5.178
17168WAT      O51745   2.871   2.511   6.083
17168WAT     H151746   2.852   2.530   6.179
17168WAT     H251747   2.933   2.581   6.047
17169WAT      O51748   5.923   4.741   0.573
17169WAT     H151749   5.883   4.650   0.564
17169WAT     H251750   5.861   4.809   0.533
17170WAT      O51751   6.174   0.079   5.896
17170WAT     H151752   6.257   0.068   5.952
17170WAT     H251753   6.189   0.152   5.829
17171WAT      O51754   5.517   6.336   3.644
17171WAT     H151755   5.506   6.435   3.650
17171WAT     H251756   5.578   6.304   3.716
17172WAT      O51757   2.840   0.977   1.654
17172WAT     H151758   2.849   1.052   1.720
17172WAT     H251759   2.927   0.928   1.647
17173WAT      O51760   3.906   2.481   8.072
17173WAT     H151761   3.891   2.565   8.123
17173WAT     H251762   3.823   2.457   8.022
17174WAT      O51763   0.171   3.093   1.393
17174WAT     H151764   0.107   3.140   1.332
17174WAT     H251765   0.262   3.091   1.351
17175WAT      O51766   1.921   9.723   0.147
17175WAT     H151767   2.001   9.706   0.203
17175WAT     H251768   1.864   9.793   0.189
17176WAT      O51769   2.539   7.871   6.761
17176WAT     H151770   2.486   7.940   6.712
17176WAT     H251771   2.481   7.791   6.779
17177WAT      O51772   0.906   9.616   9.837
17177WAT     H151773   0.875   9.584   9.748
17177WAT     H251774   1.004   9.637   9.833
17178WAT      O51775   8.842   8.595   9.353
17178WAT     H151776   8.832   8.640   9.442
17178WAT     H251777   8.848   8.496   9.366
17179WAT      O51778   3.850   0.109   7.256
17179WAT     H151779   3.877   0.012   7.254
17179WAT     H251780   3.812   0.135   7.167
17180WAT      O51781   0.914   1.446   0.989
17180WAT     H151782   0.850   1.520   0.966
17180WAT     H251783   0.976   1.478   1.061
17181WAT      O51784   9.225   5.272   0.595
17181WAT     H151785   9.240   5.263   0.497
17181WAT     H251786   9.165   5.350   0.613
17182WAT      O51787   7.700   2.491   1.094
17182WAT     H151788   7.665   2.540   1.174
17182WAT     H251789   7.765   2.550   1.045
17183WAT      O51790   5.340   9.428   3.256
17183WAT     H151791   5.248   9.458   3.279
17183WAT     H251792   5.371   9.359   3.322
17184WAT      O51793   9.572   4.259   8.881
17184WAT     H151794   9.523   4.324   8.940
17184WAT     H251795   9.517   4.176   8.872
17185WAT      O51796   7.021   6.594   2.297
17185WAT     H151797   6.959   6.516   2.293
17185WAT     H251798   7.005   6.646   2.381
17186WAT      O51799   1.575   5.641   9.753
17186WAT     H151800   1.496   5.581   9.740
17186WAT     H251801   1.590   5.657   9.851
17187WAT      O51802   4.709   9.786   1.317
17187WAT     H151803   4.649   9.789   1.397
17187WAT     H251804   4.715   9.877   1.276
17188WAT      O51805   3.964   5.529   3.653
17188WAT     H151806   4.053   5.508   3.611
17188WAT     H251807   3.979   5.585   3.735
17189WAT      O51808   8.270   2.069   8.063
17189WAT     H151809   8.327   2.138   8.107
17189WAT     H251810   8.328   2.009   8.008
17190WAT      O51811   1.015   1.895   0.255
17190WAT     H151812   1.075   1.816   0.246
17190WAT     H251813   0.933   1.869   0.305
17191WAT      O51814   3.616   8.654   6.183
17191WAT     H151815   3.580   8.676   6.092
17191WAT     H251816   3.710   8.687   6.191
17192WAT      O51817   9.156   6.918   6.469
17192WAT     H151818   9.124   6.989   6.532
17192WAT     H251819   9.152   6.953   6.375
17193WAT      O51820   2.828   9.625   7.381
17193WAT     H151821   2.893   9.602   7.308
17193WAT     H251822   2.831   9.724   7.397
17194WAT      O51823   4.307   9.042   9.169
17194WAT     H151824   4.336   8.981   9.095
17194WAT     H251825   4.381   9.105   9.191
17195WAT      O51826   2.203   3.568   4.722
17195WAT     H151827   2.216   3.484   4.774
17195WAT     H251828   2.118   3.613   4.751
17196WAT      O51829   6.443   8.184   3.016
17196WAT     H151830   6.462   8.271   3.060
17196WAT     H251831   6.344   8.169   3.013
17197WAT      O51832   6.767   9.414   4.560
17197WAT     H151833   6.807   9.344   4.619
17197WAT     H251834   6.668   9.402   4.556
17198WAT      O51835   0.354   1.015   3.296
17198WAT     H151836   0.273   1.073   3.302
17198WAT     H251837   0.436   1.069   3.317
17199WAT      O51838   7.931   8.577   7.533
17199WAT     H151839   8.007   8.560   7.469
17199WAT     H251840   7.853   8.613   7.483
17200WAT      O51841   6.350   1.815   6.974
17200WAT     H151842   6.388   1.725   6.997
17200WAT     H251843   6.422   1.873   6.935
17201WAT      O51844   3.921   4.321   4.986
17201WAT     H151845   3.964   4.390   5.044
17201WAT     H251846   3.991   4.272   4.934
17202WAT      O51847   6.450   7.765   8.903
17202WAT     H151848   6.537   7.775   8.853
17202WAT     H251849   6.439   7.841   8.966
17203WAT      O51850   7.470   7.695   1.537
17203WAT     H151851   7.549   7.755   1.539
17203WAT     H251852   7.399   7.735   1.478
17204WAT      O51853   3.261   2.232   4.739
17204WAT     H151854   3.219   2.146   4.709
17204WAT     H251855   3.360   2.223   4.737
17205WAT      O51856   5.951   9.503   2.455
17205WAT     H151857   5.935   9.570   2.528
17205WAT     H251858   5.888   9.426   2.466
17206WAT      O51859   7.360   7.526   4.972
17206WAT     H151860   7.284   7.584   5.002
17206WAT     H251861   7.446   7.574   4.987
17207WAT      O51862   8.224   9.270   4.807
17207WAT     H151863   8.221   9.232   4.715
17207WAT     H251864   8.132   9.270   4.847
17208WAT      O51865   5.038   0.754   8.313
17208WAT     H151866   4.965   0.746   8.381
17208WAT     H251867   5.058   0.664   8.274
17209WAT      O51868   4.632   1.951   7.049
17209WAT     H151869   4.549   1.895   7.042
17209WAT     H251870   4.651   1.993   6.960
17210WAT      O51871   9.726   2.074   6.214
17210WAT     H151872   9.768   2.054   6.302
17210WAT     H251873   9.721   1.990   6.159
17211WAT      O51874   9.307   2.926   5.392
17211WAT     H151875   9.276   2.831   5.394
17211WAT     H251876   9.321   2.959   5.485
17212WAT      O51877   2.124   8.384   3.185
17212WAT     H151878   2.157   8.406   3.093
17212WAT     H251879   2.090   8.468   3.229
17213WAT      O51880   8.988   8.172   3.404
17213WAT     H151881   9.029   8.261   3.384
17213WAT     H251882   8.937   8.177   3.490
17214WAT      O51883   7.629   9.662   8.546
17214WAT     H151884   7.620   9.715   8.630
17214WAT     H251885   7.713   9.607   8.550
17215WAT      O51886   6.088   7.783   2.948
17215WAT     H151887   6.102   7.684   2.953
17215WAT     H251888   6.112   7.825   3.036
17216WAT      O51889   3.969   9.434   1.571
17216WAT     H151890   3.935   9.355   1.621
17216WAT     H251891   3.925   9.438   1.481
17217WAT      O51892   8.807   1.754   6.221
17217WAT     H151893   8.714   1.749   6.184
17217WAT     H251894   8.872   1.720   6.154
17218WAT      O51895   3.231   8.215   1.170
17218WAT     H151896   3.201   8.175   1.084
17218WAT     H251897   3.254   8.141   1.235
17219WAT      O51898   0.727   5.926   6.797
17219WAT     H151899   0.778   5.879   6.869
17219WAT     H251900   0.639   5.958   6.835
17220WAT      O51901   4.027   8.432   5.088
17220WAT     H151902   3.994   8.345   5.125
17220WAT     H251903   4.123   8.424   5.065
17221WAT      O51904   0.687   1.991   1.014
17221WAT     H151905   0.646   1.995   0.923
17221WAT     H251906   0.770   1.935   1.011
17222WAT      O51907   3.350   7.700   7.316
17222WAT     H151908   3.422   7.646   7.360
17222WAT     H251909   3.267   7.698   7.372
17223WAT      O51910   1.447   9.628   1.633
17223WAT     H151911   1.532   9.578   1.618
17223WAT     H251912   1.375   9.588   1.576
17224WAT      O51913   2.018   6.971   9.578
17224WAT     H151914   2.056   6.879   9.593
17224WAT     H251915   2.085   7.027   9.529
17225WAT      O51916   7.082   2.942   2.051
17225WAT     H151917   7.133   3.004   1.991
17225WAT     H251918   7.034   2.996   2.121
17226WAT      O51919   3.056   3.230   4.569
17226WAT     H151920   2.961   3.197   4.563
17226WAT     H251921   3.070   3.301   4.499
17227WAT      O51922   3.590   7.061   8.682
17227WAT     H151923   3.668   7.101   8.633
17227WAT     H251924   3.603   7.073   8.781
17228WAT      O51925   5.848   6.355   0.993
17228WAT     H151926   5.882   6.328   0.903
17228WAT     H251927   5.851   6.455   1.001
17229WAT      O51928   4.197   9.234   2.958
17229WAT     H151929   4.154   9.144   2.957
17229WAT     H251930   4.152   9.292   3.025
17230WAT      O51931   2.219   0.490   6.817
17230WAT     H151932   2.185   0.396   6.819
17230WAT     H251933   2.311   0.494   6.856
17231WAT      O51934   5.417   4.240   3.685
17231WAT     H151935   5.432   4.159   3.629
17231WAT     H251936   5.325   4.239   3.723
17232WAT      O51937   5.675   2.979   5.829
17232WAT     H151938   5.728   2.983   5.913
17232WAT     H251939   5.605   3.051   5.830
17233WAT      O51940   4.177   7.390   5.310
17233WAT     H151941   4.190   7.397   5.211
17233WAT     H251942   4.155   7.296   5.334
17234WAT      O51943   0.719   5.064   1.639
17234WAT     H151944   0.751   5.083   1.546
17234WAT     H251945   0.775   5.115   1.704
17235WAT      O51946   1.783   7.950   3.688
17235WAT     H151947   1.827   8.038   3.707
17235WAT     H251948   1.778   7.936   3.589
17236WAT      O51949   5.969   3.396   4.794
17236WAT     H151950   5.938   3.317   4.742
17236WAT     H251951   6.031   3.451   4.737
17237WAT      O51952   8.270   7.992   3.354
17237WAT     H151953   8.341   7.938   3.400
17237WAT     H251954   8.296   8.089   3.356
17238WAT      O51955   8.455   9.521   6.846
17238WAT     H151956   8.444   9.568   6.934
17238WAT     H251957   8.370   9.528   6.793
17239WAT      O51958   4.637   7.314   0.628
17239WAT     H151959   4.602   7.300   0.721
17239WAT     H251960   4.661   7.410   0.615
17240WAT      O51961   2.749   4.123   3.493
17240WAT     H151962   2.821   4.191   3.479
17240WAT     H251963   2.705   4.102   3.405
17241WAT      O51964   3.583   8.594   6.454
17241WAT     H151965   3.595   8.626   6.360
17241WAT     H251966   3.542   8.502   6.452
17242WAT      O51967   6.185   5.391   3.537
17242WAT     H151968   6.237   5.333   3.474
17242WAT     H251969   6.200   5.487   3.515
17243WAT      O51970   1.035   4.030   4.874
17243WAT     H151971   1.052   3.953   4.812
17243WAT     H251972   1.021   3.995   4.966
17244WAT      O51973   7.417   3.763   9.740
17244WAT     H151974   7.511   3.757   9.706
17244WAT     H251975   7.405   3.700   9.816
17245WAT      O51976   3.997   4.686   7.746
17245WAT     H151977   4.018   4.783   7.735
17245WAT     H251978   4.070   4.631   7.703
17246WAT      O51979   0.246   1.983   2.220
17246WAT     H151980   0.166   2.012   2.167
17246WAT     H251981   0.215   1.934   2.301
17247WAT      O51982   2.587   5.799   7.225
17247WAT     H151983   2.534   5.768   7.146
17247WAT     H251984   2.559   5.892   7.249
17248WAT      O51985   7.807   4.322   2.143
17248WAT     H151986   7.862   4.370   2.212
17248WAT     H251987   7.770   4.388   2.078
17249WAT      O51988   5.237   6.503   7.030
17249WAT     H151989   5.212   6.599   7.024
17249WAT     H251990   5.233   6.462   6.939
17250WAT      O51991   5.935   6.654   6.920
17250WAT     H151992   5.965   6.596   6.844
17250WAT     H251993   5.993   6.635   7.000
17251WAT      O51994   7.006   2.458   8.335
17251WAT     H151995   6.934   2.527   8.327
17251WAT     H251996   6.988   2.384   8.269
17252WAT      O51997   4.996   7.972   9.359
17252WAT     H151998   5.079   7.955   9.307
17252WAT     H251999   4.919   7.925   9.315
17253WAT      O52000   6.150   9.265   5.108
17253WAT     H152001   6.110   9.269   5.017
17253WAT     H252002   6.084   9.226   5.172
17254WAT      O52003   3.094   5.072   3.872
17254WAT     H152004   3.033   5.089   3.795
17254WAT     H252005   3.057   4.999   3.929
17255WAT      O52006   0.483   9.625   2.615
17255WAT     H152007   0.398   9.600   2.661
17255WAT     H252008   0.511   9.717   2.645
17256WAT      O52009   5.542   0.577   4.776
17256WAT     H152010   5.595   0.565   4.692
17256WAT     H252011   5.491   0.663   4.771
17257WAT      O52012   2.006   4.465   1.886
17257WAT     H152013   2.100   4.430   1.887
17257WAT     H252014   1.966   4.458   1.977
17258WAT      O52015   2.481   6.567   2.180
17258WAT     H152016   2.575   6.553   2.212
17258WAT     H252017   2.482   6.594   2.083
17259WAT      O52018   5.981   6.966   1.855
17259WAT     H152019   6.076   6.990   1.835
17259WAT     H252020   5.920   7.037   1.818
17260WAT      O52021   6.298   6.789   9.374
17260WAT     H152022   6.271   6.722   9.443
17260WAT     H252023   6.306   6.744   9.285
17261WAT      O52024   0.262   0.759   8.849
17261WAT     H152025   0.271   0.660   8.837
17261WAT     H252026   0.344   0.796   8.892
17262WAT      O52027   4.449   0.644   4.334
17262WAT     H152028   4.447   0.641   4.234
17262WAT     H252029   4.360   0.616   4.370
17263WAT      O52030   0.813   3.169   9.033
17263WAT     H152031   0.823   3.096   9.101
17263WAT     H252032   0.845   3.136   8.944
17264WAT      O52033   7.720   0.326   6.174
17264WAT     H152034   7.761   0.295   6.088
17264WAT     H252035   7.787   0.377   6.227
17265WAT      O52036   3.446   0.424   4.243
17265WAT     H152037   3.406   0.447   4.154
17265WAT     H252038   3.485   0.332   4.239
17266WAT      O52039   4.128   8.494   0.635
17266WAT     H152040   4.149   8.560   0.707
17266WAT     H252041   4.126   8.541   0.547
17267WAT      O52042   0.194   6.573   1.094
17267WAT     H152043   0.204   6.556   0.996
17267WAT     H252044   0.136   6.653   1.109
17268WAT      O52045   2.295   5.021   3.623
17268WAT     H152046   2.337   4.973   3.545
17268WAT     H252047   2.364   5.036   3.693
17269WAT      O52048   3.148   9.506   9.255
17269WAT     H152049   3.211   9.557   9.314
17269WAT     H252050   3.186   9.500   9.163
17270WAT      O52051   5.834   3.112   0.747
17270WAT     H152052   5.930   3.084   0.749
17270WAT     H252053   5.780   3.041   0.701
17271WAT      O52054   9.133   1.122   3.318
17271WAT     H152055   9.182   1.035   3.313
17271WAT     H252056   9.199   1.196   3.332
17272WAT      O52057   4.032   2.034   2.713
17272WAT     H152058   4.077   2.120   2.736
17272WAT     H252059   3.934   2.049   2.702
17273WAT      O52060   3.690   2.559   3.669
17273WAT     H152061   3.671   2.611   3.586
17273WAT     H252062   3.772   2.504   3.656
17274WAT      O52063   9.813   3.119   1.881
17274WAT     H152064   9.902   3.143   1.919
17274WAT     H252065   9.745   3.186   1.909
17275WAT      O52066   1.690   7.756   3.053
17275WAT     H152067   1.696   7.856   3.053
17275WAT     H252068   1.632   7.726   3.128
17276WAT      O52069   0.638   7.475   3.715
17276WAT     H152070   0.610   7.506   3.624
17276WAT     H252071   0.638   7.375   3.717
17277WAT      O52072   3.627   6.734   3.352
17277WAT     H152073   3.554   6.778   3.301
17277WAT     H252074   3.603   6.639   3.369
17278WAT      O52075   6.326   9.404   5.604
17278WAT     H152076   6.380   9.424   5.686
17278WAT     H252077   6.341   9.309   5.577
17279WAT      O52078   5.107   4.893   3.768
17279WAT     H152079   5.110   4.911   3.866
17279WAT     H252080   5.013   4.904   3.735
17280WAT      O52081   8.540   8.320   6.514
17280WAT     H152082   8.499   8.318   6.605
17280WAT     H252083   8.552   8.416   6.485
17281WAT      O52084   4.355   8.269   1.906
17281WAT     H152085   4.438   8.215   1.888
17281WAT     H252086   4.278   8.228   1.858
17282WAT      O52087   4.684   6.683   1.735
17282WAT     H152088   4.744   6.611   1.770
17282WAT     H252089   4.668   6.751   1.806
17283WAT      O52090   5.994   5.691   2.503
17283WAT     H152091   6.036   5.741   2.427
17283WAT     H252092   6.065   5.644   2.556
17284WAT      O52093   4.656   6.556   1.238
17284WAT     H152094   4.642   6.467   1.281
17284WAT     H252095   4.655   6.546   1.138
17285WAT      O52096   4.392   7.213   4.213
17285WAT     H152097   4.441   7.299   4.197
17285WAT     H252098   4.427   7.170   4.296
17286WAT      O52099   7.979   6.941   0.823
17286WAT     H152100   7.951   6.872   0.756
17286WAT     H252101   7.960   7.032   0.786
17287WAT      O52102   8.306   2.555   6.266
17287WAT     H152103   8.327   2.519   6.357
17287WAT     H252104   8.220   2.606   6.269
17288WAT      O52105   6.215   0.127   0.737
17288WAT     H152106   6.217   0.028   0.728
17288WAT     H252107   6.196   0.152   0.832
17289WAT      O52108   3.909   8.131   8.589
17289WAT     H152109   3.868   8.046   8.621
17289WAT     H252110   3.946   8.182   8.666
17290WAT      O52111   3.367   5.470   3.058
17290WAT     H152112   3.337   5.482   2.963
17290WAT     H252113   3.466   5.457   3.059
17291WAT      O52114   1.016  -0.001   7.173
17291WAT     H152115   1.021   0.081   7.116
17291WAT     H252116   1.104  -0.049   7.171
17292WAT      O52117   6.026   9.315   8.318
17292WAT     H152118   6.061   9.352   8.404
17292WAT     H252119   6.032   9.215   8.319
17293WAT      O52120   5.692   5.351   4.776
17293WAT     H152121   5.609   5.406   4.784
17293WAT     H252122   5.754   5.374   4.851
17294WAT      O52123   0.880   6.524   5.554
17294WAT     H152124   0.881   6.575   5.641
17294WAT     H252125   0.799   6.550   5.502
17295WAT      O52126   4.766   8.073   5.475
17295WAT     H152127   4.733   8.038   5.563
17295WAT     H252128   4.742   8.008   5.403
17296WAT      O52129   4.903   7.384   0.948
17296WAT     H152130   4.822   7.338   0.913
17296WAT     H252131   4.885   7.482   0.954
17297WAT      O52132   8.205   7.150   0.080
17297WAT     H152133   8.282   7.200   0.041
17297WAT     H252134   8.229   7.115   0.170
17298WAT      O52135   1.931   9.011   2.643
17298WAT     H152136   1.904   8.984   2.736
17298WAT     H252137   1.849   9.036   2.591
17299WAT      O52138   8.295   0.140   8.977
17299WAT     H152139   8.293   0.190   9.063
17299WAT     H252140   8.208   0.091   8.964
17300WAT      O52141   8.626   6.740   9.714
17300WAT     H152142   8.696   6.684   9.671
17300WAT     H252143   8.627   6.832   9.673
17301WAT      O52144   6.174   7.084   5.932
17301WAT     H152145   6.126   7.081   5.844
17301WAT     H252146   6.264   7.124   5.919
17302WAT      O52147   0.324   5.656   3.714
17302WAT     H152148   0.334   5.724   3.787
17302WAT     H252149   0.304   5.702   3.628
17303WAT      O52150   4.421   0.544   1.277
17303WAT     H152151   4.342   0.492   1.245
17303WAT     H252152   4.504   0.511   1.232
17304WAT      O52153   6.848   0.799   9.605
17304WAT     H152154   6.886   0.707   9.617
17304WAT     H252155   6.875   0.835   9.516
17305WAT      O52156   3.916   0.128   6.832
17305WAT     H152157   3.930   0.206   6.772
17305WAT     H252158   3.855   0.154   6.907
17306WAT      O52159   3.936   3.346   4.604
17306WAT     H152160   3.880   3.380   4.529
17306WAT     H252161   3.999   3.276   4.569
17307WAT      O52162   1.164   3.587   7.962
17307WAT     H152163   1.084   3.632   7.923
17307WAT     H252164   1.227   3.561   7.889
17308WAT      O52165   3.058   1.373   2.876
17308WAT     H152166   3.007   1.411   2.799
17308WAT     H252167   3.081   1.278   2.857
17309WAT      O52168   3.186   7.155   5.298
17309WAT     H152169   3.115   7.180   5.363
17309WAT     H252170   3.164   7.067   5.256
17310WAT      O52171   2.950   0.185   8.737
17310WAT     H152172   2.890   0.185   8.817
17310WAT     H252173   3.041   0.218   8.763
17311WAT      O52174   5.697   5.042   6.469
17311WAT     H152175   5.760   5.108   6.510
17311WAT     H252176   5.688   4.963   6.530
17312WAT      O52177   1.241   7.522   8.312
17312WAT     H152178   1.257   7.428   8.342
17312WAT     H252179   1.324   7.559   8.272
17313WAT      O52180   3.647   8.984   7.209
17313WAT     H152181   3.578   9.014   7.275
17313WAT     H252182   3.727   8.949   7.258
17314WAT      O52183   3.042   3.167   0.175
17314WAT     H152184   3.046   3.073   0.143
17314WAT     H252185   3.134   3.208   0.168
17315WAT      O52186   9.632   3.561   1.928
17315WAT     H152187   9.656   3.466   1.948
17315WAT     H252188   9.713   3.619   1.938
17316WAT      O52189   8.592   6.657   6.654
17316WAT     H152190   8.509   6.641   6.706
17316WAT     H252191   8.568   6.687   6.561
17317WAT      O52192   7.872   1.042   0.049
17317WAT     H152193   7.924   1.101   0.112
17317WAT     H252194   7.844   0.959   0.097
17318WAT      O52195   5.517   8.106   6.568
17318WAT     H152196   5.499   8.025   6.624
17318WAT     H252197   5.604   8.095   6.520
17319WAT      O52198   5.236   1.182   8.182
17319WAT     H152199   5.214   1.105   8.243
17319WAT     H252200   5.160   1.200   8.121
17320WAT      O52201   3.132   5.928   0.369
17320WAT     H152202   3.115   5.888   0.460
17320WAT     H252203   3.044   5.949   0.326
17321WAT      O52204   9.651   0.846   4.680
17321WAT     H152205   9.675   0.749   4.676
17321WAT     H252206   9.623   0.870   4.773
17322WAT      O52207   5.625   0.592   9.863
17322WAT     H152208   5.700   0.527   9.875
17322WAT     H252209   5.617   0.649   9.945
17323WAT      O52210   1.411   0.198   1.103
17323WAT     H152211   1.319   0.164   1.087
17323WAT     H252212   1.444   0.165   1.192
17324WAT      O52213   5.430   1.814   3.923
17324WAT     H152214   5.349   1.843   3.873
17324WAT     H252215   5.481   1.747   3.869
17325WAT      O52216   2.567   1.912   4.497
17325WAT     H152217   2.573   1.921   4.397
17325WAT     H252218   2.643   1.857   4.530
17326WAT      O52219   7.026   5.766   7.138
17326WAT     H152220   6.970   5.814   7.205
17326WAT     H252221   6.983   5.679   7.113
17327WAT      O52222   5.495   6.797   3.043
17327WAT     H152223   5.581   6.830   3.004
17327WAT     H252224   5.472   6.849   3.125
17328WAT      O52225   1.819   0.820   3.668
17328WAT     H152226   1.741   0.878   3.648
17328WAT     H252227   1.797   0.760   3.746
17329WAT      O52228   1.982   7.674   1.339
17329WAT     H152229   2.071   7.629   1.336
17329WAT     H252230   1.935   7.650   1.424
17330WAT      O52231   2.242   6.188   1.097
17330WAT     H152232   2.213   6.117   1.161
17330WAT     H252233   2.334   6.166   1.063
17331WAT      O52234   9.337   2.441   5.919
17331WAT     H152235   9.350   2.453   5.820
17331WAT     H252236   9.241   2.425   5.939
17332WAT      O52237   9.588   9.336   6.527
17332WAT     H152238   9.508   9.324   6.468
17332WAT     H252239   9.671   9.310   6.476
17333WAT      O52240   1.283   6.926   6.704
17333WAT     H152241   1.190   6.892   6.698
17333WAT     H252242   1.307   6.973   6.619
17334WAT      O52243   8.776   1.000   5.362
17334WAT     H152244   8.713   0.922   5.363
17334WAT     H252245   8.804   1.021   5.456
17335WAT      O52246   0.001   0.332   0.571
17335WAT     H152247   0.029   0.292   0.483
17335WAT     H252248  -0.033   0.260   0.631
17336WAT      O52249   4.201   9.662   2.186
17336WAT     H152250   4.213   9.563   2.183
17336WAT     H252251   4.262   9.705   2.119
17337WAT      O52252   3.054   0.973   5.171
17337WAT     H152253   3.116   0.906   5.130
17337WAT     H252254   3.102   1.059   5.184
17338WAT      O52255   1.426   1.107   2.984
17338WAT     H152256   1.481   1.141   3.060
17338WAT     H252257   1.453   1.013   2.963
17339WAT      O52258   8.512   7.464   0.008
17339WAT     H152259   8.500   7.432   0.102
17339WAT     H252260   8.455   7.410  -0.054
17340WAT      O52261   4.919   8.915   1.483
17340WAT     H152262   4.878   8.845   1.542
17340WAT     H252263   4.993   8.874   1.430
17341WAT      O52264   2.841   7.008   4.401
17341WAT     H152265   2.778   6.963   4.337
17341WAT     H252266   2.844   6.954   4.486
17342WAT      O52267   6.017   4.306   5.599
17342WAT     H152268   6.095   4.275   5.545
17342WAT     H252269   5.955   4.359   5.542
17343WAT      O52270   7.780   2.992   2.695
17343WAT     H152271   7.873   2.983   2.657
17343WAT     H252272   7.786   3.006   2.794
17344WAT      O52273   4.413   7.529   5.384
17344WAT     H152274   4.419   7.550   5.481
17344WAT     H252275   4.340   7.463   5.368
17345WAT      O52276   3.528   6.169   1.504
17345WAT     H152277   3.452   6.222   1.541
17345WAT     H252278   3.518   6.073   1.529
17346WAT      O52279   9.775   5.098   5.282
17346WAT     H152280   9.763   5.084   5.184
17346WAT     H252281   9.759   5.194   5.304
17347WAT      O52282   7.672   3.481   5.983
17347WAT     H152283   7.750   3.437   5.939
17347WAT     H252284   7.693   3.496   6.080
17348WAT      O52285   1.172   5.521   0.025
17348WAT     H152286   1.085   5.481  -0.002
17348WAT     H252287   1.192   5.599  -0.034
17349WAT      O52288   2.448   8.850   3.564
17349WAT     H152289   2.514   8.871   3.491
17349WAT     H252290   2.482   8.773   3.618
17350WAT      O52291   7.145   0.517   5.658
17350WAT     H152292   7.128   0.583   5.731
17350WAT     H252293   7.068   0.519   5.593
17351WAT      O52294   2.278   1.761   6.772
17351WAT     H152295   2.250   1.688   6.710
17351WAT     H252296   2.236   1.847   6.743
17352WAT      O52297   7.975   2.816   0.214
17352WAT     H152298   7.908   2.817   0.140
17352WAT     H252299   7.966   2.730   0.265
17353WAT      O52300   4.973   0.588   7.315
17353WAT     H152301   5.047   0.655   7.324
17353WAT     H252302   5.006   0.510   7.262
17354WAT      O52303   7.336   8.744   1.066
17354WAT     H152304   7.241   8.751   1.036
17354WAT     H252305   7.357   8.818   1.130
17355WAT      O52306   2.660   8.526   4.156
17355WAT     H152307   2.715   8.604   4.126
17355WAT     H252308   2.654   8.460   4.081
17356WAT      O52309   5.112   4.745   8.107
17356WAT     H152310   5.188   4.808   8.119
17356WAT     H252311   5.103   4.687   8.188
17357WAT      O52312   7.924   3.102   4.476
17357WAT     H152313   7.828   3.093   4.452
17357WAT     H252314   7.980   3.094   4.394
17358WAT      O52315   3.926   8.374   3.605
17358WAT     H152316   3.960   8.285   3.635
17358WAT     H252317   3.953   8.445   3.671
17359WAT      O52318   2.338   4.435   3.119
17359WAT     H152319   2.364   4.498   3.046
17359WAT     H252320   2.276   4.365   3.083
17360WAT      O52321   3.497   7.442   1.840
17360WAT     H152322   3.426   7.511   1.854
17360WAT     H252323   3.554   7.468   1.763
17361WAT      O52324   6.317   9.751   8.844
17361WAT     H152325   6.394   9.809   8.868
17361WAT     H252326   6.286   9.773   8.752
17362WAT      O52327   8.476   9.654   5.906
17362WAT     H152328   8.397   9.694   5.953
17362WAT     H252329   8.458   9.652   5.808
17363WAT      O52330   7.527   0.031   7.478
17363WAT     H152331   7.462   0.105   7.488
17363WAT     H252332   7.543   0.013   7.381
17364WAT      O52333   9.835   2.749   7.286
17364WAT     H152334   9.765   2.694   7.241
17364WAT     H252335   9.925   2.708   7.270
17365WAT      O52336   2.461   8.591   0.507
17365WAT     H152337   2.521   8.633   0.574
17365WAT     H252338   2.499   8.503   0.478
17366WAT      O52339   9.333   3.569   9.112
17366WAT     H152340   9.261   3.569   9.042
17366WAT     H252341   9.401   3.499   9.089
17367WAT      O52342   2.154   0.601   7.066
17367WAT     H152343   2.179   0.564   6.977
17367WAT     H252344   2.212   0.680   7.087
17368WAT      O52345   6.936   2.725   4.250
17368WAT     H152346   6.849   2.770   4.233
17368WAT     H252347   7.010   2.793   4.245
17369WAT      O52348   5.268   9.342   5.778
17369WAT     H152349   5.321   9.257   5.768
17369WAT     H252350   5.331   9.418   5.793
17370WAT      O52351   2.301   3.581   2.397
17370WAT     H152352   2.399   3.603   2.394
17370WAT     H252353   2.275   3.557   2.490
17371WAT      O52354   1.556   3.565   0.370
17371WAT     H152355   1.496   3.645   0.381
17371WAT     H252356   1.504   3.488   0.336
17372WAT      O52357   5.387   6.358   4.508
17372WAT     H152358   5.382   6.435   4.571
17372WAT     H252359   5.471   6.363   4.454
17373WAT      O52360   9.641   1.855   2.578
17373WAT     H152361   9.718   1.790   2.581
17373WAT     H252362   9.673   1.945   2.607
17374WAT      O52363   3.432   9.305   9.571
17374WAT     H152364   3.388   9.230   9.522
17374WAT     H252365   3.466   9.372   9.505
17375WAT      O52366   0.671   7.012   8.738
17375WAT     H152367   0.587   7.006   8.793
17375WAT     H252368   0.721   7.094   8.764
17376WAT      O52369   3.204   0.023   1.348
17376WAT     H152370   3.162  -0.060   1.384
17376WAT     H252371   3.153   0.103   1.380
17377WAT      O52372   8.886   3.609   2.411
17377WAT     H152373   8.954   3.667   2.366
17377WAT     H252374   8.801   3.660   2.422
17378WAT      O52375   5.813   5.545   6.028
17378WAT     H152376   5.730   5.506   6.068
17378WAT     H252377   5.894   5.504   6.070
17379WAT      O52378   2.203   7.487   7.244
17379WAT     H152379   2.158   7.513   7.159
17379WAT     H252380   2.141   7.499   7.321
17380WAT      O52381   0.742   7.386   1.489
17380WAT     H152382   0.736   7.345   1.398
17380WAT     H252383   0.820   7.448   1.493
17381WAT      O52384   7.037   8.009   8.466
17381WAT     H152385   7.036   7.910   8.451
17381WAT     H252386   7.019   8.055   8.379
17382WAT      O52387   8.767   9.171   9.399
17382WAT     H152388   8.761   9.117   9.482
17382WAT     H252389   8.678   9.172   9.352
17383WAT      O52390   7.322   4.392   5.603
17383WAT     H152391   7.253   4.327   5.634
17383WAT     H252392   7.281   4.483   5.594
17384WAT      O52393   2.978   5.396   0.554
17384WAT     H152394   3.044   5.464   0.585
17384WAT     H252395   2.887   5.420   0.590
17385WAT      O52396   7.812   0.091   2.549
17385WAT     H152397   7.889   0.044   2.506
17385WAT     H252398   7.748   0.024   2.585
17386WAT      O52399   7.008   5.532   4.737
17386WAT     H152400   6.965   5.442   4.732
17386WAT     H252401   7.080   5.531   4.807
17387WAT      O52402   6.246   0.207   9.869
17387WAT     H152403   6.183   0.279   9.840
17387WAT     H252404   6.326   0.249   9.912
17388WAT      O52405   5.693   7.325   4.444
17388WAT     H152406   5.760   7.378   4.392
17388WAT     H252407   5.622   7.386   4.478
17389WAT      O52408   4.142   4.364   4.137
17389WAT     H152409   4.151   4.463   4.144
17389WAT     H252410   4.079   4.342   4.063
17390WAT      O52411   6.478   2.515   3.847
17390WAT     H152412   6.517   2.576   3.778
17390WAT     H252413   6.544   2.444   3.871
17391WAT      O52414   7.585   8.050   1.792
17391WAT     H152415   7.490   8.059   1.763
17391WAT     H252416   7.620   8.138   1.824
17392WAT      O52417   5.747   5.661   9.369
17392WAT     H152418   5.809   5.740   9.371
17392WAT     H252419   5.766   5.602   9.448
17393WAT      O52420   2.947   8.050   2.718
17393WAT     H152421   2.966   7.952   2.708
17393WAT     H252422   2.877   8.064   2.787
17394WAT      O52423   0.017   5.824   3.768
17394WAT     H152424   0.032   5.742   3.713
17394WAT     H252425   0.103   5.851   3.812
17395WAT      O52426   1.410   8.775   5.677
17395WAT     H152427   1.503   8.743   5.694
17395WAT     H252428   1.366   8.800   5.763
17396WAT      O52429   1.290   4.280   5.318
17396WAT     H152430   1.239   4.262   5.234
17396WAT     H252431   1.380   4.316   5.296
17397WAT      O52432   9.640   4.145   4.032
17397WAT     H152433   9.700   4.091   4.090
17397WAT     H252434   9.687   4.229   4.005
17398WAT      O52435   2.313   2.615   2.593
17398WAT     H152436   2.245   2.665   2.539
17398WAT     H252437   2.373   2.564   2.532
17399WAT      O52438   3.192   4.299   4.950
17399WAT     H152439   3.224   4.235   5.019
17399WAT     H252440   3.207   4.393   4.982
17400WAT      O52441   0.836   3.714   6.521
17400WAT     H152442   0.879   3.625   6.535
17400WAT     H252443   0.823   3.730   6.423
17401WAT      O52444   0.901   0.982   1.168
17401WAT     H152445   0.806   1.004   1.144
17401WAT     H252446   0.962   1.046   1.122
17402WAT      O52447   1.691   9.047   1.366
17402WAT     H152448   1.649   9.133   1.396
17402WAT     H252449   1.682   9.037   1.267
17403WAT      O52450   8.713   8.331   0.181
17403WAT     H152451   8.656   8.300   0.105
17403WAT     H252452   8.759   8.416   0.156
17404WAT      O52453   4.376   4.936   1.234
17404WAT     H152454   4.294   4.945   1.178
17404WAT     H252455   4.449   4.992   1.196
17405WAT      O52456   5.340   9.004   2.860
17405WAT     H152457   5.262   8.967   2.808
17405WAT     H252458   5.307   9.078   2.919
17406WAT      O52459   4.548   2.279   6.865
17406WAT     H152460   4.494   2.197   6.884
17406WAT     H252461   4.497   2.338   6.802
17407WAT      O52462   8.364   2.553   5.716
17407WAT     H152463   8.400   2.582   5.804
17407WAT     H252464   8.431   2.570   5.644
17408WAT      O52465   9.495   8.928   8.691
17408WAT     H152466   9.543   8.855   8.739
17408WAT     H252467   9.542   9.015   8.706
17409WAT      O52468   6.290   5.183   2.234
17409WAT     H152469   6.213   5.180   2.170
17409WAT     H252470   6.352   5.258   2.209
17410WAT      O52471   1.067   9.391   7.806
17410WAT     H152472   1.131   9.437   7.745
17410WAT     H252473   1.087   9.416   7.900
17411WAT      O52474   6.200   0.909   4.213
17411WAT     H152475   6.220   0.858   4.130
17411WAT     H252476   6.165   0.846   4.283
17412WAT      O52477   7.943   8.912   0.983
17412WAT     H152478   7.968   9.002   1.018
17412WAT     H252479   7.856   8.884   1.023
17413WAT      O52480   2.671   8.364   3.927
17413WAT     H152481   2.666   8.420   3.844
17413WAT     H252482   2.645   8.270   3.905
17414WAT      O52483   0.443   6.913   0.696
17414WAT     H152484   0.461   6.836   0.758
17414WAT     H252485   0.454   6.884   0.601
17415WAT      O52486   4.145   8.437   7.624
17415WAT     H152487   4.223   8.385   7.591
17415WAT     H252488   4.116   8.401   7.713
17416WAT      O52489   1.146   4.391   0.679
17416WAT     H152490   1.216   4.397   0.750
17416WAT     H252491   1.055   4.390   0.721
17417WAT      O52492   9.076   9.131   0.150
17417WAT     H152493   9.172   9.123   0.124
17417WAT     H252494   9.068   9.184   0.234
17418WAT      O52495   8.335   2.983   5.336
17418WAT     H152496   8.351   2.945   5.245
17418WAT     H252497   8.382   2.927   5.404
17419WAT      O52498   1.972   9.226   2.073
17419WAT     H152499   1.982   9.214   1.974
17419WAT     H252500   2.039   9.293   2.106
17420WAT      O52501   7.688   4.813   6.965
17420WAT     H152502   7.732   4.730   6.999
17420WAT     H252503   7.654   4.796   6.872
17421WAT      O52504   6.750   0.585   9.375
17421WAT     H152505   6.666   0.579   9.320
17421WAT     H252506   6.754   0.506   9.437
17422WAT      O52507   9.281   0.340   4.103
17422WAT     H152508   9.273   0.294   4.191
17422WAT     H252509   9.250   0.434   4.112
17423WAT      O52510   5.610   6.141   0.781
17423WAT     H152511   5.606   6.235   0.816
17423WAT     H252512   5.635   6.079   0.855
17424WAT      O52513   6.670   1.445   3.719
17424WAT     H152514   6.764   1.468   3.743
17424WAT     H252515   6.607   1.483   3.787
17425WAT      O52516   6.923   6.495   9.397
17425WAT     H152517   6.978   6.427   9.446
17425WAT     H252518   6.828   6.464   9.391
17426WAT      O52519   2.763   5.263   1.901
17426WAT     H152520   2.813   5.315   1.970
17426WAT     H252521   2.818   5.255   1.818
17427WAT      O52522   3.072   9.572   4.597
17427WAT     H152523   3.023   9.532   4.520
17427WAT     H252524   3.013   9.571   4.678
17428WAT      O52525   1.580   7.428   8.460
17428WAT     H152526   1.504   7.433   8.524
17428WAT     H252527   1.643   7.357   8.489
17429WAT      O52528   4.358   0.258   2.185
17429WAT     H152529   4.312   0.345   2.203
17429WAT     H252530   4.290   0.191   2.153
17430WAT      O52531   1.083   7.277   0.172
17430WAT     H152532   0.997   7.239   0.207
17430WAT     H252533   1.160   7.234   0.219
17431WAT      O52534   4.859   4.800   6.815
17431WAT     H152535   4.777   4.822   6.762
17431WAT     H252536   4.834   4.779   6.909
17432WAT      O52537   4.112   3.620   4.153
17432WAT     H152538   4.058   3.544   4.189
17432WAT     H252539   4.081   3.642   4.061
17433WAT      O52540   2.395   6.787   7.410
17433WAT     H152541   2.315   6.728   7.401
17433WAT     H252542   2.378   6.874   7.362
17434WAT      O52543   6.860   4.215   1.314
17434WAT     H152544   6.903   4.213   1.224
17434WAT     H252545   6.839   4.121   1.343
17435WAT      O52546   4.343   2.664   3.766
17435WAT     H152547   4.330   2.758   3.732
17435WAT     H252548   4.326   2.599   3.692
17436WAT      O52549   8.527   8.930   7.868
17436WAT     H152550   8.557   8.931   7.964
17436WAT     H252551   8.606   8.916   7.809
17437WAT      O52552   6.451   3.435   8.094
17437WAT     H152553   6.397   3.515   8.066
17437WAT     H252554   6.397   3.377   8.154
17438WAT      O52555   3.710   6.395   4.096
17438WAT     H152556   3.734   6.472   4.155
17438WAT     H252557   3.758   6.313   4.129
17439WAT      O52558   3.860   6.704   3.221
17439WAT     H152559   3.892   6.635   3.285
17439WAT     H252560   3.768   6.733   3.247
17440WAT      O52561   0.442   7.700   2.079
17440WAT     H152562   0.522   7.671   2.027
17440WAT     H252563   0.417   7.793   2.053
17441WAT      O52564   9.657   4.120   4.489
17441WAT     H152565   9.627   4.059   4.416
17441WAT     H252566   9.583   4.184   4.512
17442WAT      O52567   6.584   9.822   8.818
17442WAT     H152568   6.607   9.757   8.746
17442WAT     H252569   6.623   9.911   8.796
17443WAT      O52570   0.379   4.931   3.379
17443WAT     H152571   0.352   4.977   3.294
17443WAT     H252572   0.444   4.858   3.359
17444WAT      O52573   8.317   9.127   9.558
17444WAT     H152574   8.293   9.114   9.654
17444WAT     H252575   8.300   9.222   9.532
17445WAT      O52576   5.611   2.687   2.241
17445WAT     H152577   5.611   2.621   2.316
17445WAT     H252578   5.528   2.677   2.186
17446WAT      O52579   6.763   0.271   9.050
17446WAT     H152580   6.814   0.354   9.026
17446WAT     H252581   6.786   0.199   8.985
17447WAT      O52582   3.718   4.118   7.969
17447WAT     H152583   3.718   4.072   7.880
17447WAT     H252584   3.810   4.116   8.007
17448WAT      O52585   1.771   4.136   3.332
17448WAT     H152586   1.752   4.135   3.234
17448WAT     H252587   1.686   4.148   3.383
17449WAT      O52588   5.004   1.059   9.295
17449WAT     H152589   5.025   1.027   9.203
17449WAT     H252590   4.927   1.007   9.332
17450WAT      O52591   4.205   8.514   3.455
17450WAT     H152592   4.221   8.542   3.360
17450WAT     H252593   4.127   8.565   3.492
17451WAT      O52594   5.222   4.509   2.454
17451WAT     H152595   5.183   4.499   2.546
17451WAT     H252596   5.303   4.568   2.459
17452WAT      O52597   4.998   1.824   2.156
17452WAT     H152598   5.012   1.791   2.062
17452WAT     H252599   5.015   1.749   2.220
17453WAT      O52600   1.801   8.969   7.134
17453WAT     H152601   1.864   8.903   7.175
17453WAT     H252602   1.737   9.002   7.203
17454WAT      O52603   6.329   9.307   8.838
17454WAT     H152604   6.339   9.383   8.902
17454WAT     H252605   6.236   9.271   8.842
17455WAT      O52606   0.374   4.708   7.968
17455WAT     H152607   0.431   4.629   7.991
17455WAT     H252608   0.407   4.749   7.883
17456WAT      O52609   8.671   5.510   4.161
17456WAT     H152610   8.684   5.610   4.166
17456WAT     H252611   8.579   5.487   4.193
17457WAT      O52612   2.084   0.496   7.943
17457WAT     H152613   2.097   0.415   7.886
17457WAT     H252614   2.019   0.558   7.898
17458WAT      O52615   9.412   9.706   1.858
17458WAT     H152616   9.469   9.787   1.868
17458WAT     H252617   9.462   9.625   1.889
17459WAT      O52618   6.408   8.904   7.586
17459WAT     H152619   6.435   8.972   7.655
17459WAT     H252620   6.324   8.858   7.615
17460WAT      O52621   2.517   3.245   1.248
17460WAT     H152622   2.586   3.302   1.203
17460WAT     H252623   2.560   3.190   1.320
17461WAT      O52624   0.669   1.432   2.758
17461WAT     H152625   0.714   1.512   2.717
17461WAT     H252626   0.715   1.408   2.844
17462WAT      O52627   6.810   3.743   8.210
17462WAT     H152628   6.780   3.683   8.284
17462WAT     H252629   6.731   3.784   8.166
17463WAT      O52630   2.197   2.468   5.162
17463WAT     H152631   2.127   2.401   5.135
17463WAT     H252632   2.187   2.488   5.260
17464WAT      O52633   1.220   3.576   0.699
17464WAT     H152634   1.260   3.485   0.684
17464WAT     H252635   1.256   3.614   0.784
17465WAT      O52636   7.786   4.696   3.178
17465WAT     H152637   7.742   4.780   3.209
17465WAT     H252638   7.883   4.697   3.204
17466WAT      O52639   9.871   9.561   1.574
17466WAT     H152640   9.926   9.517   1.503
17466WAT     H252641   9.911   9.649   1.597
17467WAT      O52642   4.273   9.401   7.872
17467WAT     H152643   4.330   9.319   7.864
17467WAT     H252644   4.330   9.478   7.899
17468WAT      O52645   1.315   6.161   5.066
17468WAT     H152646   1.399   6.190   5.021
17468WAT     H252647   1.275   6.084   5.016
17469WAT      O52648   0.723   9.683   3.140
17469WAT     H152649   0.768   9.646   3.058
17469WAT     H252650   0.769   9.648   3.222
17470WAT      O52651   0.131   2.880   6.792
17470WAT     H152652   0.102   2.906   6.700
17470WAT     H252653   0.220   2.921   6.812
17471WAT      O52654   7.735   4.121   4.966
17471WAT     H152655   7.655   4.158   4.919
17471WAT     H252656   7.708   4.086   5.056
17472WAT      O52657   7.370   1.030   5.975
17472WAT     H152658   7.465   1.060   5.985
17472WAT     H252659   7.318   1.057   6.057
17473WAT      O52660   4.604   8.289   5.372
17473WAT     H152661   4.603   8.285   5.272
17473WAT     H252662   4.633   8.200   5.409
17474WAT      O52663   2.190   5.839   2.510
17474WAT     H152664   2.260   5.772   2.490
17474WAT     H252665   2.115   5.796   2.560
17475WAT      O52666   5.906   4.560   1.753
17475WAT     H152667   5.999   4.573   1.789
17475WAT     H252668   5.843   4.548   1.830
17476WAT      O52669   0.636   6.891   1.521
17476WAT     H152670   0.609   6.795   1.511
17476WAT     H252671   0.658   6.910   1.617
17477WAT      O52672   0.046   2.960   0.650
17477WAT     H152673  -0.032   2.966   0.588
17477WAT     H252674   0.110   2.891   0.616
17478WAT      O52675   3.384   0.585   9.611
17478WAT     H152676   3.422   0.495   9.593
17478WAT     H252677   3.287   0.576   9.636
17479WAT      O52678   6.253   8.259   6.040
17479WAT     H152679   6.158   8.231   6.033
17479WAT     H252680   6.294   8.216   6.121
17480WAT      O52681   3.249   3.454   2.328
17480WAT     H152682   3.256   3.357   2.352
17480WAT     H252683   3.313   3.474   2.253
17481WAT      O52684   7.931   6.077   1.205
17481WAT     H152685   7.937   6.077   1.304
17481WAT     H252686   7.908   6.169   1.173
17482WAT      O52687   5.848   4.781   3.816
17482WAT     H152688   5.845   4.697   3.870
17482WAT     H252689   5.934   4.784   3.764
17483WAT      O52690   9.490   2.828   3.619
17483WAT     H152691   9.571   2.784   3.582
17483WAT     H252692   9.410   2.804   3.564
17484WAT      O52693   6.973   7.530   0.495
17484WAT     H152694   6.924   7.476   0.427
17484WAT     H252695   6.921   7.614   0.514
17485WAT      O52696   0.263   7.132   0.687
17485WAT     H152697   0.239   7.129   0.590
17485WAT     H252698   0.344   7.075   0.703
17486WAT      O52699   4.264   4.655   0.116
17486WAT     H152700   4.226   4.686   0.028
17486WAT     H252701   4.364   4.650   0.109
17487WAT      O52702   4.230   6.721   0.458
17487WAT     H152703   4.327   6.710   0.480
17487WAT     H252704   4.211   6.816   0.436
17488WAT      O52705   6.094   3.140   2.519
17488WAT     H152706   6.045   3.221   2.487
17488WAT     H252707   6.152   3.166   2.596
17489WAT      O52708   5.483   4.001   7.214
17489WAT     H152709   5.387   4.029   7.210
17489WAT     H252710   5.541   4.075   7.178
17490WAT      O52711   6.674   7.108   5.381
17490WAT     H152712   6.751   7.110   5.317
17490WAT     H252713   6.707   7.128   5.474
17491WAT      O52714   2.572   1.057   3.410
17491WAT     H152715   2.669   1.075   3.398
17491WAT     H252716   2.520   1.104   3.338
17492WAT      O52717   2.776   4.954   4.875
17492WAT     H152718   2.727   4.868   4.870
17492WAT     H252719   2.722   5.026   4.830
17493WAT      O52720   4.442   3.677   9.383
17493WAT     H152721   4.363   3.663   9.442
17493WAT     H252722   4.433   3.763   9.333
17494WAT      O52723   6.054   0.747   3.961
17494WAT     H152724   5.971   0.716   4.007
17494WAT     H252725   6.047   0.728   3.864
17495WAT      O52726   2.817   6.371   8.414
17495WAT     H152727   2.744   6.362   8.346
17495WAT     H252728   2.888   6.302   8.397
17496WAT      O52729   5.026   3.071   1.816
17496WAT     H152730   4.991   3.165   1.812
17496WAT     H252731   5.099   3.066   1.884
17497WAT      O52732   6.575   5.798   7.795
17497WAT     H152733   6.568   5.793   7.895
17497WAT     H252734   6.654   5.853   7.770
17498WAT      O52735   3.483   4.513   4.578
17498WAT     H152736   3.473   4.606   4.543
17498WAT     H252737   3.469   4.447   4.505
17499WAT      O52738   4.431   6.028   8.466
17499WAT     H152739   4.507   5.988   8.415
17499WAT     H252740   4.361   5.959   8.483
17500WAT      O52741   2.495   9.732   6.620
17500WAT     H152742   2.471   9.678   6.701
17500WAT     H252743   2.416   9.789   6.594
17501WAT      O52744   3.557   6.485   8.635
17501WAT     H152745   3.483   6.534   8.679
17501WAT     H252746   3.541   6.386   8.642
17502WAT      O52747   9.011   8.997   8.491
17502WAT     H152748   8.983   8.901   8.489
17502WAT     H252749   9.093   9.006   8.548
17503WAT      O52750   9.762   0.636   3.895
17503WAT     H152751   9.720   0.549   3.868
17503WAT     H252752   9.698   0.711   3.877
17504WAT      O52753   9.680   8.784   6.014
17504WAT     H152754   9.608   8.845   6.046
17504WAT     H252755   9.652   8.689   6.028
17505WAT      O52756   8.784   5.362   3.976
17505WAT     H152757   8.773   5.427   4.051
17505WAT     H252758   8.713   5.377   3.908
17506WAT      O52759   0.980   2.379   8.380
17506WAT     H152760   1.074   2.346   8.389
17506WAT     H252761   0.930   2.361   8.465
17507WAT      O52762   1.115   5.801   7.723
17507WAT     H152763   1.099   5.708   7.756
17507WAT     H252764   1.184   5.800   7.651
17508WAT      O52765   2.778   3.086   9.405
17508WAT     H152766   2.837   3.129   9.337
17508WAT     H252767   2.834   3.026   9.464
17509WAT      O52768   3.420   1.295   0.913
17509WAT     H152769   3.506   1.249   0.889
17509WAT     H252770   3.400   1.280   1.010
17510WAT      O52771   2.563   8.671   8.871
17510WAT     H152772   2.529   8.746   8.813
17510WAT     H252773   2.493   8.645   8.937
17511WAT      O52774   7.181   4.052   7.255
17511WAT     H152775   7.186   3.981   7.326
17511WAT     H252776   7.233   4.021   7.175
17512WAT      O52777   0.303   5.795   5.301
17512WAT     H152778   0.326   5.843   5.217
17512WAT     H252779   0.370   5.817   5.371
17513WAT      O52780   9.774   7.325   8.151
17513WAT     H152781   9.830   7.309   8.232
17513WAT     H252782   9.694   7.380   8.175
17514WAT      O52783   7.770   1.108   7.074
17514WAT     H152784   7.730   1.152   7.155
17514WAT     H252785   7.863   1.142   7.060
17515WAT      O52786   0.827   1.818   9.812
17515WAT     H152787   0.894   1.845   9.882
17515WAT     H252788   0.863   1.741   9.760
17516WAT      O52789   9.794   5.743   2.807
17516WAT     H152790   9.848   5.659   2.815
17516WAT     H252791   9.783   5.784   2.898
17517WAT      O52792   5.332   3.321   1.813
17517WAT     H152793   5.413   3.268   1.789
17517WAT     H252794   5.341   3.414   1.776
17518WAT      O52795   1.941   9.676   7.936
17518WAT     H152796   1.922   9.586   7.899
17518WAT     H252797   2.040   9.690   7.940
17519WAT      O52798   6.518   6.138   5.865
17519WAT     H152799   6.518   6.226   5.818
17519WAT     H252800   6.611   6.116   5.894
17520WAT      O52801   8.130   4.552   0.638
17520WAT     H152802   8.055   4.486   0.629
17520WAT     H252803   8.185   4.551   0.555
17521WAT      O52804   7.143   1.215   1.619
17521WAT     H152805   7.082   1.139   1.598
17521WAT     H252806   7.139   1.235   1.717
17522WAT      O52807   2.523   2.814   9.089
17522WAT     H152808   2.466   2.746   9.043
17522WAT     H252809   2.594   2.767   9.141
17523WAT      O52810   6.184   1.682   0.514
17523WAT     H152811   6.218   1.772   0.486
17523WAT     H252812   6.209   1.666   0.610
17524WAT      O52813   2.872   2.252   8.847
17524WAT     H152814   2.826   2.210   8.769
17524WAT     H252815   2.887   2.183   8.918
17525WAT      O52816   8.878   3.469   2.639
17525WAT     H152817   8.795   3.508   2.680
17525WAT     H252818   8.891   3.507   2.548
17526WAT      O52819   9.564   5.339   5.773
17526WAT     H152820   9.540   5.286   5.692
17526WAT     H252821   9.518   5.301   5.853
17527WAT      O52822   8.627   1.238   5.009
17527WAT     H152823   8.532   1.221   5.035
17527WAT     H252824   8.634   1.324   4.957
17528WAT      O52825   7.243   4.027   9.680
17528WAT     H152826   7.177   4.010   9.607
17528WAT     H252827   7.275   3.939   9.716
17529WAT      O52828   3.588   4.544   8.834
17529WAT     H152829   3.535   4.591   8.904
17529WAT     H252830   3.527   4.494   8.773
17530WAT      O52831   5.421   8.697   7.315
17530WAT     H152832   5.374   8.613   7.286
17530WAT     H252833   5.514   8.698   7.278
17531WAT      O52834   0.012   4.987   2.048
17531WAT     H152835   0.056   5.077   2.044
17531WAT     H252836   0.004   4.959   2.144
17532WAT      O52837   7.901   0.764   5.320
17532WAT     H152838   7.926   0.748   5.225
17532WAT     H252839   7.875   0.677   5.362
17533WAT      O52840   0.847   1.129   3.241
17533WAT     H152841   0.930   1.075   3.225
17533WAT     H252842   0.851   1.168   3.333
17534WAT      O52843   0.805   9.385   4.568
17534WAT     H152844   0.757   9.377   4.655
17534WAT     H252845   0.804   9.480   4.538
17535WAT      O52846   7.619   2.795   7.507
17535WAT     H152847   7.608   2.842   7.594
17535WAT     H252848   7.585   2.702   7.514
17536WAT      O52849   3.309   8.960   7.287
17536WAT     H152850   3.320   9.026   7.361
17536WAT     H252851   3.268   8.876   7.322
17537WAT      O52852   9.819   1.124   8.786
17537WAT     H152853   9.896   1.063   8.802
17537WAT     H252854   9.846   1.218   8.807
17538WAT      O52855   8.922   0.042   6.728
17538WAT     H152856   8.900  -0.013   6.808
17538WAT     H252857   8.900  -0.009   6.645
17539WAT      O52858   1.012   0.138   6.297
17539WAT     H152859   1.027   0.182   6.386
17539WAT     H252860   0.991   0.041   6.312
17540WAT      O52861   0.849   0.615   6.706
17540WAT     H152862   0.938   0.599   6.747
17540WAT     H252863   0.778   0.572   6.762
17541WAT      O52864   8.646   6.430   7.083
17541WAT     H152865   8.709   6.353   7.084
17541WAT     H252866   8.691   6.509   7.041
17542WAT      O52867   7.209   6.819   1.708
17542WAT     H152868   7.204   6.840   1.610
17542WAT     H252869   7.210   6.720   1.720
17543WAT      O52870   2.457   2.887   1.344
17543WAT     H152871   2.494   2.977   1.367
17543WAT     H252872   2.488   2.860   1.253
17544WAT      O52873   0.067   5.507   0.414
17544WAT     H152874   0.074   5.538   0.319
17544WAT     H252875  -0.016   5.546   0.455
17545WAT      O52876   4.254   0.143   2.395
17545WAT     H152877   4.321   0.148   2.321
17545WAT     H252878   4.162   0.135   2.357
17546WAT      O52879   2.412   3.928   1.363
17546WAT     H152880   2.332   3.980   1.333
17546WAT     H252881   2.418   3.844   1.309
17547WAT      O52882   0.781   6.956   1.058
17547WAT     H152883   0.769   7.054   1.078
17547WAT     H252884   0.799   6.944   0.960
17548WAT      O52885   3.291   6.537   6.535
17548WAT     H152886   3.324   6.485   6.614
17548WAT     H252887   3.260   6.627   6.565
17549WAT      O52888   1.172   9.643   5.312
17549WAT     H152889   1.113   9.644   5.394
17549WAT     H252890   1.148   9.721   5.254
17550WAT      O52891   2.486   1.337   6.050
17550WAT     H152892   2.433   1.310   5.969
17550WAT     H252893   2.569   1.385   6.020
17551WAT      O52894   6.448   6.707   2.555
17551WAT     H152895   6.519   6.724   2.623
17551WAT     H252896   6.474   6.748   2.468
17552WAT      O52897   4.409   3.704   3.769
17552WAT     H152898   4.449   3.670   3.854
17552WAT     H252899   4.453   3.657   3.691
17553WAT      O52900   0.679   6.312   6.273
17553WAT     H152901   0.736   6.265   6.206
17553WAT     H252902   0.624   6.244   6.322
17554WAT      O52903   1.641   8.539   1.180
17554WAT     H152904   1.728   8.491   1.169
17554WAT     H252905   1.655   8.624   1.230
17555WAT      O52906   1.744   4.703   0.426
17555WAT     H152907   1.749   4.651   0.341
17555WAT     H252908   1.713   4.796   0.406
17556WAT      O52909   8.763   8.095   2.992
17556WAT     H152910   8.736   8.190   2.977
17556WAT     H252911   8.850   8.092   3.042
17557WAT      O52912   1.000   6.911   0.185
17557WAT     H152913   0.991   6.863   0.272
17557WAT     H252914   0.936   6.988   0.183
17558WAT      O52915   2.273   3.311   1.340
17558WAT     H152916   2.206   3.343   1.273
17558WAT     H252917   2.363   3.305   1.298
17559WAT      O52918   9.332   8.436   2.915
17559WAT     H152919   9.248   8.471   2.873
17559WAT     H252920   9.310   8.356   2.971
17560WAT      O52921   7.893   7.331   9.284
17560WAT     H152922   7.905   7.301   9.189
17560WAT     H252923   7.837   7.264   9.333
17561WAT      O52924   4.193   0.429   1.185
17561WAT     H152925   4.194   0.463   1.090
17561WAT     H252926   4.103   0.391   1.205
17562WAT      O52927   4.929   0.323   4.822
17562WAT     H152928   4.858   0.376   4.776
17562WAT     H252929   4.902   0.227   4.826
17563WAT      O52930   7.428   9.804   9.412
17563WAT     H152931   7.431   9.733   9.483
17563WAT     H252932   7.340   9.850   9.415
17564WAT      O52933   6.356   2.446   6.760
17564WAT     H152934   6.423   2.499   6.813
17564WAT     H252935   6.402   2.370   6.715
17565WAT      O52936   8.639   8.064   5.469
17565WAT     H152937   8.592   8.136   5.419
17565WAT     H252938   8.738   8.082   5.468
17566WAT      O52939   3.122   1.031   6.331
17566WAT     H152940   3.147   1.126   6.352
17566WAT     H252941   3.156   1.009   6.239
17567WAT      O52942   0.825   2.990   5.733
17567WAT     H152943   0.888   3.055   5.692
17567WAT     H252944   0.746   2.978   5.673
17568WAT      O52945   3.842   8.726   3.426
17568WAT     H152946   3.907   8.737   3.502
17568WAT     H252947   3.749   8.720   3.463
17569WAT      O52948   1.735   4.502   0.242
17569WAT     H152949   1.814   4.483   0.183
17569WAT     H252950   1.671   4.426   0.237
17570WAT      O52951   1.193   1.643   9.713
17570WAT     H152952   1.226   1.702   9.786
17570WAT     H252953   1.236   1.553   9.721
17571WAT      O52954   4.430   4.725   0.886
17571WAT     H152955   4.512   4.772   0.854
17571WAT     H252956   4.398   4.663   0.815
17572WAT      O52957   5.649   7.173   8.446
17572WAT     H152958   5.628   7.085   8.404
17572WAT     H252959   5.739   7.170   8.489
17573WAT      O52960   5.686   9.189   5.856
17573WAT     H152961   5.661   9.175   5.760
17573WAT     H252962   5.771   9.142   5.875
17574WAT      O52963   3.888   6.372   7.743
17574WAT     H152964   3.900   6.462   7.702
17574WAT     H252965   3.949   6.307   7.697
17575WAT      O52966   4.208   6.936   2.309
17575WAT     H152967   4.251   6.918   2.397
17575WAT     H252968   4.113   6.904   2.312
17576WAT      O52969   8.336   6.475   0.418
17576WAT     H152970   8.416   6.440   0.466
17576WAT     H252971   8.339   6.445   0.323
17577WAT      O52972   8.370   3.332   3.399
17577WAT     H152973   8.368   3.233   3.408
17577WAT     H252974   8.431   3.371   3.468
17578WAT      O52975   1.634   2.157   2.577
17578WAT     H152976   1.594   2.229   2.521
17578WAT     H252977   1.732   2.149   2.557
17579WAT      O52978   9.772   0.657   9.042
17579WAT     H152979   9.772   0.750   9.079
17579WAT     H252980   9.854   0.609   9.074
17580WAT      O52981   6.496   4.418   7.100
17580WAT     H152982   6.444   4.492   7.143
17580WAT     H252983   6.436   4.339   7.085
17581WAT      O52984   1.885   5.564   9.083
17581WAT     H152985   1.786   5.577   9.076
17581WAT     H252986   1.910   5.476   9.043
17582WAT      O52987   3.669   8.071   8.153
17582WAT     H152988   3.764   8.067   8.184
17582WAT     H252989   3.664   8.119   8.066
17583WAT      O52990   5.914   2.941   6.611
17583WAT     H152991   5.817   2.919   6.605
17583WAT     H252992   5.926   3.034   6.644
17584WAT      O52993   3.241   1.091   0.370
17584WAT     H152994   3.190   1.066   0.288
17584WAT     H252995   3.259   1.008   0.424
17585WAT      O52996   7.923   1.561   8.636
17585WAT     H152997   7.888   1.620   8.709
17585WAT     H252998   7.964   1.618   8.564
17586WAT      O52999   3.502   8.269   1.519
17586WAT     H153000   3.487   8.226   1.607
17586WAT     H253001   3.524   8.200   1.451
17587WAT      O53002   5.185   2.756   0.856
17587WAT     H153003   5.123   2.696   0.905
17587WAT     H253004   5.187   2.730   0.759
17588WAT      O53005   0.312   4.414   7.472
17588WAT     H153006   0.303   4.317   7.494
17588WAT     H253007   0.292   4.429   7.375
17589WAT      O53008   2.141   0.982   4.555
17589WAT     H153009   2.098   0.986   4.464
17589WAT     H253010   2.240   0.998   4.545
17590WAT      O53011   0.894   2.078   9.846
17590WAT     H153012   0.830   2.154   9.834
17590WAT     H253013   0.860   1.997   9.798
17591WAT      O53014   2.935   9.157   8.465
17591WAT     H153015   3.014   9.210   8.494
17591WAT     H253016   2.853   9.216   8.464
17592WAT      O53017   4.681   8.438   1.538
17592WAT     H153018   4.777   8.423   1.517
17592WAT     H253019   4.651   8.525   1.498
17593WAT      O53020   1.780   1.078   6.842
17593WAT     H153021   1.813   1.172   6.841
17593WAT     H253022   1.754   1.053   6.936
17594WAT      O53023   4.418   4.256   9.876
17594WAT     H153024   4.442   4.328   9.810
17594WAT     H253025   4.490   4.249   9.945
17595WAT      O53026   9.574   2.672   1.005
17595WAT     H153027   9.542   2.744   0.944
17595WAT     H253028   9.503   2.652   1.073
17596WAT      O53029   7.765   7.320   5.739
17596WAT     H153030   7.801   7.251   5.802
17596WAT     H253031   7.827   7.328   5.660
17597WAT      O53032   6.266   1.921   4.142
17597WAT     H153033   6.202   1.991   4.172
17597WAT     H253034   6.352   1.929   4.193
17598WAT      O53035   7.161   1.634   7.323
17598WAT     H153036   7.241   1.655   7.266
17598WAT     H253037   7.078   1.644   7.269
17599WAT      O53038   7.267   2.938   8.538
17599WAT     H153039   7.184   2.919   8.486
17599WAT     H253040   7.244   2.996   8.617
17600WAT      O53041   1.280   3.529   3.015
17600WAT     H153042   1.209   3.583   2.969
17600WAT     H253043   1.325   3.585   3.085
17601WAT      O53044   6.705   8.478   5.605
17601WAT     H153045   6.772   8.479   5.531
17601WAT     H253046   6.655   8.391   5.605
17602WAT      O53047   9.088   1.303   9.469
17602WAT     H153048   9.117   1.338   9.380
17602WAT     H253049   9.048   1.212   9.458
17603WAT      O53050   2.651   3.330   4.877
17603WAT     H153051   2.658   3.241   4.833
17603WAT     H253052   2.718   3.392   4.837
17604WAT      O53053   2.501   4.565   5.176
17604WAT     H153054   2.559   4.571   5.257
17604WAT     H253055   2.406   4.586   5.200
17605WAT      O53056   3.334   1.879   2.467
17605WAT     H153057   3.425   1.879   2.507
17605WAT     H253058   3.266   1.861   2.539
17606WAT      O53059   5.224   7.823   6.844
17606WAT     H153060   5.318   7.852   6.832
17606WAT     H253061   5.207   7.801   6.940
17607WAT      O53062   2.420   3.684   5.988
17607WAT     H153063   2.440   3.634   6.071
17607WAT     H253064   2.377   3.623   5.921
17608WAT      O53065   5.848   3.848   1.258
17608WAT     H153066   5.800   3.869   1.173
17608WAT     H253067   5.878   3.933   1.301
17609WAT      O53068   6.636   9.582   7.727
17609WAT     H153069   6.624   9.665   7.781
17609WAT     H253070   6.732   9.553   7.731
17610WAT      O53071   2.795   4.007   7.486
17610WAT     H153072   2.733   3.949   7.539
17610WAT     H253073   2.803   3.971   7.393
17611WAT      O53074   7.050   4.376   6.255
17611WAT     H153075   7.115   4.426   6.198
17611WAT     H253076   7.056   4.278   6.234
17612WAT      O53077   6.771   5.892   2.849
17612WAT     H153078   6.855   5.937   2.879
17612WAT     H253079   6.700   5.961   2.833
17613WAT      O53080   2.168   1.957   1.451
17613WAT     H153081   2.081   1.961   1.500
17613WAT     H253082   2.239   1.924   1.513
17614WAT      O53083   1.017   8.350   6.257
17614WAT     H153084   1.043   8.323   6.165
17614WAT     H253085   0.918   8.340   6.268
17615WAT      O53086   8.617   1.273   0.277
17615WAT     H153087   8.641   1.308   0.367
17615WAT     H253088   8.699   1.237   0.233
17616WAT      O53089   5.733   8.148   3.276
17616WAT     H153090   5.729   8.122   3.180
17616WAT     H253091   5.641   8.147   3.315
17617WAT      O53092   1.218   1.559   7.090
17617WAT     H153093   1.137   1.548   7.033
17617WAT     H253094   1.270   1.473   7.091
17618WAT      O53095   5.437   8.428   0.300
17618WAT     H153096   5.450   8.348   0.358
17618WAT     H253097   5.515   8.490   0.309
17619WAT      O53098   8.723   4.610   7.760
17619WAT     H153099   8.653   4.612   7.689
17619WAT     H253100   8.735   4.701   7.798
17620WAT      O53101   7.055   8.503   1.329
17620WAT     H153102   7.044   8.487   1.231
17620WAT     H253103   7.003   8.435   1.380
17621WAT      O53104   2.237   2.739   1.516
17621WAT     H153105   2.276   2.649   1.532
17621WAT     H253106   2.309   2.802   1.488
17622WAT      O53107   2.404   5.093   0.348
17622WAT     H153108   2.415   5.020   0.415
17622WAT     H253109   2.492   5.110   0.302
17623WAT      O53110   3.763   3.449   9.753
17623WAT     H153111   3.816   3.445   9.668
17623WAT     H253112   3.721   3.360   9.771
17624WAT      O53113   6.007   1.787   6.429
17624WAT     H153114   6.072   1.859   6.406
17624WAT     H253115   6.018   1.761   6.525
17625WAT      O53116   6.818   8.148   9.127
17625WAT     H153117   6.858   8.096   9.052
17625WAT     H253118   6.739   8.099   9.164
17626WAT      O53119   5.737   9.313   8.285
17626WAT     H153120   5.836   9.314   8.272
17626WAT     H253121   5.692   9.281   8.202
17627WAT      O53122   1.669   7.068   7.768
17627WAT     H153123   1.736   7.086   7.841
17627WAT     H253124   1.693   7.122   7.687
17628WAT      O53125   0.790   6.417   9.721
17628WAT     H153126   0.813   6.418   9.624
17628WAT     H253127   0.703   6.369   9.734
17629WAT      O53128   9.789   8.079   1.550
17629WAT     H153129   9.882   8.044   1.543
17629WAT     H253130   9.740   8.031   1.624
17630WAT      O53131   1.337   6.521   9.624
17630WAT     H153132   1.278   6.602   9.618
17630WAT     H253133   1.414   6.530   9.561
17631WAT      O53134   3.010   8.165   6.680
17631WAT     H153135   3.016   8.129   6.587
17631WAT     H253136   3.058   8.253   6.684
17632WAT      O53137   0.975   7.254   3.257
17632WAT     H153138   0.983   7.304   3.343
17632WAT     H253139   1.062   7.257   3.208
17633WAT      O53140   0.573   5.330   7.462
17633WAT     H153141   0.504   5.257   7.464
17633WAT     H253142   0.657   5.296   7.504
17634WAT      O53143   3.134   6.874   8.901
17634WAT     H153144   3.136   6.898   8.804
17634WAT     H253145   3.125   6.775   8.910
17635WAT      O53146   3.052   1.579   3.190
17635WAT     H153147   3.106   1.591   3.274
17635WAT     H253148   2.957   1.605   3.207
17636WAT      O53149   3.504   6.313   0.596
17636WAT     H153150   3.553   6.244   0.649
17636WAT     H253151   3.432   6.269   0.542
17637WAT      O53152   8.075   3.859   2.477
17637WAT     H153153   8.141   3.934   2.469
17637WAT     H253154   7.985   3.896   2.498
17638WAT      O53155   9.153   3.360   0.593
17638WAT     H153156   9.233   3.349   0.534
17638WAT     H253157   9.130   3.272   0.635
17639WAT      O53158   6.923   7.320   4.375
17639WAT     H153159   6.859   7.374   4.430
17639WAT     H253160   6.946   7.236   4.423
17640WAT      O53161   5.473   2.067   5.950
17640WAT     H153162   5.554   2.016   5.979
17640WAT     H253163   5.495   2.164   5.946
17641WAT      O53164   8.661   8.917   3.048
17641WAT     H153165   8.710   8.899   3.133
17641WAT     H253166   8.595   8.992   3.063
17642WAT      O53167   8.161   6.879   2.018
17642WAT     H153168   8.105   6.954   1.982
17642WAT     H253169   8.203   6.829   1.942
17643WAT      O53170   5.374   2.658   5.960
17643WAT     H153171   5.419   2.694   6.041
17643WAT     H253172   5.330   2.571   5.982
17644WAT      O53173   6.981   1.437   5.202
17644WAT     H153174   7.020   1.466   5.289
17644WAT     H253175   7.051   1.393   5.147
17645WAT      O53176   4.340   4.115   5.869
17645WAT     H153177   4.269   4.148   5.931
17645WAT     H253178   4.300   4.089   5.782
17646WAT      O53179   3.448   0.519   6.589
17646WAT     H153180   3.447   0.425   6.555
17646WAT     H253181   3.518   0.528   6.660
17647WAT      O53182   7.754   2.840   0.007
17647WAT     H153183   7.756   2.807  -0.087
17647WAT     H253184   7.750   2.939   0.009
17648WAT      O53185   6.704   4.805   5.054
17648WAT     H153186   6.763   4.809   5.134
17648WAT     H253187   6.655   4.717   5.053
17649WAT      O53188   6.276   6.258   6.336
17649WAT     H153189   6.278   6.357   6.351
17649WAT     H253190   6.368   6.221   6.346
17650WAT      O53191   2.637   4.822   8.463
17650WAT     H153192   2.552   4.874   8.454
17650WAT     H253193   2.710   4.881   8.497
17651WAT      O53194   5.169   3.017   0.853
17651WAT     H153195   5.115   3.059   0.780
17651WAT     H253196   5.168   2.917   0.842
17652WAT      O53197   1.177   9.606   1.488
17652WAT     H153198   1.246   9.626   1.419
17652WAT     H253199   1.158   9.508   1.489
17653WAT      O53200   0.034   6.531   2.019
17653WAT     H153201   0.075   6.442   1.998
17653WAT     H253202  -0.064   6.529   2.000
17654WAT      O53203   0.930   4.568   6.925
17654WAT     H153204   0.837   4.577   6.889
17654WAT     H253205   0.929   4.504   7.002
17655WAT      O53206   4.753   5.123   3.335
17655WAT     H153207   4.803   5.176   3.404
17655WAT     H253208   4.717   5.040   3.377
17656WAT      O53209   8.464   3.424   3.127
17656WAT     H153210   8.438   3.382   3.214
17656WAT     H253211   8.461   3.524   3.137
17657WAT      O53212   1.994   1.713   0.313
17657WAT     H153213   1.926   1.670   0.253
17657WAT     H253214   2.058   1.643   0.345
17658WAT      O53215   1.875   8.712   5.973
17658WAT     H153216   1.843   8.775   6.044
17658WAT     H253217   1.815   8.632   5.970
17659WAT      O53218   2.236   5.391   4.645
17659WAT     H153219   2.291   5.370   4.725
17659WAT     H253220   2.217   5.489   4.642
17660WAT      O53221   6.844   3.948   2.369
17660WAT     H153222   6.780   4.004   2.422
17660WAT     H253223   6.812   3.853   2.368
17661WAT      O53224   7.849   9.405   5.672
17661WAT     H153225   7.769   9.396   5.613
17661WAT     H253226   7.826   9.375   5.765
17662WAT      O53227   3.220   4.239   6.080
17662WAT     H153228   3.277   4.283   6.149
17662WAT     H253229   3.264   4.246   5.991
17663WAT      O53230   7.512   5.835   3.153
17663WAT     H153231   7.425   5.791   3.172
17663WAT     H253232   7.515   5.863   3.057
17664WAT      O53233   1.051   5.874   9.678
17664WAT     H153234   0.986   5.801   9.660
17664WAT     H253235   1.139   5.853   9.635
17665WAT      O53236   2.851   4.738   3.707
17665WAT     H153237   2.923   4.790   3.754
17665WAT     H253238   2.813   4.794   3.633
17666WAT      O53239   4.310   7.764   1.354
17666WAT     H153240   4.350   7.791   1.441
17666WAT     H253241   4.379   7.769   1.282
17667WAT      O53242   5.377   0.382   0.758
17667WAT     H153243   5.467   0.397   0.798
17667WAT     H253244   5.368   0.286   0.730
17668WAT      O53245   4.921   6.840   7.796
17668WAT     H153246   4.997   6.777   7.815
17668WAT     H253247   4.907   6.900   7.875
17669WAT      O53248   6.824   8.754   2.102
17669WAT     H153249   6.819   8.700   2.018
17669WAT     H253250   6.741   8.738   2.156
17670WAT      O53251   8.894   5.377   2.842
17670WAT     H153252   8.879   5.428   2.926
17670WAT     H253253   8.990   5.386   2.814
17671WAT      O53254   8.551   5.902   7.029
17671WAT     H153255   8.647   5.888   7.053
17671WAT     H253256   8.545   5.965   6.952
17672WAT      O53257   1.033   1.824   3.177
17672WAT     H153258   0.961   1.771   3.134
17672WAT     H253259   1.115   1.822   3.120
17673WAT      O53260   3.482   2.456   0.825
17673WAT     H153261   3.494   2.470   0.923
17673WAT     H253262   3.521   2.368   0.799
17674WAT      O53263   9.341   4.614   1.363
17674WAT     H153264   9.312   4.629   1.457
17674WAT     H253265   9.380   4.522   1.355
17675WAT      O53266   1.619   2.107   4.848
17675WAT     H153267   1.632   2.011   4.827
17675WAT     H253268   1.570   2.117   4.934
17676WAT      O53269   3.730   9.562   5.942
17676WAT     H153270   3.686   9.620   5.874
17676WAT     H253271   3.801   9.506   5.897
17677WAT      O53272   1.283   4.657   9.747
17677WAT     H153273   1.327   4.728   9.692
17677WAT     H253274   1.301   4.567   9.706
17678WAT      O53275   4.853   4.184   1.531
17678WAT     H153276   4.946   4.220   1.525
17678WAT     H253277   4.822   4.188   1.626
17679WAT      O53278   9.139   0.580   4.415
17679WAT     H153279   9.129   0.498   4.472
17679WAT     H253280   9.127   0.554   4.319
17680WAT      O53281   6.906   0.289   0.011
17680WAT     H153282   6.893   0.219   0.081
17680WAT     H253283   6.821   0.339  -0.003
17681WAT      O53284   2.124   8.086   3.806
17681WAT     H153285   2.043   8.121   3.758
17681WAT     H253286   2.151   8.151   3.877
17682WAT      O53287   5.227   7.279   5.701
17682WAT     H153288   5.225   7.202   5.765
17682WAT     H253289   5.204   7.248   5.609
17683WAT      O53290   7.684   0.829   9.641
17683WAT     H153291   7.671   0.786   9.730
17683WAT     H253292   7.770   0.881   9.642
17684WAT      O53293   5.000   5.361   2.390
17684WAT     H153294   5.017   5.321   2.300
17684WAT     H253295   4.914   5.327   2.426
17685WAT      O53296   3.110   4.350   0.930
17685WAT     H153297   3.159   4.266   0.953
17685WAT     H253298   3.062   4.384   1.011
17686WAT      O53299   6.006   2.922   3.260
17686WAT     H153300   5.972   2.911   3.353
17686WAT     H253301   6.039   3.016   3.247
17687WAT      O53302   4.097   9.769   6.838
17687WAT     H153303   4.023   9.836   6.833
17687WAT     H253304   4.137   9.770   6.930
17688WAT      O53305   4.036   9.054   6.080
17688WAT     H153306   4.022   8.971   6.026
17688WAT     H253307   3.990   9.045   6.168
17689WAT      O53308   2.188   1.511   0.780
17689WAT     H153309   2.145   1.428   0.816
17689WAT     H253310   2.227   1.564   0.856
17690WAT      O53311   1.730   2.311   5.793
17690WAT     H153312   1.650   2.302   5.852
17690WAT     H253313   1.792   2.234   5.808
17691WAT      O53314   1.813   6.571   0.454
17691WAT     H153315   1.764   6.507   0.513
17691WAT     H253316   1.751   6.608   0.385
17692WAT      O53317   5.615   7.028   9.279
17692WAT     H153318   5.656   6.965   9.214
17692WAT     H253319   5.595   6.980   9.365
17693WAT      O53320   7.794   0.020   7.572
17693WAT     H153321   7.703   0.006   7.532
17693WAT     H253322   7.800  -0.031   7.658
17694WAT      O53323   5.431   1.826   7.606
17694WAT     H153324   5.394   1.736   7.628
17694WAT     H253325   5.427   1.840   7.507
17695WAT      O53326   3.845   8.323   2.611
17695WAT     H153327   3.797   8.331   2.699
17695WAT     H253328   3.795   8.259   2.552
17696WAT      O53329   4.716   6.185   8.306
17696WAT     H153330   4.732   6.114   8.374
17696WAT     H253331   4.792   6.250   8.306
17697WAT      O53332   5.737   0.443   8.778
17697WAT     H153333   5.742   0.540   8.799
17697WAT     H253334   5.826   0.400   8.796
17698WAT      O53335   3.594   1.962   4.726
17698WAT     H153336   3.533   1.916   4.791
17698WAT     H253337   3.689   1.945   4.751
17699WAT      O53338   5.059   1.361   6.861
17699WAT     H153339   5.028   1.452   6.891
17699WAT     H253340   5.156   1.350   6.885
17700WAT      O53341   1.665   1.350   7.053
17700WAT     H153342   1.729   1.290   7.006
17700WAT     H253343   1.633   1.421   6.990
17701WAT      O53344   9.079   9.442   1.937
17701WAT     H153345   8.991   9.445   1.889
17701WAT     H253346   9.104   9.534   1.966
17702WAT      O53347   7.563   9.046   5.196
17702WAT     H153348   7.644   9.102   5.178
17702WAT     H253349   7.485   9.105   5.211
17703WAT      O53350   7.397   6.403   3.326
17703WAT     H153351   7.357   6.494   3.335
17703WAT     H253352   7.346   6.338   3.382
17704WAT      O53353   6.862   2.450   6.838
17704WAT     H153354   6.948   2.415   6.873
17704WAT     H253355   6.879   2.513   6.762
17705WAT      O53356   5.503   6.397   3.247
17705WAT     H153357   5.575   6.334   3.278
17705WAT     H253358   5.435   6.346   3.194
17706WAT      O53359   2.058   9.725   6.242
17706WAT     H153360   2.137   9.709   6.184
17706WAT     H253361   2.008   9.805   6.210
17707WAT      O53362   1.274   1.338   2.332
17707WAT     H153363   1.293   1.377   2.241
17707WAT     H253364   1.334   1.260   2.347
17708WAT      O53365   8.677   5.842   9.730
17708WAT     H153366   8.620   5.812   9.653
17708WAT     H253367   8.675   5.772   9.801
17709WAT      O53368   6.028   2.852   7.504
17709WAT     H153369   5.944   2.905   7.496
17709WAT     H253370   6.087   2.892   7.574
17710WAT      O53371   5.388   9.185   3.641
17710WAT     H153372   5.339   9.263   3.679
17710WAT     H253373   5.416   9.124   3.715
17711WAT      O53374   4.020   9.534   5.288
17711WAT     H153375   4.093   9.588   5.329
17711WAT     H253376   4.016   9.554   5.189
17712WAT      O53377   7.594   8.567   7.752
17712WAT     H153378   7.677   8.621   7.736
17712WAT     H253379   7.515   8.627   7.757
17713WAT      O53380   2.142   6.275   3.483
17713WAT     H153381   2.238   6.301   3.475
17713WAT     H253382   2.132   6.203   3.551
17714WAT      O53383   1.742   3.465   8.164
17714WAT     H153384   1.830   3.423   8.141
17714WAT     H253385   1.714   3.525   8.089
17715WAT      O53386   2.254   3.160   9.234
17715WAT     H153387   2.284   3.121   9.322
17715WAT     H253388   2.285   3.100   9.160
17716WAT      O53389   6.266   1.907   2.385
17716WAT     H153390   6.223   1.914   2.295
17716WAT     H253391   6.286   1.998   2.420
17717WAT      O53392   6.215   0.599   0.690
17717WAT     H153393   6.131   0.590   0.743
17717WAT     H253394   6.283   0.533   0.724
17718WAT      O53395   8.041   6.719   1.444
17718WAT     H153396   8.096   6.799   1.424
17718WAT     H253397   8.081   6.638   1.401
17719WAT      O53398   9.256   4.615   6.661
17719WAT     H153399   9.270   4.700   6.712
17719WAT     H253400   9.158   4.596   6.654
17720WAT      O53401   0.821   6.083   8.106
17720WAT     H153402   0.765   6.162   8.080
17720WAT     H253403   0.833   6.023   8.026
17721WAT      O53404   3.460   9.353   7.265
17721WAT     H153405   3.553   9.377   7.293
17721WAT     H253406   3.420   9.291   7.332
17722WAT      O53407   4.429   0.295   3.444
17722WAT     H153408   4.431   0.195   3.447
17722WAT     H253409   4.509   0.331   3.492
17723WAT      O53410   9.574   2.361   1.295
17723WAT     H153411   9.496   2.381   1.355
17723WAT     H253412   9.548   2.379   1.200
17724WAT      O53413   2.546   1.054   1.424
17724WAT     H153414   2.640   1.021   1.412
17724WAT     H253415   2.483   0.978   1.418
17725WAT      O53416   2.784   6.235   6.703
17725WAT     H153417   2.732   6.269   6.781
17725WAT     H253418   2.822   6.312   6.652
17726WAT      O53419   4.541   7.804   5.657
17726WAT     H153420   4.632   7.845   5.652
17726WAT     H253421   4.478   7.856   5.599
17727WAT      O53422   4.114   9.679   3.333
17727WAT     H153423   4.116   9.717   3.426
17727WAT     H253424   4.078   9.747   3.270
17728WAT      O53425   7.498   6.307   2.110
17728WAT     H153426   7.590   6.281   2.081
17728WAT     H253427   7.468   6.387   2.058
17729WAT      O53428   8.528   7.380   4.284
17729WAT     H153429   8.469   7.302   4.304
17729WAT     H253430   8.519   7.448   4.356
17730WAT      O53431   5.196   4.160   6.837
17730WAT     H153432   5.152   4.247   6.862
17730WAT     H253433   5.254   4.175   6.757
17731WAT      O53434   8.854   3.705   6.782
17731WAT     H153435   8.827   3.652   6.862
17731WAT     H253436   8.884   3.644   6.709
17732WAT      O53437   1.098   6.293   1.253
17732WAT     H153438   1.056   6.310   1.164
17732WAT     H253439   1.052   6.347   1.323
17733WAT      O53440   8.909   8.210   3.954
17733WAT     H153441   8.859   8.296   3.943
17733WAT     H253442   8.966   8.215   4.037
17734WAT      O53443   5.135   5.642   9.082
17734WAT     H153444   5.117   5.723   9.025
17734WAT     H253445   5.192   5.578   9.031
17735WAT      O53446   0.302   1.498   0.307
17735WAT     H153447   0.236   1.456   0.368
17735WAT     H253448   0.255   1.557   0.242
17736WAT      O53449   9.041   3.124   7.342
17736WAT     H153450   9.076   3.046   7.291
17736WAT     H253451   8.941   3.122   7.342
17737WAT      O53452   8.058   9.822   2.004
17737WAT     H153453   8.012   9.898   2.050
17737WAT     H253454   8.151   9.812   2.038
17738WAT      O53455   6.923   5.494   5.520
17738WAT     H153456   6.872   5.552   5.583
17738WAT     H253457   7.018   5.524   5.515
17739WAT      O53458   3.583   5.378   0.073
17739WAT     H153459   3.571   5.301   0.012
17739WAT     H253460   3.542   5.357   0.162
17740WAT      O53461   4.692   0.161   8.073
17740WAT     H153462   4.709   0.235   8.008
17740WAT     H253463   4.657   0.199   8.158
17741WAT      O53464   6.319   8.258   0.113
17741WAT     H153465   6.250   8.323   0.080
17741WAT     H253466   6.279   8.201   0.184
17742WAT      O53467   9.846   9.188   3.981
17742WAT     H153468   9.760   9.239   3.980
17742WAT     H253469   9.907   9.225   3.910
17743WAT      O53470   1.022   7.327   5.821
17743WAT     H153471   1.084   7.263   5.866
17743WAT     H253472   1.067   7.364   5.739
17744WAT      O53473   7.383   4.725   9.235
17744WAT     H153474   7.418   4.705   9.326
17744WAT     H253475   7.446   4.688   9.166
17745WAT      O53476   2.156   4.567   8.081
17745WAT     H153477   2.185   4.502   8.150
17745WAT     H253478   2.214   4.648   8.084
17746WAT      O53479   9.047   4.082   7.344
17746WAT     H153480   8.958   4.093   7.300
17746WAT     H253481   9.050   4.136   7.428
17747WAT      O53482   7.958   1.616   8.007
17747WAT     H153483   7.999   1.703   8.035
17747WAT     H253484   8.002   1.584   7.923
17748WAT      O53485   1.324   6.296   9.792
17748WAT     H153486   1.412   6.256   9.816
17748WAT     H253487   1.339   6.382   9.743
17749WAT      O53488   6.150   6.678   4.984
17749WAT     H153489   6.081   6.607   4.971
17749WAT     H253490   6.107   6.768   4.980
17750WAT      O53491   8.347   3.415   5.191
17750WAT     H153492   8.307   3.419   5.283
17750WAT     H253493   8.412   3.340   5.186
17751WAT      O53494   5.558   7.645   9.231
17751WAT     H153495   5.559   7.678   9.325
17751WAT     H253496   5.597   7.715   9.171
17752WAT      O53497   6.283   0.315   5.814
17752WAT     H153498   6.236   0.340   5.899
17752WAT     H253499   6.254   0.377   5.741
17753WAT      O53500   7.656   3.878   7.610
17753WAT     H153501   7.670   3.940   7.533
17753WAT     H253502   7.610   3.927   7.685
17754WAT      O53503   3.071   1.837   5.444
17754WAT     H153504   3.007   1.791   5.505
17754WAT     H253505   3.090   1.777   5.365
17755WAT      O53506   6.019   5.199   8.699
17755WAT     H153507   5.962   5.131   8.653
17755WAT     H253508   5.975   5.227   8.784
17756WAT      O53509   2.054   1.172   4.811
17756WAT     H153510   2.036   1.118   4.893
17756WAT     H253511   2.108   1.253   4.835
17757WAT      O53512   8.220   3.720   6.609
17757WAT     H153513   8.138   3.751   6.560
17757WAT     H253514   8.213   3.748   6.705
17758WAT      O53515   2.291   4.397   0.699
17758WAT     H153516   2.348   4.377   0.618
17758WAT     H253517   2.211   4.338   0.698
17759WAT      O53518   7.637   1.369   1.946
17759WAT     H153519   7.637   1.468   1.938
17759WAT     H253520   7.717   1.331   1.900
17760WAT      O53521   1.103   9.460   8.076
17760WAT     H153522   1.026   9.499   8.125
17760WAT     H253523   1.179   9.526   8.074
17761WAT      O53524   1.369   4.543   5.178
17761WAT     H153525   1.408   4.486   5.106
17761WAT     H253526   1.404   4.636   5.169
17762WAT      O53527   0.053   7.184   3.912
17762WAT     H153528   0.120   7.113   3.890
17762WAT     H253529  -0.036   7.158   3.875
17763WAT      O53530   6.673   3.407   1.267
17763WAT     H153531   6.623   3.483   1.226
17763WAT     H253532   6.718   3.437   1.351
17764WAT      O53533   1.480   7.773   4.785
17764WAT     H153534   1.487   7.677   4.761
17764WAT     H253535   1.397   7.812   4.744
17765WAT      O53536   0.405   8.198   9.367
17765WAT     H153537   0.416   8.184   9.268
17765WAT     H253538   0.354   8.120   9.405
17766WAT      O53539   9.282   8.195   1.520
17766WAT     H153540   9.269   8.125   1.590
17766WAT     H253541   9.379   8.218   1.514
17767WAT      O53542   1.385   5.936   8.113
17767WAT     H153543   1.413   6.017   8.164
17767WAT     H253544   1.318   5.961   8.044
17768WAT      O53545   1.632   1.446   1.584
17768WAT     H153546   1.654   1.366   1.529
17768WAT     H253547   1.674   1.527   1.543
17769WAT      O53548   0.177   3.157   2.335
17769WAT     H153549   0.216   3.065   2.332
17769WAT     H253550   0.083   3.152   2.370
17770WAT      O53551   8.704   2.693   8.369
17770WAT     H153552   8.658   2.761   8.426
17770WAT     H253553   8.730   2.614   8.426
17771WAT      O53554   8.468   3.309   9.325
17771WAT     H153555   8.501   3.308   9.419
17771WAT     H253556   8.390   3.372   9.318
17772WAT      O53557   6.410   0.098   7.291
17772WAT     H153558   6.409   0.055   7.200
17772WAT     H253559   6.503   0.096   7.327
17773WAT      O53560   1.829   2.530   4.374
17773WAT     H153561   1.862   2.494   4.462
17773WAT     H253562   1.828   2.630   4.377
17774WAT      O53563   5.203   7.593   5.443
17774WAT     H153564   5.105   7.600   5.464
17774WAT     H253565   5.235   7.501   5.467
17775WAT      O53566   7.341   9.151   8.713
17775WAT     H153567   7.372   9.160   8.808
17775WAT     H253568   7.420   9.131   8.655
17776WAT      O53569   3.085   9.236   3.946
17776WAT     H153570   3.134   9.306   3.895
17776WAT     H253571   3.092   9.254   4.044
17777WAT      O53572   1.756   4.312   2.907
17777WAT     H153573   1.797   4.304   2.816
17777WAT     H253574   1.818   4.360   2.968
17778WAT      O53575   7.523   2.721   7.094
17778WAT     H153576   7.425   2.726   7.115
17778WAT     H253577   7.536   2.722   6.995
17779WAT      O53578   2.303   5.704   0.572
17779WAT     H153579   2.351   5.638   0.631
17779WAT     H253580   2.305   5.794   0.615
17780WAT      O53581   2.705   1.391   0.379
17780WAT     H153582   2.736   1.398   0.474
17780WAT     H253583   2.719   1.297   0.347
17781WAT      O53584   2.617   4.995   0.024
17781WAT     H153585   2.566   5.018  -0.058
17781WAT     H253586   2.649   5.079   0.068
17782WAT      O53587   2.794   0.177   7.679
17782WAT     H153588   2.869   0.165   7.744
17782WAT     H253589   2.762   0.087   7.649
17783WAT      O53590   8.031   4.384   5.512
17783WAT     H153591   7.990   4.329   5.440
17783WAT     H253592   8.077   4.463   5.472
17784WAT      O53593   1.462   7.493   9.334
17784WAT     H153594   1.555   7.519   9.310
17784WAT     H253595   1.412   7.575   9.364
17785WAT      O53596   4.854   2.733   3.615
17785WAT     H153597   4.796   2.687   3.683
17785WAT     H253598   4.804   2.809   3.575
17786WAT      O53599   8.227   5.850   1.636
17786WAT     H153600   8.138   5.885   1.663
17786WAT     H253601   8.238   5.756   1.667
17787WAT      O53602   3.939   4.465   8.929
17787WAT     H153603   3.924   4.540   8.993
17787WAT     H253604   3.918   4.496   8.836
17788WAT      O53605   1.631   5.671   5.370
17788WAT     H153606   1.729   5.686   5.366
17788WAT     H253607   1.584   5.744   5.320
17789WAT      O53608   8.667   9.671   7.541
17789WAT     H153609   8.699   9.671   7.446
17789WAT     H253610   8.596   9.740   7.552
17790WAT      O53611   6.632   2.227   3.819
17790WAT     H153612   6.701   2.201   3.752
17790WAT     H253613   6.654   2.185   3.907
17791WAT      O53614   7.432   0.773   3.938
17791WAT     H153615   7.422   0.681   3.901
17791WAT     H253616   7.364   0.833   3.897
17792WAT      O53617   1.623   1.775   4.938
17792WAT     H153618   1.662   1.767   5.030
17792WAT     H253619   1.656   1.699   4.882
17793WAT      O53620   5.073   4.055   8.571
17793WAT     H153621   5.126   4.134   8.600
17793WAT     H253622   4.997   4.040   8.634
17794WAT      O53623   0.677   9.326   9.778
17794WAT     H153624   0.612   9.396   9.807
17794WAT     H253625   0.730   9.295   9.857
17795WAT      O53626   7.005   4.186   2.507
17795WAT     H153627   7.092   4.171   2.553
17795WAT     H253628   6.969   4.099   2.475
17796WAT      O53629   5.551   9.110   4.562
17796WAT     H153630   5.608   9.129   4.641
17796WAT     H253631   5.484   9.040   4.584
17797WAT      O53632   5.362   1.729   0.073
17797WAT     H153633   5.315   1.802   0.123
17797WAT     H253634   5.336   1.733  -0.023
17798WAT      O53635   7.706   4.554   2.034
17798WAT     H153636   7.621   4.536   1.986
17798WAT     H253637   7.690   4.619   2.109
17799WAT      O53638   4.558   3.038   0.696
17799WAT     H153639   4.589   3.133   0.703
17799WAT     H253640   4.588   2.987   0.776
17800WAT      O53641   2.083   8.131   7.680
17800WAT     H153642   1.997   8.166   7.717
17800WAT     H253643   2.132   8.205   7.634
17801WAT      O53644   7.841   7.706   5.674
17801WAT     H153645   7.886   7.697   5.585
17801WAT     H253646   7.908   7.691   5.746
17802WAT      O53647   8.187   2.455   5.533
17802WAT     H153648   8.225   2.391   5.466
17802WAT     H253649   8.251   2.466   5.609
17803WAT      O53650   9.506   4.297   7.279
17803WAT     H153651   9.475   4.387   7.248
17803WAT     H253652   9.457   4.271   7.362
17804WAT      O53653   3.841   0.108   8.727
17804WAT     H153654   3.802   0.035   8.784
17804WAT     H253655   3.905   0.069   8.662
17805WAT      O53656   6.290   7.596   8.757
17805WAT     H153657   6.296   7.629   8.663
17805WAT     H253658   6.321   7.668   8.819
17806WAT      O53659   9.367   5.125   2.303
17806WAT     H153660   9.420   5.045   2.275
17806WAT     H253661   9.421   5.208   2.288
17807WAT      O53662   5.737   4.129   2.806
17807WAT     H153663   5.721   4.036   2.838
17807WAT     H253664   5.661   4.187   2.834
17808WAT      O53665   6.527   4.717   8.553
17808WAT     H153666   6.477   4.804   8.554
17808WAT     H253667   6.623   4.734   8.574
17809WAT      O53668   6.934   5.325   3.606
17809WAT     H153669   6.869   5.263   3.563
17809WAT     H253670   6.913   5.333   3.704
17810WAT      O53671   7.621   7.913   5.650
17810WAT     H153672   7.684   7.990   5.644
17810WAT     H253673   7.673   7.827   5.652
17811WAT      O53674   2.404   4.232   1.714
17811WAT     H153675   2.459   4.302   1.670
17811WAT     H253676   2.345   4.274   1.783
17812WAT      O53677   6.318   4.713   9.314
17812WAT     H153678   6.364   4.684   9.230
17812WAT     H253679   6.359   4.798   9.347
17813WAT      O53680   8.007   9.266   2.967
17813WAT     H153681   8.015   9.365   2.968
17813WAT     H253682   7.910   9.240   2.965
17814WAT      O53683   8.409   8.598   4.746
17814WAT     H153684   8.423   8.645   4.833
17814WAT     H253685   8.354   8.516   4.761
17815WAT      O53686   4.310   0.305   0.267
17815WAT     H153687   4.246   0.297   0.344
17815WAT     H253688   4.261   0.333   0.185
17816WAT      O53689   7.570   7.957   6.210
17816WAT     H153690   7.566   8.026   6.138
17816WAT     H253691   7.479   7.945   6.250
17817WAT      O53692   6.935   1.923   1.218
17817WAT     H153693   7.028   1.901   1.245
17817WAT     H253694   6.903   2.004   1.268
17818WAT      O53695   6.575   2.743   1.403
17818WAT     H153696   6.562   2.665   1.464
17818WAT     H253697   6.519   2.731   1.321
17819WAT      O53698   1.714   1.891   1.290
17819WAT     H153699   1.750   1.958   1.355
17819WAT     H253700   1.700   1.935   1.202
17820WAT      O53701   6.623   6.492   4.074
17820WAT     H153702   6.717   6.462   4.057
17820WAT     H253703   6.560   6.416   4.054
17821WAT      O53704   0.823   7.832   1.694
17821WAT     H153705   0.779   7.783   1.619
17821WAT     H253706   0.842   7.926   1.666
17822WAT      O53707   4.141   6.001   0.266
17822WAT     H153708   4.214   5.980   0.331
17822WAT     H253709   4.052   5.986   0.308
17823WAT      O53710   0.898   5.224   3.640
17823WAT     H153711   0.886   5.247   3.543
17823WAT     H253712   0.824   5.265   3.692
17824WAT      O53713   7.622   6.985   0.866
17824WAT     H153714   7.523   6.975   0.851
17824WAT     H253715   7.654   6.913   0.928
17825WAT      O53716   7.652   3.223   6.443
17825WAT     H153717   7.671   3.147   6.505
17825WAT     H253718   7.560   3.212   6.405
17826WAT      O53719   2.425   6.296   3.954
17826WAT     H153720   2.515   6.336   3.969
17826WAT     H253721   2.375   6.350   3.886
17827WAT      O53722   1.302   9.591   3.716
17827WAT     H153723   1.399   9.612   3.707
17827WAT     H253724   1.284   9.555   3.807
17828WAT      O53725   5.458   6.223   4.751
17828WAT     H153726   5.549   6.258   4.728
17828WAT     H253727   5.399   6.228   4.670
17829WAT      O53728   1.154   2.568   6.181
17829WAT     H153729   1.055   2.582   6.175
17829WAT     H253730   1.194   2.577   6.089
17830WAT      O53731   9.084   4.934   0.053
17830WAT     H153732   9.151   4.873   0.010
17830WAT     H253733   9.078   5.019   0.000
17831WAT      O53734   6.479   7.555   6.037
17831WAT     H153735   6.381   7.569   6.022
17831WAT     H253736   6.525   7.643   6.043
17832WAT      O53737   1.454   9.448   0.682
17832WAT     H153738   1.382   9.384   0.657
17832WAT     H253739   1.459   9.521   0.613
17833WAT      O53740   2.290   4.329   2.194
17833WAT     H153741   2.266   4.237   2.226
17833WAT     H253742   2.365   4.366   2.250
17834WAT      O53743   4.609   8.075   1.603
17834WAT     H153744   4.698   8.075   1.649
17834WAT     H253745   4.568   8.166   1.611
17835WAT      O53746   9.510   2.116   3.555
17835WAT     H153747   9.596   2.092   3.509
17835WAT     H253748   9.523   2.198   3.609
17836WAT      O53749   9.270   0.453   8.551
17836WAT     H153750   9.177   0.437   8.584
17836WAT     H253751   9.281   0.412   8.460
17837WAT      O53752   9.541   2.217   6.964
17837WAT     H153753   9.473   2.146   6.981
17837WAT     H253754   9.623   2.198   7.019
17838WAT      O53755   7.402   4.543   7.871
17838WAT     H153756   7.455   4.612   7.922
17838WAT     H253757   7.451   4.456   7.871
17839WAT      O53758   4.199   2.024   7.779
17839WAT     H153759   4.132   2.098   7.782
17839WAT     H253760   4.256   2.034   7.697
17840WAT      O53761   7.313   6.996   2.038
17840WAT     H153762   7.271   7.031   2.122
17840WAT     H253763   7.374   7.066   2.000
17841WAT      O53764   7.371   7.753   3.601
17841WAT     H153765   7.382   7.812   3.521
17841WAT     H253766   7.282   7.709   3.599
17842WAT      O53767   7.221   4.646   5.623
17842WAT     H153768   7.204   4.731   5.573
17842WAT     H253769   7.257   4.667   5.713
17843WAT      O53770   5.980   2.380   0.613
17843WAT     H153771   6.067   2.428   0.600
17843WAT     H253772   5.997   2.289   0.649
17844WAT      O53773   9.266   3.241   5.545
17844WAT     H153774   9.346   3.301   5.551
17844WAT     H253775   9.296   3.146   5.546
17845WAT      O53776   5.089   8.997   7.343
17845WAT     H153777   5.052   9.006   7.251
17845WAT     H253778   5.039   8.927   7.394
17846WAT      O53779   3.643   8.833   4.950
17846WAT     H153780   3.639   8.927   4.914
17846WAT     H253781   3.551   8.803   4.975
17847WAT      O53782   8.132   6.824   0.343
17847WAT     H153783   8.035   6.849   0.344
17847WAT     H253784   8.188   6.906   0.335
17848WAT      O53785   1.515   3.321   9.091
17848WAT     H153786   1.534   3.401   9.147
17848WAT     H253787   1.422   3.328   9.054
17849WAT      O53788   0.311   3.538   1.291
17849WAT     H153789   0.394   3.541   1.236
17849WAT     H253790   0.232   3.518   1.233
17850WAT      O53791   3.506   6.341   1.309
17850WAT     H153792   3.512   6.257   1.362
17850WAT     H253793   3.450   6.408   1.358
17851WAT      O53794   5.464   7.935   6.789
17851WAT     H153795   5.485   7.838   6.804
17851WAT     H253796   5.510   7.990   6.858
17852WAT      O53797   6.563   4.939   9.660
17852WAT     H153798   6.580   4.944   9.562
17852WAT     H253799   6.645   4.903   9.706
17853WAT      O53800   6.221   4.799   2.830
17853WAT     H153801   6.204   4.879   2.773
17853WAT     H253802   6.197   4.820   2.925
17854WAT      O53803   1.383   7.612   5.223
17854WAT     H153804   1.430   7.531   5.257
17854WAT     H253805   1.441   7.659   5.157
17855WAT      O53806   4.096   3.473   7.061
17855WAT     H153807   4.194   3.485   7.047
17855WAT     H253808   4.081   3.395   7.122
17856WAT      O53809   8.034   5.371   3.520
17856WAT     H153810   8.061   5.359   3.615
17856WAT     H253811   7.935   5.361   3.512
17857WAT      O53812   8.649   7.135   5.458
17857WAT     H153813   8.654   7.055   5.398
17857WAT     H253814   8.740   7.175   5.467
17858WAT      O53815   3.856   1.085   2.422
17858WAT     H153816   3.783   1.042   2.370
17858WAT     H253817   3.818   1.156   2.481
17859WAT      O53818   3.905   1.680   3.025
17859WAT     H153819   3.893   1.772   2.987
17859WAT     H253820   3.909   1.613   2.951
17860WAT      O53821   6.673   8.771   4.012
17860WAT     H153822   6.580   8.765   3.978
17860WAT     H253823   6.698   8.686   4.059
17861WAT      O53824   3.891   8.611   9.092
17861WAT     H153825   3.879   8.566   9.004
17861WAT     H253826   3.862   8.706   9.086
17862WAT      O53827   3.552   2.770   2.194
17862WAT     H153828   3.639   2.797   2.154
17862WAT     H253829   3.483   2.839   2.173
17863WAT      O53830   3.697   6.956   6.889
17863WAT     H153831   3.622   6.986   6.947
17863WAT     H253832   3.721   7.028   6.824
17864WAT      O53833   3.332   0.036   6.961
17864WAT     H153834   3.318   0.064   6.866
17864WAT     H253835   3.251  -0.014   6.993
17865WAT      O53836   5.964   1.886   0.553
17865WAT     H153837   5.866   1.867   0.545
17865WAT     H253838   6.017   1.810   0.516
17866WAT      O53839   2.482   0.667   5.237
17866WAT     H153840   2.548   0.599   5.204
17866WAT     H253841   2.397   0.620   5.263
17867WAT      O53842   5.525   9.301   7.027
17867WAT     H153843   5.536   9.351   7.113
17867WAT     H253844   5.498   9.365   6.955
17868WAT      O53845   0.200   2.813   8.823
17868WAT     H153846   0.290   2.829   8.782
17868WAT     H253847   0.150   2.900   8.830
17869WAT      O53848   5.923   2.451   1.941
17869WAT     H153849   5.870   2.523   1.987
17869WAT     H253850   5.867   2.369   1.932
17870WAT      O53851   3.138   4.607   5.693
17870WAT     H153852   3.098   4.695   5.668
17870WAT     H253853   3.089   4.568   5.771
17871WAT      O53854   3.090   8.210   4.738
17871WAT     H153855   2.998   8.205   4.699
17871WAT     H253856   3.107   8.128   4.793
17872WAT      O53857   1.404   0.664   1.993
17872WAT     H153858   1.408   0.764   1.998
17872WAT     H253859   1.377   0.636   1.901
17873WAT      O53860   9.316   6.350   0.196
17873WAT     H153861   9.288   6.415   0.125
17873WAT     H253862   9.412   6.366   0.219
17874WAT      O53863   2.794   5.703   6.859
17874WAT     H153864   2.856   5.628   6.882
17874WAT     H253865   2.843   5.790   6.864
17875WAT      O53866   2.364   0.924   1.682
17875WAT     H153867   2.272   0.964   1.688
17875WAT     H253868   2.427   0.979   1.736
17876WAT      O53869   9.837   2.286   7.019
17876WAT     H153870   9.855   2.327   7.108
17876WAT     H253871   9.811   2.358   6.954
17877WAT      O53872   2.267   4.796   6.423
17877WAT     H153873   2.331   4.779   6.348
17877WAT     H253874   2.195   4.858   6.392
17878WAT      O53875   3.220   1.217   4.966
17878WAT     H153876   3.286   1.292   4.956
17878WAT     H253877   3.254   1.137   4.917
17879WAT      O53878   6.556   0.918   9.294
17879WAT     H153879   6.578   0.987   9.363
17879WAT     H253880   6.565   0.958   9.203
17880WAT      O53881   3.372   1.479   0.400
17880WAT     H153882   3.360   1.577   0.383
17880WAT     H253883   3.435   1.466   0.477
17881WAT      O53884   8.708   3.899   7.584
17881WAT     H153885   8.683   3.961   7.658
17881WAT     H253886   8.684   3.941   7.496
17882WAT      O53887   1.915   3.194   6.630
17882WAT     H153888   1.817   3.183   6.649
17882WAT     H253889   1.952   3.267   6.687
17883WAT      O53890   0.845   8.717   7.792
17883WAT     H153891   0.902   8.698   7.713
17883WAT     H253892   0.750   8.695   7.771
17884WAT      O53893   8.787   3.084   4.929
17884WAT     H153894   8.875   3.059   4.971
17884WAT     H253895   8.796   3.084   4.830
17885WAT      O53896   7.792   6.028   8.530
17885WAT     H153897   7.717   6.088   8.503
17885WAT     H253898   7.869   6.040   8.468
17886WAT      O53899   0.011   3.532   9.185
17886WAT     H153900  -0.013   3.565   9.276
17886WAT     H253901  -0.066   3.548   9.123
17887WAT      O53902   9.784   0.751   0.613
17887WAT     H153903   9.866   0.701   0.586
17887WAT     H253904   9.715   0.687   0.646
17888WAT      O53905   4.580   0.643   6.608
17888WAT     H153906   4.585   0.587   6.525
17888WAT     H253907   4.497   0.621   6.659
17889WAT      O53908   4.161   8.410   5.560
17889WAT     H153909   4.130   8.352   5.635
17889WAT     H253910   4.191   8.352   5.483
17890WAT      O53911   1.409   5.490   0.600
17890WAT     H153912   1.487   5.531   0.553
17890WAT     H253913   1.420   5.391   0.603
17891WAT      O53914   0.298   2.273   6.597
17891WAT     H153915   0.235   2.252   6.672
17891WAT     H253916   0.391   2.279   6.633
17892WAT      O53917   8.246   3.300   8.503
17892WAT     H153918   8.196   3.322   8.419
17892WAT     H253919   8.283   3.384   8.543
17893WAT      O53920   4.302   3.115   3.491
17893WAT     H153921   4.371   3.187   3.490
17893WAT     H253922   4.303   3.068   3.579
17894WAT      O53923   9.162   5.394   4.313
17894WAT     H153924   9.150   5.361   4.406
17894WAT     H253925   9.122   5.328   4.249
17895WAT      O53926   4.927   5.288   0.378
17895WAT     H153927   4.864   5.358   0.345
17895WAT     H253928   5.014   5.295   0.330
17896WAT      O53929   0.516   1.026   0.707
17896WAT     H153930   0.487   0.937   0.741
17896WAT     H253931   0.613   1.038   0.726
17897WAT      O53932   8.336   0.959   0.189
17897WAT     H153933   8.303   1.028   0.124
17897WAT     H253934   8.257   0.909   0.226
17898WAT      O53935   3.144   4.196   9.001
17898WAT     H153936   3.236   4.179   8.965
17898WAT     H253937   3.139   4.167   9.096
17899WAT      O53938   0.532   4.577   5.091
17899WAT     H153939   0.477   4.626   5.158
17899WAT     H253940   0.489   4.489   5.071
17900WAT      O53941   2.225   1.056   9.745
17900WAT     H153942   2.306   1.075   9.688
17900WAT     H253943   2.233   1.106   9.831
17901WAT      O53944   8.329   0.860   9.705
17901WAT     H153945   8.298   0.913   9.625
17901WAT     H253946   8.290   0.900   9.788
17902WAT      O53947   4.875   6.665   5.967
17902WAT     H153948   4.814   6.724   6.021
17902WAT     H253949   4.970   6.683   5.993
17903WAT      O53950   4.993   6.666   7.272
17903WAT     H153951   4.982   6.760   7.305
17903WAT     H253952   4.916   6.611   7.304
17904WAT      O53953   4.111   6.501   2.965
17904WAT     H153954   4.033   6.471   3.019
17904WAT     H253955   4.094   6.594   2.931
17905WAT      O53956   8.875   6.818   3.881
17905WAT     H153957   8.929   6.823   3.797
17905WAT     H253958   8.884   6.727   3.922
17906WAT      O53959   5.950   8.946   1.185
17906WAT     H153960   6.039   8.958   1.143
17906WAT     H253961   5.912   9.036   1.209
17907WAT      O53962   0.264   3.388   3.759
17907WAT     H153963   0.214   3.337   3.689
17907WAT     H253964   0.238   3.485   3.754
17908WAT      O53965   7.939   7.102   3.593
17908WAT     H153966   7.976   7.074   3.504
17908WAT     H253967   7.909   7.021   3.643
17909WAT      O53968   8.565   1.552   1.597
17909WAT     H153969   8.523   1.634   1.637
17909WAT     H253970   8.582   1.567   1.500
17910WAT      O53971   7.978   2.623   4.942
17910WAT     H153972   7.879   2.607   4.932
17910WAT     H253973   8.019   2.633   4.851
17911WAT      O53974   2.332   6.035   9.674
17911WAT     H153975   2.302   5.940   9.672
17911WAT     H253976   2.432   6.038   9.669
17912WAT      O53977   6.372   0.025   4.813
17912WAT     H153978   6.385   0.118   4.779
17912WAT     H253979   6.362   0.027   4.913
17913WAT      O53980   0.950   7.545   1.748
17913WAT     H153981   0.976   7.629   1.795
17913WAT     H253982   0.958   7.557   1.650
17914WAT      O53983   6.004   0.892   5.497
17914WAT     H153984   5.950   0.911   5.579
17914WAT     H253985   6.095   0.862   5.523
17915WAT      O53986   6.035   8.853   7.387
17915WAT     H153987   6.123   8.811   7.364
17915WAT     H253988   6.046   8.952   7.398
17916WAT      O53989   7.085   9.196   8.833
17916WAT     H153990   7.048   9.288   8.846
17916WAT     H253991   7.177   9.203   8.794
17917WAT      O53992   3.983   3.180   8.801
17917WAT     H153993   3.904   3.232   8.833
17917WAT     H253994   4.025   3.227   8.723
17918WAT      O53995   3.018   7.885   1.231
17918WAT     H153996   3.026   7.854   1.326
17918WAT     H253997   3.101   7.934   1.205
17919WAT      O53998   2.072   5.253   1.697
17919WAT     H153999   2.127   5.325   1.654
17919WAT     H254000   1.993   5.233   1.639
17920WAT      O54001   2.426   6.899   7.013
17920WAT     H154002   2.513   6.867   6.978
17920WAT     H254003   2.354   6.882   6.946
17921WAT      O54004   6.070   5.862   4.941
17921WAT     H154005   6.112   5.948   4.969
17921WAT     H254006   6.119   5.826   4.862
17922WAT      O54007   1.136   6.783   8.343
17922WAT     H154008   1.216   6.835   8.374
17922WAT     H254009   1.066   6.846   8.308
17923WAT      O54010   4.290   8.832   5.182
17923WAT     H154011   4.288   8.794   5.089
17923WAT     H254012   4.377   8.808   5.225
17924WAT      O54013   7.127   1.650   4.411
17924WAT     H154014   7.162   1.640   4.318
17924WAT     H254015   7.116   1.747   4.432
17925WAT      O54016   9.226   6.777   7.665
17925WAT     H154017   9.149   6.715   7.673
17925WAT     H254018   9.296   6.752   7.732
17926WAT      O54019   3.383   1.274   7.034
17926WAT     H154020   3.377   1.321   6.946
17926WAT     H254021   3.294   1.276   7.079
17927WAT      O54022   4.416   3.494   2.313
17927WAT     H154023   4.508   3.515   2.346
17927WAT     H254024   4.422   3.437   2.230
17928WAT      O54025   3.002   1.307   3.171
17928WAT     H154026   2.988   1.273   3.078
17928WAT     H254027   3.030   1.403   3.168
17929WAT      O54028   6.189   4.378   1.498
17929WAT     H154029   6.228   4.449   1.439
17929WAT     H254030   6.089   4.388   1.501
17930WAT      O54031   2.322   4.982   4.914
17930WAT     H154032   2.255   5.015   4.847
17930WAT     H254033   2.352   4.891   4.888
17931WAT      O54034   1.691   7.011   0.558
17931WAT     H154035   1.719   7.100   0.522
17931WAT     H254036   1.745   6.990   0.640
17932WAT      O54037   4.825   4.576   5.707
17932WAT     H154038   4.819   4.575   5.607
17932WAT     H254039   4.909   4.530   5.736
17933WAT      O54040   3.658   9.226   1.242
17933WAT     H154041   3.576   9.269   1.279
17933WAT     H254042   3.674   9.139   1.289
17934WAT      O54043   2.647   1.987   6.927
17934WAT     H154044   2.623   1.911   6.867
17934WAT     H254045   2.747   1.998   6.929
17935WAT      O54046   9.685   8.863   0.648
17935WAT     H154047   9.751   8.938   0.656
17935WAT     H254048   9.628   8.860   0.730
17936WAT      O54049   1.882   8.450   3.528
17936WAT     H154050   1.928   8.510   3.462
17936WAT     H254051   1.914   8.472   3.620
17937WAT      O54052   8.881   7.296   2.578
17937WAT     H154053   8.794   7.343   2.563
17937WAT     H254054   8.863   7.205   2.616
17938WAT      O54055   5.462   0.489   9.508
17938WAT     H154056   5.367   0.490   9.477
17938WAT     H254057   5.504   0.401   9.484
17939WAT      O54058   5.911   2.240   3.746
17939WAT     H154059   6.008   2.231   3.768
17939WAT     H254060   5.898   2.322   3.690
17940WAT      O54061   9.503   9.688   8.236
17940WAT     H154062   9.413   9.679   8.279
17940WAT     H254063   9.505   9.770   8.179
17941WAT      O54064   0.921   0.880   4.594
17941WAT     H154065   1.012   0.850   4.622
17941WAT     H254066   0.866   0.800   4.571
17942WAT      O54067   5.124   7.143   6.523
17942WAT     H154068   5.055   7.085   6.567
17942WAT     H254069   5.094   7.239   6.526
17943WAT      O54070   9.654   5.690   3.432
17943WAT     H154071   9.693   5.666   3.343
17943WAT     H254072   9.705   5.766   3.471
17944WAT      O54073   7.360   9.098   0.661
17944WAT     H154074   7.264   9.120   0.640
17944WAT     H254075   7.373   8.999   0.654
17945WAT      O54076   9.078   0.842   4.474
17945WAT     H154077   9.161   0.892   4.449
17945WAT     H254078   9.092   0.744   4.457
17946WAT      O54079   8.258   1.063   5.710
17946WAT     H154080   8.237   1.151   5.752
17946WAT     H254081   8.349   1.067   5.668
17947WAT      O54082   4.449   3.326   2.061
17947WAT     H154083   4.481   3.232   2.054
17947WAT     H254084   4.523   3.388   2.033
17948WAT      O54085   7.301   7.210   7.530
17948WAT     H154086   7.257   7.291   7.492
17948WAT     H254087   7.285   7.205   7.628
17949WAT      O54088   3.052   1.702   1.288
17949WAT     H154089   3.088   1.609   1.298
17949WAT     H254090   2.973   1.700   1.226
17950WAT      O54091   8.035   0.125   0.367
17950WAT     H154092   8.096   0.135   0.446
17950WAT     H254093   7.940   0.120   0.399
17951WAT      O54094   3.058   7.684   3.530
17951WAT     H154095   3.128   7.613   3.528
17951WAT     H254096   3.021   7.692   3.623
17952WAT      O54097   1.439   5.626   5.828
17952WAT     H154098   1.475   5.535   5.808
17952WAT     H254099   1.459   5.688   5.752
17953WAT      O54100   2.216   0.718   4.186
17953WAT     H154101   2.192   0.719   4.089
17953WAT     H254102   2.234   0.624   4.215
17954WAT      O54103   5.271   7.675   9.189
17954WAT     H154104   5.249   7.712   9.279
17954WAT     H254105   5.366   7.696   9.166
17955WAT      O54106   6.707   5.832   2.183
17955WAT     H154107   6.632   5.799   2.240
17955WAT     H254108   6.688   5.811   2.087
17956WAT      O54109   6.580   9.371   2.217
17956WAT     H154110   6.524   9.379   2.299
17956WAT     H254111   6.624   9.281   2.215
17957WAT      O54112   6.564   6.494   7.609
17957WAT     H154113   6.616   6.571   7.573
17957WAT     H254114   6.569   6.418   7.545
17958WAT      O54115   9.270   1.286   3.006
17958WAT     H154116   9.335   1.230   3.057
17958WAT     H254117   9.272   1.380   3.041
17959WAT      O54118   6.033   4.953   1.430
17959WAT     H154119   6.019   4.873   1.488
17959WAT     H254120   6.127   4.953   1.396
17960WAT      O54121   7.904   8.750   8.037
17960WAT     H154122   7.812   8.740   8.073
17960WAT     H254123   7.970   8.715   8.103
17961WAT      O54124   3.867   4.973   3.882
17961WAT     H154125   3.816   4.995   3.965
17961WAT     H254126   3.827   5.022   3.804
17962WAT      O54127   5.971   9.599   1.493
17962WAT     H154128   6.070   9.594   1.479
17962WAT     H254129   5.945   9.541   1.570
17963WAT      O54130   8.207   9.244   5.844
17963WAT     H154131   8.145   9.304   5.895
17963WAT     H254132   8.300   9.279   5.852
17964WAT      O54133   8.906   4.543   3.973
17964WAT     H154134   8.844   4.481   4.022
17964WAT     H254135   8.855   4.598   3.908
17965WAT      O54136   5.693   6.734   3.344
17965WAT     H154137   5.699   6.671   3.266
17965WAT     H254138   5.679   6.827   3.310
17966WAT      O54139   8.129   3.795   6.850
17966WAT     H154140   8.054   3.830   6.907
17966WAT     H254141   8.210   3.852   6.864
17967WAT      O54142   3.922   6.149   4.697
17967WAT     H154143   4.001   6.130   4.754
17967WAT     H254144   3.951   6.166   4.603
17968WAT      O54145   8.368   9.229   3.499
17968WAT     H154146   8.377   9.315   3.450
17968WAT     H254147   8.449   9.216   3.557
17969WAT      O54148   1.769   3.860   4.933
17969WAT     H154149   1.785   3.865   5.031
17969WAT     H254150   1.752   3.952   4.898
17970WAT      O54151   7.489   7.661   6.524
17970WAT     H154152   7.457   7.660   6.429
17970WAT     H254153   7.529   7.572   6.547
17971WAT      O54154   2.224   2.452   6.558
17971WAT     H154155   2.246   2.416   6.648
17971WAT     H254156   2.129   2.484   6.557
17972WAT      O54157   4.653   9.496   4.183
17972WAT     H154158   4.597   9.420   4.215
17972WAT     H254159   4.682   9.551   4.261
17973WAT      O54160   8.831   4.890   6.067
17973WAT     H154161   8.921   4.934   6.065
17973WAT     H254162   8.759   4.960   6.065
17974WAT      O54163   8.234   9.139   2.393
17974WAT     H154164   8.182   9.117   2.310
17974WAT     H254165   8.331   9.126   2.376
17975WAT      O54166   1.583   4.716   2.697
17975WAT     H154167   1.583   4.812   2.668
17975WAT     H254168   1.645   4.705   2.774
17976WAT      O54169   6.109   8.252   9.161
17976WAT     H154170   6.088   8.159   9.131
17976WAT     H254171   6.146   8.305   9.084
17977WAT      O54172   7.827   1.418   3.546
17977WAT     H154173   7.868   1.457   3.464
17977WAT     H254174   7.862   1.326   3.561
17978WAT      O54175   9.091   6.112   3.554
17978WAT     H154176   9.127   6.018   3.554
17978WAT     H254177   9.136   6.165   3.482
17979WAT      O54178   5.978   2.192   6.848
17979WAT     H154179   5.971   2.230   6.940
17979WAT     H254180   5.904   2.126   6.833
17980WAT      O54181   0.317   9.689   1.362
17980WAT     H154182   0.350   9.722   1.274
17980WAT     H254183   0.395   9.663   1.419
17981WAT      O54184   5.944   2.039   9.620
17981WAT     H154185   5.967   1.998   9.532
17981WAT     H254186   6.026   2.076   9.663
17982WAT      O54187   9.786   0.952   2.488
17982WAT     H154188   9.714   0.885   2.506
17982WAT     H254189   9.799   1.009   2.569
17983WAT      O54190   7.201   0.020   7.061
17983WAT     H154191   7.205   0.058   6.969
17983WAT     H254192   7.177  -0.077   7.056
17984WAT      O54193   9.325   8.261   4.261
17984WAT     H154194   9.397   8.258   4.192
17984WAT     H254195   9.349   8.329   4.331
17985WAT      O54196   0.171   5.990   2.454
17985WAT     H154197   0.126   6.024   2.372
17985WAT     H254198   0.130   6.032   2.535
17986WAT      O54199   1.413   8.582   1.631
17986WAT     H154200   1.455   8.510   1.685
17986WAT     H254201   1.476   8.659   1.622
17987WAT      O54202   4.526   0.443   7.603
17987WAT     H154203   4.513   0.403   7.513
17987WAT     H254204   4.557   0.537   7.593
17988WAT      O54205   4.817   1.929   5.105
17988WAT     H154206   4.769   1.935   5.018
17988WAT     H254207   4.915   1.926   5.089
17989WAT      O54208   6.195   4.302   7.187
17989WAT     H154209   6.272   4.310   7.251
17989WAT     H254210   6.190   4.208   7.153
17990WAT      O54211   1.659   7.252   3.783
17990WAT     H154212   1.632   7.343   3.814
17990WAT     H254213   1.578   7.200   3.758
17991WAT      O54214   3.920   7.783   9.817
17991WAT     H154215   4.002   7.749   9.864
17991WAT     H254216   3.874   7.707   9.772
17992WAT      O54217   9.544   0.665   2.150
17992WAT     H154218   9.496   0.649   2.237
17992WAT     H254219   9.579   0.577   2.116
17993WAT      O54220   9.790   6.388   3.735
17993WAT     H154221   9.887   6.397   3.758
17993WAT     H254222   9.778   6.401   3.637
17994WAT      O54223   3.977   0.581   8.250
17994WAT     H154224   3.968   0.572   8.151
17994WAT     H254225   4.060   0.632   8.272
17995WAT      O54226   7.754   2.473   4.218
17995WAT     H154227   7.838   2.485   4.271
17995WAT     H254228   7.704   2.393   4.251
17996WAT      O54229   6.841   1.782   4.735
17996WAT     H154230   6.870   1.839   4.812
17996WAT     H254231   6.842   1.836   4.651
17997WAT      O54232   0.977   4.799   9.004
17997WAT     H154233   0.990   4.701   9.021
17997WAT     H254234   0.883   4.816   8.975
17998WAT      O54235   2.990   8.782   4.557
17998WAT     H154236   2.966   8.861   4.500
17998WAT     H254237   2.920   8.711   4.546
17999WAT      O54238   3.014   1.069   2.340
17999WAT     H154239   3.069   1.141   2.298
17999WAT     H254240   3.072   0.992   2.364
18000WAT      O54241   4.915   9.762   8.198
18000WAT     H154242   4.935   9.821   8.120
18000WAT     H254243   4.816   9.761   8.215
18001WAT      O54244   3.407   6.363   3.287
18001WAT     H154245   3.308   6.376   3.294
18001WAT     H254246   3.436   6.380   3.193
18002WAT      O54247   1.798   3.759   2.292
18002WAT     H154248   1.727   3.709   2.341
18002WAT     H254249   1.885   3.712   2.303
18003WAT      O54250   7.392   0.986   4.127
18003WAT     H154251   7.294   0.994   4.148
18003WAT     H254252   7.404   0.927   4.047
18004WAT      O54253   1.737   1.784   6.881
18004WAT     H154254   1.648   1.762   6.921
18004WAT     H254255   1.774   1.702   6.838
18005WAT      O54256   5.300   6.176   7.255
18005WAT     H154257   5.271   6.240   7.326
18005WAT     H254258   5.396   6.191   7.234
18006WAT      O54259   7.504   4.215   2.665
18006WAT     H154260   7.582   4.158   2.640
18006WAT     H254261   7.517   4.250   2.758
18007WAT      O54262   7.285   1.248   4.248
18007WAT     H154263   7.185   1.253   4.249
18007WAT     H254264   7.318   1.210   4.334
18008WAT      O54265   6.160   0.071   1.987
18008WAT     H154266   6.109   0.042   1.906
18008WAT     H254267   6.103   0.057   2.068
18009WAT      O54268   6.930   4.944   7.069
18009WAT     H154269   6.890   5.007   7.002
18009WAT     H254270   6.873   4.862   7.075
18010WAT      O54271   8.066   4.087   8.795
18010WAT     H154272   8.017   4.112   8.711
18010WAT     H254273   8.159   4.122   8.791
18011WAT      O54274   4.859   0.069   3.849
18011WAT     H154275   4.759   0.079   3.842
18011WAT     H254276   4.898   0.151   3.890
18012WAT      O54277   7.433   6.022   3.447
18012WAT     H154278   7.524   5.997   3.414
18012WAT     H254279   7.378   6.056   3.370
18013WAT      O54280   7.231   7.876   0.839
18013WAT     H154281   7.242   7.862   0.740
18013WAT     H254282   7.310   7.926   0.874
18014WAT      O54283   1.961   0.386   5.223
18014WAT     H154284   1.864   0.406   5.235
18014WAT     H254285   2.006   0.463   5.178
18015WAT      O54286   8.174   4.880   7.842
18015WAT     H154287   8.272   4.886   7.864
18015WAT     H254288   8.125   4.954   7.888
18016WAT      O54289   6.216   3.525   9.643
18016WAT     H154290   6.251   3.461   9.711
18016WAT     H254291   6.284   3.539   9.571
18017WAT      O54292   7.683   2.657   4.762
18017WAT     H154293   7.659   2.591   4.690
18017WAT     H254294   7.700   2.608   4.847
18018WAT      O54295   9.834   8.790   9.249
18018WAT     H154296   9.872   8.876   9.215
18018WAT     H254297   9.757   8.762   9.192
18019WAT      O54298   6.592   4.948   5.339
18019WAT     H154299   6.575   5.041   5.370
18019WAT     H254300   6.537   4.928   5.258
18020WAT      O54301   0.921   5.379   0.011
18020WAT     H154302   0.842   5.391   0.071
18020WAT     H254303   0.958   5.287   0.021
18021WAT      O54304   7.036   5.333   7.009
18021WAT     H154305   6.955   5.277   6.993
18021WAT     H254306   7.082   5.350   6.922
18022WAT      O54307   7.279   1.690   3.564
18022WAT     H154308   7.288   1.638   3.479
18022WAT     H254309   7.278   1.788   3.544
18023WAT      O54310   2.748   5.256   7.464
18023WAT     H154311   2.812   5.237   7.389
18023WAT     H254312   2.792   5.314   7.532
18024WAT      O54313   6.076   6.543   7.750
18024WAT     H154314   6.098   6.609   7.678
18024WAT     H254315   5.993   6.494   7.726
18025WAT      O54316   3.164   1.272   4.430
18025WAT     H154317   3.086   1.316   4.475
18025WAT     H254318   3.157   1.286   4.331
18026WAT      O54319   1.290   3.222   1.624
18026WAT     H154320   1.272   3.252   1.718
18026WAT     H254321   1.387   3.235   1.602
18027WAT      O54322   4.782   8.968   3.906
18027WAT     H154323   4.817   8.910   3.832
18027WAT     H254324   4.684   8.981   3.895
18028WAT      O54325   3.699   1.616   4.110
18028WAT     H154326   3.645   1.690   4.069
18028WAT     H254327   3.796   1.641   4.111
18029WAT      O54328   8.270   6.682   9.387
18029WAT     H154329   8.337   6.700   9.314
18029WAT     H254330   8.178   6.686   9.348
18030WAT      O54331   8.486   9.650   9.891
18030WAT     H154332   8.508   9.717   9.819
18030WAT     H254333   8.556   9.579   9.893
18031WAT      O54334   4.520   8.680   6.137
18031WAT     H154335   4.546   8.629   6.055
18031WAT     H254336   4.429   8.720   6.123
18032WAT      O54337   0.296   6.261   9.669
18032WAT     H154338   0.226   6.247   9.739
18032WAT     H254339   0.263   6.326   9.601
18033WAT      O54340   1.225   9.429   2.882
18033WAT     H154341   1.320   9.419   2.854
18033WAT     H254342   1.168   9.443   2.801
18034WAT      O54343   8.224   4.530   8.911
18034WAT     H154344   8.274   4.456   8.957
18034WAT     H254345   8.133   4.538   8.950
18035WAT      O54346   4.371   0.494   6.117
18035WAT     H154347   4.386   0.472   6.213
18035WAT     H254348   4.422   0.577   6.094
18036WAT      O54349   3.081   3.879   4.012
18036WAT     H154350   3.133   3.897   3.928
18036WAT     H254351   3.093   3.956   4.075
18037WAT      O54352   4.648   7.515   3.306
18037WAT     H154353   4.734   7.565   3.306
18037WAT     H254354   4.590   7.547   3.381
18038WAT      O54355   5.647   6.705   8.699
18038WAT     H154356   5.603   6.795   8.707
18038WAT     H254357   5.655   6.680   8.603
18039WAT      O54358   1.899   1.377   8.235
18039WAT     H154359   1.877   1.296   8.288
18039WAT     H254360   1.986   1.363   8.188
18040WAT      O54361   9.661   9.680   2.841
18040WAT     H154362   9.654   9.762   2.783
18040WAT     H254363   9.624   9.700   2.931
18041WAT      O54364   1.123   6.667   9.869
18041WAT     H154365   1.070   6.721   9.934
18041WAT     H254366   1.094   6.571   9.874
18042WAT      O54367   1.594   2.138   5.375
18042WAT     H154368   1.659   2.194   5.427
18042WAT     H254369   1.532   2.091   5.438
18043WAT      O54370   2.151   2.075   7.816
18043WAT     H154371   2.135   2.174   7.815
18043WAT     H254372   2.248   2.057   7.800
18044WAT      O54373   3.371   7.226   9.763
18044WAT     H154374   3.272   7.228   9.770
18044WAT     H254375   3.408   7.157   9.825
18045WAT      O54376   8.658   6.181   3.955
18045WAT     H154377   8.733   6.120   3.982
18045WAT     H254378   8.662   6.264   4.011
18046WAT      O54379   4.300   7.527   4.807
18046WAT     H154380   4.235   7.531   4.883
18046WAT     H254381   4.287   7.441   4.756
18047WAT      O54382   3.267   4.020   0.225
18047WAT     H154383   3.350   4.057   0.267
18047WAT     H254384   3.188   4.074   0.253
18048WAT      O54385   5.666   0.346   5.617
18048WAT     H154386   5.649   0.294   5.533
18048WAT     H254387   5.742   0.306   5.667
18049WAT      O54388   2.933   8.514   2.587
18049WAT     H154389   2.915   8.420   2.557
18049WAT     H254390   2.983   8.563   2.516
18050WAT      O54391   0.108   6.527   7.799
18050WAT     H154392   0.036   6.590   7.827
18050WAT     H254393   0.129   6.464   7.874
18051WAT      O54394   6.313   7.280   2.740
18051WAT     H154395   6.379   7.349   2.713
18051WAT     H254396   6.346   7.233   2.822
18052WAT      O54397   4.646   1.438   4.088
18052WAT     H154398   4.547   1.444   4.079
18052WAT     H254399   4.684   1.530   4.098
18053WAT      O54400   3.522   9.580   4.580
18053WAT     H154401   3.528   9.565   4.678
18053WAT     H254402   3.445   9.640   4.560
18054WAT      O54403   3.459   1.364   1.991
18054WAT     H154404   3.362   1.386   1.984
18054WAT     H254405   3.512   1.429   1.937
18055WAT      O54406   2.768   1.933   2.392
18055WAT     H154407   2.862   1.956   2.418
18055WAT     H254408   2.715   1.911   2.474
18056WAT      O54409   3.731   6.396   5.116
18056WAT     H154410   3.643   6.419   5.158
18056WAT     H254411   3.763   6.473   5.061
18057WAT      O54412   2.790   6.899   1.179
18057WAT     H154413   2.830   6.990   1.176
18057WAT     H254414   2.863   6.830   1.174
18058WAT      O54415   1.363   2.809   9.012
18058WAT     H154416   1.409   2.846   8.932
18058WAT     H254417   1.417   2.827   9.094
18059WAT      O54418   4.535   9.320   9.347
18059WAT     H154419   4.496   9.231   9.366
18059WAT     H254420   4.462   9.389   9.343
18060WAT      O54421   1.329   1.720   4.610
18060WAT     H154422   1.296   1.803   4.565
18060WAT     H254423   1.317   1.729   4.708
18061WAT      O54424   1.280   0.048   8.360
18061WAT     H154425   1.243  -0.044   8.357
18061WAT     H254426   1.338   0.059   8.441
18062WAT      O54427   1.261   3.194   7.740
18062WAT     H154428   1.205   3.276   7.727
18062WAT     H254429   1.343   3.217   7.792
18063WAT      O54430   3.022   6.245   0.152
18063WAT     H154431   2.958   6.244   0.229
18063WAT     H254432   3.114   6.266   0.185
18064WAT      O54433   1.583   5.830   7.349
18064WAT     H154434   1.570   5.731   7.361
18064WAT     H254435   1.621   5.869   7.433
18065WAT      O54436   2.642   8.395   1.600
18065WAT     H154437   2.593   8.438   1.676
18065WAT     H254438   2.709   8.460   1.563
18066WAT      O54439   5.750   6.513   1.335
18066WAT     H154440   5.656   6.479   1.332
18066WAT     H254441   5.806   6.450   1.390
18067WAT      O54442   1.259   8.861   5.245
18067WAT     H154443   1.286   8.870   5.149
18067WAT     H254444   1.167   8.824   5.251
18068WAT      O54445   5.191   6.108   9.765
18068WAT     H154446   5.276   6.074   9.804
18068WAT     H254447   5.200   6.114   9.665
18069WAT      O54448   1.878   6.499   0.987
18069WAT     H154449   1.861   6.411   0.943
18069WAT     H254450   1.910   6.484   1.080
18070WAT      O54451   2.317   5.608   5.892
18070WAT     H154452   2.218   5.613   5.884
18070WAT     H254453   2.358   5.599   5.801
18071WAT      O54454   8.747   8.087   8.389
18071WAT     H154455   8.830   8.057   8.436
18071WAT     H254456   8.668   8.041   8.430
18072WAT      O54457   6.298   5.976   5.770
18072WAT     H154458   6.316   5.918   5.690
18072WAT     H254459   6.385   6.009   5.807
18073WAT      O54460   3.590   8.613   7.156
18073WAT     H154461   3.609   8.703   7.196
18073WAT     H254462   3.620   8.612   7.061
18074WAT      O54463   3.985   4.039   3.480
18074WAT     H154464   3.903   4.005   3.432
18074WAT     H254465   3.958   4.113   3.542
18075WAT      O54466   3.520   7.961   6.086
18075WAT     H154467   3.450   7.892   6.070
18075WAT     H254468   3.520   8.027   6.011
18076WAT      O54469   4.773   5.496   3.306
18076WAT     H154470   4.761   5.437   3.386
18076WAT     H254471   4.838   5.569   3.328
18077WAT      O54472   1.459   9.696   6.635
18077WAT     H154473   1.403   9.616   6.616
18077WAT     H254474   1.553   9.679   6.606
18078WAT      O54475   9.686   7.416   7.830
18078WAT     H154476   9.756   7.465   7.881
18078WAT     H254477   9.621   7.374   7.894
18079WAT      O54478   4.508   9.553   6.368
18079WAT     H154479   4.565   9.470   6.370
18079WAT     H254480   4.432   9.539   6.305
18080WAT      O54481   7.088   8.998   8.995
18080WAT     H154482   7.099   9.065   8.922
18080WAT     H254483   7.025   8.927   8.966
18081WAT      O54484   7.919   6.750   0.648
18081WAT     H154485   7.951   6.746   0.554
18081WAT     H254486   7.886   6.659   0.676
18082WAT      O54487   3.120   8.230   7.849
18082WAT     H154488   3.047   8.162   7.838
18082WAT     H254489   3.080   8.322   7.842
18083WAT      O54490   5.749   5.189   7.115
18083WAT     H154491   5.665   5.156   7.159
18083WAT     H254492   5.828   5.144   7.156
18084WAT      O54493   9.590   8.652   1.351
18084WAT     H154494   9.625   8.562   1.324
18084WAT     H254495   9.667   8.716   1.359
18085WAT      O54496   0.238   3.714   1.523
18085WAT     H154497   0.206   3.797   1.477
18085WAT     H254498   0.254   3.642   1.455
18086WAT      O54499   2.503   8.333   7.224
18086WAT     H154500   2.580   8.390   7.195
18086WAT     H254501   2.532   8.237   7.225
18087WAT      O54502   7.860   7.451   8.036
18087WAT     H154503   7.839   7.531   7.981
18087WAT     H254504   7.851   7.368   7.980
18088WAT      O54505   7.528   6.921   0.160
18088WAT     H154506   7.627   6.937   0.156
18088WAT     H254507   7.480   7.001   0.125
18089WAT      O54508   3.449   1.047   5.626
18089WAT     H154509   3.465   1.073   5.531
18089WAT     H254510   3.536   1.035   5.673
18090WAT      O54511   2.796   9.512   7.041
18090WAT     H154512   2.714   9.550   7.083
18090WAT     H254513   2.874   9.572   7.057
18091WAT      O54514   5.363   6.879   7.744
18091WAT     H154515   5.353   6.780   7.746
18091WAT     H254516   5.414   6.909   7.825
18092WAT      O54517   5.382   7.329   8.995
18092WAT     H154518   5.307   7.389   9.024
18092WAT     H254519   5.470   7.372   9.014
18093WAT      O54520   3.685   3.977   7.708
18093WAT     H154521   3.709   3.894   7.759
18093WAT     H254522   3.627   3.952   7.631
18094WAT      O54523   1.752   6.376   2.764
18094WAT     H154524   1.705   6.289   2.752
18094WAT     H254525   1.851   6.360   2.762
18095WAT      O54526   8.152   0.668   5.459
18095WAT     H154527   8.073   0.718   5.496
18095WAT     H254528   8.128   0.630   5.370
18096WAT      O54529   0.325   8.427   4.025
18096WAT     H154530   0.415   8.415   4.067
18096WAT     H254531   0.331   8.495   3.952
18097WAT      O54532   7.771   3.308   3.173
18097WAT     H154533   7.700   3.334   3.239
18097WAT     H254534   7.733   3.243   3.107
18098WAT      O54535   6.727   5.243   5.014
18098WAT     H154536   6.684   5.163   4.972
18098WAT     H254537   6.826   5.232   5.015
18099WAT      O54538   8.493   7.806   2.788
18099WAT     H154539   8.438   7.889   2.786
18099WAT     H254540   8.559   7.811   2.863
18100WAT      O54541   8.443   4.985   2.083
18100WAT     H154542   8.345   4.975   2.064
18100WAT     H254543   8.455   5.054   2.155
18101WAT      O54544   7.815   5.815   8.137
18101WAT     H154545   7.745   5.830   8.068
18101WAT     H254546   7.771   5.793   8.224
18102WAT      O54547   8.179   0.370   9.425
18102WAT     H154548   8.195   0.464   9.454
18102WAT     H254549   8.092   0.365   9.375
18103WAT      O54550   5.564   2.582   9.371
18103WAT     H154551   5.508   2.515   9.324
18103WAT     H254552   5.622   2.536   9.438
18104WAT      O54553   4.937   4.349   3.178
18104WAT     H154554   4.866   4.344   3.248
18104WAT     H254555   4.912   4.292   3.100
18105WAT      O54556   8.483   4.071   2.377
18105WAT     H154557   8.388   4.053   2.350
18105WAT     H254558   8.545   4.022   2.317
18106WAT      O54559   0.876   3.395   2.058
18106WAT     H154560   0.959   3.450   2.065
18106WAT     H254561   0.900   3.301   2.033
18107WAT      O54562   8.489   5.017   3.941
18107WAT     H154563   8.459   5.073   3.864
18107WAT     H254564   8.458   4.923   3.929
18108WAT      O54565   4.596   4.462   8.964
18108WAT     H154566   4.677   4.431   8.913
18108WAT     H254567   4.558   4.386   9.015
18109WAT      O54568   3.157   6.686   7.025
18109WAT     H154569   3.190   6.738   7.104
18109WAT     H254570   3.087   6.739   6.978
18110WAT      O54571   7.433   1.492   8.387
18110WAT     H154572   7.353   1.534   8.429
18110WAT     H254573   7.451   1.404   8.431
18111WAT      O54574   1.977   4.781   4.571
18111WAT     H154575   1.944   4.869   4.605
18111WAT     H254576   1.905   4.713   4.582
18112WAT      O54577   6.267   8.039   8.544
18112WAT     H154578   6.291   8.136   8.534
18112WAT     H254579   6.349   7.987   8.566
18113WAT      O54580   8.023   7.799   4.952
18113WAT     H154581   8.023   7.899   4.939
18113WAT     H254582   7.984   7.756   4.871
18114WAT      O54583   5.291   1.444   0.085
18114WAT     H154584   5.327   1.536   0.101
18114WAT     H254585   5.321   1.412  -0.005
18115WAT      O54586   2.699   8.241   9.808
18115WAT     H154587   2.728   8.183   9.732
18115WAT     H254588   2.635   8.310   9.775
18116WAT      O54589   0.674   7.783   3.986
18116WAT     H154590   0.726   7.783   3.900
18116WAT     H254591   0.665   7.876   4.020
18117WAT      O54592   3.903   2.745   6.622
18117WAT     H154593   3.829   2.810   6.604
18117WAT     H254594   3.988   2.795   6.639
18118WAT      O54595   8.777   3.486   6.401
18118WAT     H154596   8.845   3.528   6.461
18118WAT     H254597   8.815   3.402   6.363
18119WAT      O54598   6.692   1.459   2.413
18119WAT     H154599   6.715   1.516   2.334
18119WAT     H254600   6.765   1.466   2.481
18120WAT      O54601   2.922   7.606   5.042
18120WAT     H154602   2.995   7.565   4.988
18120WAT     H254603   2.841   7.618   4.985
18121WAT      O54604   8.607   9.141   1.711
18121WAT     H154605   8.599   9.174   1.616
18121WAT     H254606   8.530   9.175   1.765
18122WAT      O54607   7.216   3.174   1.921
18122WAT     H154608   7.230   3.185   1.823
18122WAT     H254609   7.141   3.233   1.951
18123WAT      O54610   2.663   3.634   3.943
18123WAT     H154611   2.717   3.633   3.859
18123WAT     H254612   2.574   3.677   3.926
18124WAT      O54613   7.419   6.272   1.404
18124WAT     H154614   7.368   6.287   1.488
18124WAT     H254615   7.512   6.243   1.425
18125WAT      O54616   5.866   2.129   2.452
18125WAT     H154617   5.860   2.143   2.551
18125WAT     H254618   5.914   2.207   2.410
18126WAT      O54619   4.307   5.603   7.749
18126WAT     H154620   4.251   5.668   7.801
18126WAT     H254621   4.280   5.607   7.653
18127WAT      O54622   8.246   4.367   6.902
18127WAT     H154623   8.297   4.368   6.816
18127WAT     H254624   8.151   4.394   6.884
18128WAT      O54625   2.517   7.578   9.110
18128WAT     H154626   2.545   7.662   9.064
18128WAT     H254627   2.495   7.508   9.042
18129WAT      O54628   3.864   1.885   9.721
18129WAT     H154629   3.922   1.866   9.641
18129WAT     H254630   3.794   1.814   9.728
18130WAT      O54631   5.286   0.067   6.343
18130WAT     H154632   5.252  -0.022   6.371
18130WAT     H254633   5.367   0.090   6.397
18131WAT      O54634   9.347   2.321   0.355
18131WAT     H154635   9.401   2.252   0.307
18131WAT     H254636   9.343   2.405   0.301
18132WAT      O54637   7.854   6.373   9.692
18132WAT     H154638   7.891   6.451   9.642
18132WAT     H254639   7.793   6.321   9.632
18133WAT      O54640   0.541   8.471   6.320
18133WAT     H154641   0.548   8.542   6.250
18133WAT     H254642   0.554   8.512   6.411
18134WAT      O54643   6.508   9.497   3.756
18134WAT     H154644   6.593   9.452   3.781
18134WAT     H254645   6.526   9.591   3.730
18135WAT      O54646   3.735   2.682   7.182
18135WAT     H154647   3.704   2.745   7.253
18135WAT     H254648   3.667   2.610   7.169
18136WAT      O54649   6.096   0.946   7.095
18136WAT     H154650   6.091   0.975   6.999
18136WAT     H254651   6.139   1.018   7.150
18137WAT      O54652   0.664   4.376   6.633
18137WAT     H154653   0.673   4.339   6.541
18137WAT     H254654   0.604   4.317   6.687
18138WAT      O54655   6.555   0.642   8.998
18138WAT     H154656   6.485   0.703   8.961
18138WAT     H254657   6.638   0.694   9.019
18139WAT      O54658   4.622   2.354   3.393
18139WAT     H154659   4.577   2.329   3.479
18139WAT     H254660   4.675   2.438   3.406
18140WAT      O54661   9.099   2.187   0.730
18140WAT     H154662   9.158   2.234   0.796
18140WAT     H254663   9.099   2.238   0.644
18141WAT      O54664   8.675   1.811   0.413
18141WAT     H154665   8.665   1.775   0.505
18141WAT     H254666   8.593   1.789   0.360
18142WAT      O54667   9.674   3.735   0.488
18142WAT     H154668   9.746   3.759   0.424
18142WAT     H254669   9.604   3.681   0.441
18143WAT      O54670   4.223   2.382   9.511
18143WAT     H154671   4.229   2.326   9.593
18143WAT     H254672   4.148   2.349   9.453
18144WAT      O54673   7.092   3.883   1.894
18144WAT     H154674   7.182   3.888   1.939
18144WAT     H254675   7.081   3.793   1.852
18145WAT      O54676   6.317   8.100   8.934
18145WAT     H154677   6.346   8.058   9.020
18145WAT     H254678   6.219   8.085   8.921
18146WAT      O54679   5.376   9.773   2.673
18146WAT     H154680   5.439   9.698   2.654
18146WAT     H254681   5.307   9.742   2.738
18147WAT      O54682   2.610   0.269   1.986
18147WAT     H154683   2.675   0.345   1.989
18147WAT     H254684   2.536   0.290   1.923
18148WAT      O54685   6.188   5.516   2.130
18148WAT     H154686   6.123   5.531   2.055
18148WAT     H254687   6.154   5.444   2.190
18149WAT      O54688   2.763   8.967   3.455
18149WAT     H154689   2.795   8.882   3.497
18149WAT     H254690   2.726   8.948   3.364
18150WAT      O54691   9.785   6.258   7.499
18150WAT     H154692   9.868   6.306   7.528
18150WAT     H254693   9.801   6.159   7.499
18151WAT      O54694   3.571   6.574   8.039
18151WAT     H154695   3.577   6.629   8.122
18151WAT     H254696   3.648   6.510   8.035
18152WAT      O54697   1.241   6.780   4.339
18152WAT     H154698   1.253   6.718   4.262
18152WAT     H254699   1.149   6.769   4.377
18153WAT      O54700   4.060   0.046   0.727
18153WAT     H154701   4.059   0.058   0.628
18153WAT     H254702   4.153   0.019   0.756
18154WAT      O54703   9.168   3.399   8.718
18154WAT     H154704   9.242   3.348   8.674
18154WAT     H254705   9.205   3.452   8.794
18155WAT      O54706   7.615   8.276   9.141
18155WAT     H154707   7.555   8.201   9.166
18155WAT     H254708   7.612   8.291   9.042
18156WAT      O54709   3.632   0.740   0.239
18156WAT     H154710   3.731   0.742   0.252
18156WAT     H254711   3.589   0.807   0.299
18157WAT      O54712   0.446   7.245   5.891
18157WAT     H154713   0.545   7.227   5.897
18157WAT     H254714   0.421   7.258   5.795
18158WAT      O54715   9.090   7.003   6.206
18158WAT     H154716   9.103   7.094   6.166
18158WAT     H254717   9.143   6.936   6.152
18159WAT      O54718   5.683   7.589   5.102
18159WAT     H154719   5.661   7.687   5.098
18159WAT     H254720   5.782   7.577   5.102
18160WAT      O54721   6.593   8.439   1.132
18160WAT     H154722   6.630   8.528   1.160
18160WAT     H254723   6.642   8.407   1.051
18161WAT      O54724   4.027   2.830   8.846
18161WAT     H154725   4.009   2.873   8.757
18161WAT     H254726   4.056   2.900   8.912
18162WAT      O54727   2.441   1.744   5.016
18162WAT     H154728   2.448   1.653   5.056
18162WAT     H254729   2.532   1.778   4.993
18163WAT      O54730   6.735   7.545   0.983
18163WAT     H154731   6.782   7.580   1.064
18163WAT     H254732   6.797   7.486   0.932
18164WAT      O54733   7.919   4.782   5.163
18164WAT     H154734   7.826   4.811   5.142
18164WAT     H254735   7.974   4.861   5.189
18165WAT      O54736   3.409   1.682   4.437
18165WAT     H154737   3.435   1.613   4.370
18165WAT     H254738   3.378   1.638   4.521
18166WAT      O54739   0.517   1.539   6.481
18166WAT     H154740   0.566   1.569   6.399
18166WAT     H254741   0.480   1.619   6.529
18167WAT      O54742   7.325   3.622   5.669
18167WAT     H154743   7.238   3.598   5.712
18167WAT     H254744   7.326   3.588   5.575
18168WAT      O54745   3.816   1.461   2.877
18168WAT     H154746   3.850   1.367   2.872
18168WAT     H254747   3.737   1.464   2.938
18169WAT      O54748   9.848   6.425   4.646
18169WAT     H154749   9.849   6.509   4.699
18169WAT     H254750   9.821   6.444   4.552
18170WAT      O54751   5.922   2.254   3.349
18170WAT     H154752   5.882   2.264   3.258
18170WAT     H254753   6.014   2.216   3.341
18171WAT      O54754   3.889   6.566   1.760
18171WAT     H154755   3.790   6.562   1.752
18171WAT     H254756   3.921   6.486   1.812
18172WAT      O54757   5.772   9.689   5.969
18172WAT     H154758   5.711   9.738   5.907
18172WAT     H254759   5.737   9.597   5.985
18173WAT      O54760   8.769   9.649   8.666
18173WAT     H154761   8.841   9.716   8.647
18173WAT     H254762   8.772   9.576   8.598
18174WAT      O54763   0.840   9.558   2.136
18174WAT     H154764   0.828   9.459   2.143
18174WAT     H254765   0.753   9.600   2.108
18175WAT      O54766   4.076   6.084   3.726
18175WAT     H154767   4.012   6.009   3.709
18175WAT     H254768   4.033   6.153   3.784
18176WAT      O54769   4.664   3.875   1.339
18176WAT     H154770   4.584   3.842   1.388
18176WAT     H254771   4.746   3.861   1.394
18177WAT      O54772   6.685   5.076   4.444
18177WAT     H154773   6.754   5.077   4.516
18177WAT     H254774   6.701   4.998   4.384
18178WAT      O54775   4.938   3.302   6.398
18178WAT     H154776   4.965   3.209   6.425
18178WAT     H254777   4.868   3.297   6.328
18179WAT      O54778   8.449   7.026   2.977
18179WAT     H154779   8.507   6.985   3.048
18179WAT     H254780   8.387   7.093   3.019
18180WAT      O54781   2.020   6.551   2.231
18180WAT     H154782   1.928   6.526   2.200
18180WAT     H254783   2.013   6.624   2.299
18181WAT      O54784   5.017   4.797   1.628
18181WAT     H154785   5.007   4.896   1.627
18181WAT     H254786   5.033   4.764   1.534
18182WAT      O54787   1.701   7.953   2.151
18182WAT     H154788   1.639   8.030   2.138
18182WAT     H254789   1.746   7.961   2.240
18183WAT      O54790   1.501   9.305   3.061
18183WAT     H154791   1.513   9.353   2.975
18183WAT     H254792   1.525   9.365   3.137
18184WAT      O54793   8.392   9.354   7.193
18184WAT     H154794   8.367   9.381   7.286
18184WAT     H254795   8.424   9.435   7.143
18185WAT      O54796   0.702   2.272   9.798
18185WAT     H154797   0.734   2.341   9.864
18185WAT     H254798   0.748   2.286   9.710
18186WAT      O54799   1.107   2.452   2.361
18186WAT     H154800   1.085   2.548   2.380
18186WAT     H254801   1.028   2.407   2.319
18187WAT      O54802   0.149   5.452   1.875
18187WAT     H154803   0.097   5.473   1.958
18187WAT     H254804   0.108   5.501   1.798
18188WAT      O54805   5.629   8.087   7.411
18188WAT     H154806   5.714   8.121   7.371
18188WAT     H254807   5.593   8.155   7.474
18189WAT      O54808   3.074   1.985   0.965
18189WAT     H154809   3.119   1.951   0.882
18189WAT     H254810   3.020   2.066   0.943
18190WAT      O54811   0.695   8.047   5.747
18190WAT     H154812   0.772   8.086   5.697
18190WAT     H254813   0.670   8.108   5.823
18191WAT      O54814   0.205   5.139   6.283
18191WAT     H154815   0.164   5.063   6.233
18191WAT     H254816   0.223   5.215   6.220
18192WAT      O54817   7.735   9.599   4.415
18192WAT     H154818   7.756   9.650   4.498
18192WAT     H254819   7.778   9.509   4.419
18193WAT      O54820   0.974   1.682   7.498
18193WAT     H154821   0.973   1.770   7.546
18193WAT     H254822   0.993   1.697   7.401
18194WAT      O54823   1.548   7.278   4.840
18194WAT     H154824   1.604   7.215   4.787
18194WAT     H254825   1.472   7.229   4.883
18195WAT      O54826   0.078   4.401   9.207
18195WAT     H154827   0.142   4.453   9.150
18195WAT     H254828  -0.012   4.445   9.203
18196WAT      O54829   1.164   4.623   6.829
18196WAT     H154830   1.078   4.586   6.865
18196WAT     H254831   1.233   4.623   6.902
18197WAT      O54832   7.031   2.140   0.772
18197WAT     H154833   7.121   2.099   0.766
18197WAT     H254834   6.961   2.068   0.770
18198WAT      O54835   6.767   2.240   5.886
18198WAT     H154836   6.817   2.161   5.922
18198WAT     H254837   6.778   2.317   5.948
18199WAT      O54838   0.917   3.753   3.580
18199WAT     H154839   0.905   3.709   3.669
18199WAT     H254840   0.828   3.759   3.533
18200WAT      O54841   2.860   5.777   6.531
18200WAT     H154842   2.798   5.744   6.603
18200WAT     H254843   2.815   5.768   6.442
18201WAT      O54844   1.830   5.398   5.971
18201WAT     H154845   1.841   5.305   6.008
18201WAT     H254846   1.810   5.392   5.873
18202WAT      O54847   5.593   6.035   9.147
18202WAT     H154848   5.651   6.099   9.198
18202WAT     H254849   5.572   5.956   9.204
18203WAT      O54850   8.916   9.709   4.306
18203WAT     H154851   8.985   9.718   4.378
18203WAT     H254852   8.880   9.616   4.306
18204WAT      O54853   4.874   0.016   1.604
18204WAT     H154854   4.793   0.070   1.580
18204WAT     H254855   4.922   0.062   1.679
18205WAT      O54856   8.158   1.747   1.746
18205WAT     H154857   8.147   1.748   1.647
18205WAT     H254858   8.070   1.726   1.789
18206WAT      O54859   3.936   0.587   1.893
18206WAT     H154860   4.017   0.566   1.838
18206WAT     H254861   3.932   0.685   1.912
18207WAT      O54862   4.033   8.651   8.486
18207WAT     H154863   4.020   8.576   8.421
18207WAT     H254864   3.956   8.654   8.550
18208WAT      O54865   3.688   1.409   7.259
18208WAT     H154866   3.760   1.364   7.312
18208WAT     H254867   3.700   1.509   7.265
18209WAT      O54868   1.263   1.824   9.217
18209WAT     H154869   1.254   1.762   9.294
18209WAT     H254870   1.188   1.890   9.217
18210WAT      O54871   9.063   7.928   1.042
18210WAT     H154872   9.113   7.963   0.962
18210WAT     H254873   9.070   7.995   1.117
18211WAT      O54874   6.844   8.306   5.411
18211WAT     H154875   6.887   8.339   5.327
18211WAT     H254876   6.779   8.233   5.389
18212WAT      O54877   3.111   6.413   0.699
18212WAT     H154878   3.063   6.493   0.664
18212WAT     H254879   3.166   6.439   0.779
18213WAT      O54880   0.255   1.927   3.115
18213WAT     H154881   0.296   1.946   3.205
18213WAT     H254882   0.157   1.910   3.127
18214WAT      O54883   4.152   7.628   0.070
18214WAT     H154884   4.228   7.619   0.005
18214WAT     H254885   4.185   7.611   0.162
18215WAT      O54886   7.818   6.794   5.486
18215WAT     H154887   7.894   6.859   5.480
18215WAT     H254888   7.837   6.714   5.429
18216WAT      O54889   8.564   6.881   7.933
18216WAT     H154890   8.587   6.786   7.952
18216WAT     H254891   8.593   6.905   7.840
18217WAT      O54892   8.318   1.707   1.349
18217WAT     H154893   8.342   1.737   1.257
18217WAT     H254894   8.375   1.629   1.375
18218WAT      O54895   8.144   8.171   4.355
18218WAT     H154896   8.142   8.154   4.454
18218WAT     H254897   8.059   8.216   4.328
18219WAT      O54898   7.835   2.651   8.463
18219WAT     H154899   7.926   2.644   8.504
18219WAT     H254900   7.789   2.734   8.498
18220WAT      O54901   8.219   6.829   1.153
18220WAT     H154902   8.286   6.771   1.106
18220WAT     H254903   8.230   6.923   1.121
18221WAT      O54904   9.210   9.182   5.793
18221WAT     H154905   9.151   9.115   5.747
18221WAT     H254906   9.250   9.243   5.724
18222WAT      O54907   9.342   1.286   6.801
18222WAT     H154908   9.386   1.298   6.890
18222WAT     H254909   9.272   1.214   6.808
18223WAT      O54910   2.570   8.509   9.309
18223WAT     H154911   2.572   8.414   9.342
18223WAT     H254912   2.650   8.526   9.252
18224WAT      O54913   8.156   2.329   2.925
18224WAT     H154914   8.122   2.419   2.897
18224WAT     H254915   8.188   2.279   2.845
18225WAT      O54916   5.571   7.856   4.159
18225WAT     H154917   5.580   7.864   4.059
18225WAT     H254918   5.592   7.944   4.201
18226WAT      O54919   2.379   6.853   2.208
18226WAT     H154920   2.414   6.878   2.298
18226WAT     H254921   2.444   6.792   2.163
18227WAT      O54922   3.201   2.700   9.826
18227WAT     H154923   3.137   2.632   9.792
18227WAT     H254924   3.271   2.656   9.882
18228WAT      O54925   2.762   0.493   1.870
18228WAT     H154926   2.808   0.578   1.896
18228WAT     H254927   2.738   0.496   1.773
18229WAT      O54928   6.993   0.601   0.058
18229WAT     H154929   6.907   0.568   0.021
18229WAT     H254930   7.000   0.578   0.155
18230WAT      O54931   3.911   7.235   5.781
18230WAT     H154932   3.989   7.199   5.730
18230WAT     H254933   3.892   7.328   5.752
18231WAT      O54934   2.972   0.736   9.225
18231WAT     H154935   3.025   0.680   9.289
18231WAT     H254936   2.939   0.818   9.272
18232WAT      O54937   6.636   6.781   4.038
18232WAT     H154938   6.637   6.682   4.050
18232WAT     H254939   6.641   6.803   3.941
18233WAT      O54940   2.007   1.265   0.075
18233WAT     H154941   2.106   1.248   0.072
18233WAT     H254942   1.973   1.246   0.167
18234WAT      O54943   2.933   7.122   6.389
18234WAT     H154944   2.994   7.194   6.355
18234WAT     H254945   2.902   7.145   6.481
18235WAT      O54946   3.657   9.666   7.151
18235WAT     H154947   3.655   9.708   7.060
18235WAT     H254948   3.573   9.690   7.201
18236WAT      O54949   3.676   6.166   9.686
18236WAT     H154950   3.739   6.125   9.752
18236WAT     H254951   3.707   6.258   9.664
18237WAT      O54952   6.673   0.945   0.210
18237WAT     H154953   6.692   1.040   0.186
18237WAT     H254954   6.688   0.886   0.130
18238WAT      O54955   2.733   0.996   8.505
18238WAT     H154956   2.760   1.040   8.591
18238WAT     H254957   2.696   1.065   8.443
18239WAT      O54958   8.999   8.507   6.222
18239WAT     H154959   8.939   8.450   6.279
18239WAT     H254960   9.066   8.450   6.175
18240WAT      O54961   4.919   6.231   1.592
18240WAT     H154962   4.833   6.280   1.579
18240WAT     H254963   4.986   6.263   1.526
18241WAT      O54964   3.650   7.169   4.876
18241WAT     H154965   3.580   7.228   4.836
18241WAT     H254966   3.712   7.136   4.804
18242WAT      O54967   6.305   4.038   8.147
18242WAT     H154968   6.224   3.994   8.185
18242WAT     H254969   6.294   4.138   8.151
18243WAT      O54970   6.955   2.293   7.887
18243WAT     H154971   6.977   2.319   7.793
18243WAT     H254972   7.039   2.264   7.934
18244WAT      O54973   9.339   2.362   3.775
18244WAT     H154974   9.262   2.374   3.712
18244WAT     H254975   9.307   2.379   3.869
18245WAT      O54976   6.655   0.475   1.815
18245WAT     H154977   6.666   0.531   1.733
18245WAT     H254978   6.604   0.527   1.884
18246WAT      O54979   5.774   6.822   0.551
18246WAT     H154980   5.756   6.874   0.635
18246WAT     H254981   5.804   6.729   0.575
18247WAT      O54982   2.739   3.831   3.205
18247WAT     H154983   2.742   3.738   3.168
18247WAT     H254984   2.828   3.855   3.244
18248WAT      O54985   4.949   2.680   4.180
18248WAT     H154986   4.872   2.730   4.139
18248WAT     H254987   5.031   2.737   4.175
18249WAT      O54988   6.873   9.548   6.184
18249WAT     H154989   6.845   9.468   6.130
18249WAT     H254990   6.957   9.586   6.146
18250WAT      O54991   6.473   5.421   2.158
18250WAT     H154992   6.492   5.442   2.254
18250WAT     H254993   6.400   5.481   2.125
18251WAT      O54994   8.893   4.976   8.372
18251WAT     H154995   8.940   4.992   8.285
18251WAT     H254996   8.898   5.058   8.429
18252WAT      O54997   4.638   9.434   6.653
18252WAT     H154998   4.681   9.521   6.628
18252WAT     H254999   4.659   9.365   6.584
18253WAT      O55000   9.215   5.995   2.977
18253WAT     H155001   9.183   6.051   2.901
18253WAT     H255002   9.269   5.918   2.942
18254WAT      O55003   7.346   8.362   4.331
18254WAT     H155004   7.415   8.322   4.271
18254WAT     H255005   7.271   8.297   4.343
18255WAT      O55006   8.121   9.230   9.822
18255WAT     H155007   8.154   9.306   9.766
18255WAT     H255008   8.183   9.214   9.898
18256WAT      O55009   8.703   1.731   2.259
18256WAT     H155010   8.659   1.654   2.306
18256WAT     H255011   8.800   1.712   2.248
18257WAT      O55012   1.277   8.081   2.618
18257WAT     H155013   1.222   8.107   2.539
18257WAT     H255014   1.320   8.162   2.658
18258WAT      O55015   7.839   7.830   2.093
18258WAT     H155016   7.859   7.876   2.007
18258WAT     H255017   7.745   7.796   2.092
18259WAT      O55018   1.110   7.805   1.740
18259WAT     H155019   1.098   7.827   1.837
18259WAT     H255020   1.027   7.831   1.690
18260WAT      O55021   0.155   9.689   6.183
18260WAT     H155022   0.106   9.624   6.241
18260WAT     H255023   0.103   9.705   6.099
18261WAT      O55024   7.971   7.327   7.390
18261WAT     H155025   8.043   7.259   7.406
18261WAT     H255026   7.983   7.368   7.300
18262WAT      O55027   2.529   6.368   0.686
18262WAT     H155028   2.553   6.371   0.783
18262WAT     H255029   2.536   6.274   0.652
18263WAT      O55030   8.082   5.855   4.763
18263WAT     H155031   8.136   5.801   4.827
18263WAT     H255032   8.106   5.952   4.772
18264WAT      O55033   0.143   6.879   1.805
18264WAT     H155034   0.077   6.820   1.757
18264WAT     H255035   0.236   6.850   1.782
18265WAT      O55036   8.469   6.199   1.869
18265WAT     H155037   8.528   6.118   1.876
18265WAT     H255038   8.396   6.192   1.937
18266WAT      O55039   5.152   9.165   8.353
18266WAT     H155040   5.154   9.101   8.276
18266WAT     H255041   5.245   9.196   8.373
18267WAT      O55042   9.221   2.071   8.380
18267WAT     H155043   9.215   2.170   8.373
18267WAT     H255044   9.302   2.045   8.433
18268WAT      O55045   0.260   9.431   4.626
18268WAT     H155046   0.287   9.511   4.572
18268WAT     H255047   0.197   9.459   4.699
18269WAT      O55048   3.574   1.838   3.300
18269WAT     H155049   3.640   1.766   3.281
18269WAT     H255050   3.620   1.915   3.344
18270WAT      O55051   3.447   8.774   1.384
18270WAT     H155052   3.479   8.771   1.479
18270WAT     H255053   3.367   8.714   1.373
18271WAT      O55054   4.963   3.950   3.700
18271WAT     H155055   4.911   3.965   3.616
18271WAT     H255056   4.903   3.957   3.779
18272WAT      O55057   6.886   3.177   6.455
18272WAT     H155058   6.806   3.237   6.458
18272WAT     H255059   6.957   3.220   6.399
18273WAT      O55060   8.470   8.764   6.652
18273WAT     H155061   8.443   8.788   6.746
18273WAT     H255062   8.570   8.770   6.645
18274WAT      O55063   1.632   0.813   6.464
18274WAT     H155064   1.709   0.757   6.493
18274WAT     H255065   1.643   0.836   6.367
18275WAT      O55066   2.798   7.268   9.326
18275WAT     H155067   2.880   7.326   9.330
18275WAT     H255068   2.717   7.325   9.331
18276WAT      O55069   9.596   5.318   9.160
18276WAT     H155070   9.646   5.273   9.085
18276WAT     H255071   9.521   5.372   9.122
18277WAT      O55072   2.913   1.455   0.994
18277WAT     H155073   2.880   1.478   1.086
18277WAT     H255074   2.836   1.454   0.930
18278WAT      O55075   4.125   5.771   7.842
18278WAT     H155076   4.070   5.851   7.816
18278WAT     H255077   4.082   5.725   7.919
18279WAT      O55078   3.217   4.584   0.882
18279WAT     H155079   3.190   4.489   0.894
18279WAT     H255080   3.275   4.612   0.958
18280WAT      O55081   0.620   8.543   5.609
18280WAT     H155082   0.676   8.621   5.582
18280WAT     H255083   0.551   8.573   5.675
18281WAT      O55084   9.689   6.293   1.493
18281WAT     H155085   9.769   6.353   1.488
18281WAT     H255086   9.645   6.288   1.403
18282WAT      O55087   5.566   5.063   7.307
18282WAT     H155088   5.577   4.976   7.355
18282WAT     H255089   5.502   5.051   7.231
18283WAT      O55090   4.465   1.412   4.695
18283WAT     H155091   4.368   1.427   4.676
18283WAT     H255092   4.491   1.461   4.778
18284WAT      O55093   6.404   6.637   5.068
18284WAT     H155094   6.445   6.596   4.986
18284WAT     H255095   6.305   6.645   5.055
18285WAT      O55096   2.349   3.555   7.933
18285WAT     H155097   2.270   3.607   7.965
18285WAT     H255098   2.323   3.459   7.923
18286WAT      O55099   1.367   2.673   0.871
18286WAT     H155100   1.277   2.637   0.845
18286WAT     H255101   1.437   2.605   0.850
18287WAT      O55102   4.656   0.601   7.000
18287WAT     H155103   4.675   0.503   6.994
18287WAT     H255104   4.742   0.651   7.011
18288WAT      O55105   1.969   9.056   2.289
18288WAT     H155106   1.990   9.131   2.227
18288WAT     H255107   1.905   9.088   2.359
18289WAT      O55108   4.074   5.849   1.985
18289WAT     H155109   4.039   5.942   1.999
18289WAT     H255110   4.074   5.800   2.073
18290WAT      O55111   6.620   2.194   4.554
18290WAT     H155112   6.576   2.104   4.554
18290WAT     H255113   6.719   2.182   4.556
18291WAT      O55114   7.380   1.003   2.306
18291WAT     H155115   7.466   1.050   2.328
18291WAT     H255116   7.308   1.071   2.293
18292WAT      O55117   3.618   9.342   8.326
18292WAT     H155118   3.566   9.291   8.257
18292WAT     H255119   3.692   9.284   8.362
18293WAT      O55120   7.753   8.318   7.349
18293WAT     H155121   7.751   8.417   7.333
18293WAT     H255122   7.668   8.290   7.393
18294WAT      O55123   5.948   1.096   6.847
18294WAT     H155124   6.047   1.094   6.834
18294WAT     H255125   5.927   1.123   6.941
18295WAT      O55126   0.512   7.575   8.032
18295WAT     H155127   0.559   7.543   7.950
18295WAT     H255128   0.571   7.642   8.079
18296WAT      O55129   4.806   6.229   1.251
18296WAT     H155130   4.710   6.231   1.220
18296WAT     H255131   4.864   6.198   1.175
18297WAT      O55132   9.848   1.956   9.001
18297WAT     H155133   9.827   2.052   8.986
18297WAT     H255134   9.947   1.943   8.996
18298WAT      O55135   6.205   3.551   7.334
18298WAT     H155136   6.177   3.544   7.430
18298WAT     H255137   6.184   3.465   7.287
18299WAT      O55138   6.387   7.538   2.912
18299WAT     H155139   6.355   7.444   2.919
18299WAT     H255140   6.356   7.590   2.991
18300WAT      O55141   3.156   8.164   0.711
18300WAT     H155142   3.254   8.145   0.716
18300WAT     H255143   3.134   8.206   0.624
18301WAT      O55144   6.599   6.210   5.279
18301WAT     H155145   6.691   6.185   5.308
18301WAT     H255146   6.589   6.309   5.282
18302WAT      O55147   3.908   0.560   8.836
18302WAT     H155148   3.811   0.575   8.819
18302WAT     H255149   3.958   0.561   8.749
18303WAT      O55150   3.434   2.395   6.226
18303WAT     H155151   3.365   2.468   6.233
18303WAT     H255152   3.524   2.433   6.246
18304WAT      O55153   5.488   3.099   0.635
18304WAT     H155154   5.562   3.039   0.604
18304WAT     H255155   5.493   3.109   0.735
18305WAT      O55156   1.078   8.879   8.683
18305WAT     H155157   1.089   8.966   8.731
18305WAT     H255158   0.997   8.883   8.624
18306WAT      O55159   4.062   5.834   8.347
18306WAT     H155160   3.998   5.883   8.405
18306WAT     H255161   4.011   5.779   8.280
18307WAT      O55162   9.802   5.455   8.732
18307WAT     H155163   9.831   5.369   8.691
18307WAT     H255164   9.727   5.494   8.678
18308WAT      O55165   0.669   6.397   6.855
18308WAT     H155166   0.638   6.455   6.780
18308WAT     H255167   0.606   6.408   6.932
18309WAT      O55168   5.746   8.464   3.375
18309WAT     H155169   5.805   8.491   3.451
18309WAT     H255170   5.774   8.375   3.341
18310WAT      O55171   3.371   4.355   2.753
18310WAT     H155172   3.349   4.258   2.751
18310WAT     H255173   3.337   4.399   2.670
18311WAT      O55174   6.464   3.065   3.475
18311WAT     H155175   6.488   3.161   3.458
18311WAT     H255176   6.370   3.049   3.446
18312WAT      O55177   8.784   8.946   1.392
18312WAT     H155178   8.704   8.901   1.430
18312WAT     H255179   8.850   8.966   1.465
18313WAT      O55180   7.575   3.414   9.510
18313WAT     H155181   7.618   3.327   9.536
18313WAT     H255182   7.478   3.398   9.489
18314WAT      O55183   7.076   4.498   5.115
18314WAT     H155184   7.155   4.448   5.150
18314WAT     H255185   6.992   4.450   5.141
18315WAT      O55186   3.569   8.760   9.766
18315WAT     H155187   3.571   8.660   9.767
18315WAT     H255188   3.483   8.792   9.726
18316WAT      O55189   6.079   0.997   1.383
18316WAT     H155190   6.037   1.085   1.362
18316WAT     H255191   6.104   0.993   1.480
18317WAT      O55192   5.880   6.935   4.378
18317WAT     H155193   5.845   6.847   4.410
18317WAT     H255194   5.980   6.935   4.382
18318WAT      O55195   5.078   3.076   6.456
18318WAT     H155196   5.029   2.989   6.468
18318WAT     H255197   5.169   3.058   6.420
18319WAT      O55198   3.424   9.548   6.874
18319WAT     H155199   3.366   9.571   6.796
18319WAT     H255200   3.380   9.580   6.958
18320WAT      O55201   6.526   3.858   2.563
18320WAT     H155202   6.439   3.812   2.544
18320WAT     H255203   6.582   3.799   2.621
18321WAT      O55204   6.731   0.096   6.022
18321WAT     H155205   6.787   0.098   5.940
18321WAT     H255206   6.665   0.172   6.019
18322WAT      O55207   4.952   5.248   6.978
18322WAT     H155208   4.985   5.194   6.900
18322WAT     H255209   5.026   5.304   7.013
18323WAT      O55210   6.167   7.300   1.047
18323WAT     H155211   6.162   7.376   0.983
18323WAT     H255212   6.171   7.214   0.996
18324WAT      O55213   0.116   4.174   1.671
18324WAT     H155214   0.022   4.186   1.638
18324WAT     H255215   0.149   4.083   1.647
18325WAT      O55216   9.529   5.868   5.212
18325WAT     H155217   9.629   5.867   5.220
18325WAT     H255218   9.490   5.801   5.275
18326WAT      O55219   7.316   9.376   0.898
18326WAT     H155220   7.343   9.291   0.944
18326WAT     H255221   7.362   9.454   0.941
18327WAT      O55222   7.371   9.622   0.045
18327WAT     H155223   7.444   9.659  -0.013
18327WAT     H255224   7.306   9.695   0.066
18328WAT      O55225   1.184   8.267   6.920
18328WAT     H155226   1.215   8.333   6.852
18328WAT     H255227   1.181   8.312   7.010
18329WAT      O55228   2.057   3.743   0.096
18329WAT     H155229   2.040   3.648   0.069
18329WAT     H255230   1.971   3.794   0.092
18330WAT      O55231   1.580   8.015   4.749
18330WAT     H155232   1.680   8.012   4.747
18330WAT     H255233   1.545   7.926   4.779
18331WAT      O55234   0.284   6.001   2.904
18331WAT     H155235   0.329   6.086   2.879
18331WAT     H255236   0.285   5.938   2.826
18332WAT      O55237   0.278   1.967   5.395
18332WAT     H155238   0.243   1.875   5.411
18332WAT     H255239   0.201   2.032   5.391
18333WAT      O55240   9.280   3.570   7.509
18333WAT     H155241   9.307   3.622   7.429
18333WAT     H255242   9.280   3.472   7.487
18334WAT      O55243   3.959   5.993   6.778
18334WAT     H155244   3.936   5.898   6.761
18334WAT     H255245   3.902   6.052   6.721
18335WAT      O55246   4.136   4.983   6.351
18335WAT     H155247   4.048   5.029   6.356
18335WAT     H255248   4.158   4.963   6.255
18336WAT      O55249   6.617   8.016   6.492
18336WAT     H155250   6.522   8.021   6.523
18336WAT     H255251   6.630   8.078   6.415
18337WAT      O55252   4.868   4.808   8.590
18337WAT     H155253   4.960   4.769   8.581
18337WAT     H255254   4.845   4.819   8.686
18338WAT      O55255   6.577   2.972   2.781
18338WAT     H155256   6.547   3.068   2.785
18338WAT     H255257   6.512   2.915   2.831
18339WAT      O55258   4.501   6.973   2.643
18339WAT     H155259   4.444   6.904   2.599
18339WAT     H255260   4.474   6.982   2.739
18340WAT      O55261   5.537   1.853   7.048
18340WAT     H155262   5.533   1.951   7.067
18340WAT     H255263   5.615   1.833   6.990
18341WAT      O55264   0.210   4.304   6.527
18341WAT     H155265   0.267   4.387   6.521
18341WAT     H255266   0.267   4.227   6.553
18342WAT      O55267   0.073   2.435   9.834
18342WAT     H155268   0.067   2.367   9.761
18342WAT     H255269   0.165   2.433   9.875
18343WAT      O55270   6.583   5.339   2.871
18343WAT     H155271   6.592   5.362   2.968
18343WAT     H255272   6.506   5.276   2.859
18344WAT      O55273   6.897   7.472   5.960
18344WAT     H155274   6.885   7.548   5.898
18344WAT     H255275   6.910   7.506   6.053
18345WAT      O55276   6.658   8.060   9.769
18345WAT     H155277   6.580   8.121   9.781
18345WAT     H255278   6.743   8.109   9.786
18346WAT      O55279   6.962   1.795   5.715
18346WAT     H155280   6.947   1.805   5.617
18346WAT     H255281   6.999   1.704   5.734
18347WAT      O55282   3.320   8.408   4.444
18347WAT     H155283   3.354   8.331   4.498
18347WAT     H255284   3.286   8.479   4.504
18348WAT      O55285   6.569   1.930   8.618
18348WAT     H155286   6.484   1.905   8.571
18348WAT     H255287   6.642   1.944   8.551
18349WAT      O55288   5.925   6.862   4.029
18349WAT     H155289   6.003   6.893   3.974
18349WAT     H255290   5.956   6.841   4.121
18350WAT      O55291   6.058   9.133   7.012
18350WAT     H155292   6.041   9.219   7.060
18350WAT     H255293   6.021   9.057   7.065
18351WAT      O55294   6.555   3.565   3.958
18351WAT     H155295   6.498   3.485   3.939
18351WAT     H255296   6.530   3.604   4.047
18352WAT      O55297   6.111   7.668   0.673
18352WAT     H155298   6.167   7.738   0.717
18352WAT     H255299   6.018   7.702   0.662
18353WAT      O55300   7.849   4.458   3.901
18353WAT     H155301   7.752   4.463   3.878
18353WAT     H255302   7.869   4.369   3.942
18354WAT      O55303   3.351   0.473   4.493
18354WAT     H155304   3.379   0.471   4.397
18354WAT     H255305   3.397   0.549   4.539
18355WAT      O55306   2.764   7.250   8.988
18355WAT     H155307   2.774   7.151   8.984
18355WAT     H255308   2.845   7.290   9.031
18356WAT      O55309   9.314   8.155   2.192
18356WAT     H155310   9.410   8.157   2.219
18356WAT     H255311   9.307   8.172   2.093
18357WAT      O55312   1.593   5.033   9.215
18357WAT     H155313   1.622   4.958   9.156
18357WAT     H255314   1.659   5.045   9.290
18358WAT      O55315   3.237   0.639   1.978
18358WAT     H155316   3.271   0.657   1.886
18358WAT     H255317   3.282   0.557   2.015
18359WAT      O55318   8.098   5.727   2.715
18359WAT     H155319   8.027   5.675   2.763
18359WAT     H255320   8.137   5.671   2.642
18360WAT      O55321   4.650   3.742   0.819
18360WAT     H155322   4.689   3.735   0.911
18360WAT     H255323   4.616   3.835   0.804
18361WAT      O55324   3.148   6.448   2.973
18361WAT     H155325   3.115   6.355   2.959
18361WAT     H255326   3.235   6.460   2.925
18362WAT      O55327   5.450   0.030   9.645
18362WAT     H155328   5.431  -0.062   9.679
18362WAT     H255329   5.382   0.056   9.577
18363WAT      O55330   0.010   0.315   4.236
18363WAT     H155331  -0.037   0.400   4.212
18363WAT     H255332   0.088   0.336   4.296
18364WAT      O55333   5.714   3.984   1.828
18364WAT     H155334   5.760   3.937   1.753
18364WAT     H255335   5.631   3.934   1.854
18365WAT      O55336   3.476   5.314   9.245
18365WAT     H155337   3.565   5.271   9.224
18365WAT     H255338   3.435   5.268   9.323
18366WAT      O55339   8.233   5.959   4.145
18366WAT     H155340   8.325   5.959   4.185
18366WAT     H255341   8.216   5.871   4.101
18367WAT      O55342   7.887   0.403   1.871
18367WAT     H155343   7.885   0.496   1.908
18367WAT     H255344   7.822   0.397   1.794
18368WAT      O55345   2.144   1.054   2.241
18368WAT     H155346   2.182   1.000   2.166
18368WAT     H255347   2.050   1.081   2.219
18369WAT      O55348   4.767   9.574   7.305
18369WAT     H155349   4.731   9.548   7.215
18369WAT     H255350   4.722   9.657   7.336
18370WAT      O55351   6.344   6.691   1.562
18370WAT     H155352   6.289   6.625   1.512
18370WAT     H255353   6.286   6.743   1.625
18371WAT      O55354   3.603   2.434   9.485
18371WAT     H155355   3.555   2.364   9.539
18371WAT     H255356   3.679   2.471   9.539
18372WAT      O55357   6.701   9.372   8.577
18372WAT     H155358   6.636   9.303   8.547
18372WAT     H255359   6.760   9.398   8.501
18373WAT      O55360   7.933   0.824   5.623
18373WAT     H155361   7.966   0.804   5.716
18373WAT     H255362   7.844   0.780   5.610
18374WAT      O55363   8.485   0.310   8.560
18374WAT     H155364   8.462   0.335   8.654
18374WAT     H255365   8.484   0.211   8.550
18375WAT      O55366   0.762   7.504   7.856
18375WAT     H155367   0.706   7.428   7.822
18375WAT     H255368   0.842   7.514   7.797
18376WAT      O55369   1.446   4.099   4.126
18376WAT     H155370   1.350   4.104   4.154
18376WAT     H255371   1.453   4.115   4.028
18377WAT      O55372   9.052   7.362   1.912
18377WAT     H155373   8.999   7.383   1.830
18377WAT     H255374   9.082   7.448   1.955
18378WAT      O55375   8.732   2.751   4.730
18378WAT     H155376   8.803   2.786   4.791
18378WAT     H255377   8.648   2.735   4.782
18379WAT      O55378   1.692   0.002   1.664
18379WAT     H155379   1.598  -0.019   1.636
18379WAT     H255380   1.698   0.099   1.687
18380WAT      O55381   1.799   6.414   9.713
18380WAT     H155382   1.742   6.472   9.772
18380WAT     H255383   1.894   6.419   9.744
18381WAT      O55384   5.713   6.235   1.198
18381WAT     H155385   5.757   6.294   1.130
18381WAT     H255386   5.615   6.231   1.179
18382WAT      O55387   3.027   9.353   1.679
18382WAT     H155388   3.023   9.443   1.635
18382WAT     H255389   2.936   9.330   1.714
18383WAT      O55390   9.820   2.215   1.801
18383WAT     H155391   9.915   2.217   1.829
18383WAT     H255392   9.785   2.308   1.792
18384WAT      O55393   0.482   8.833   6.688
18384WAT     H155394   0.441   8.847   6.778
18384WAT     H255395   0.568   8.783   6.699
18385WAT      O55396   9.746   4.830   5.302
18385WAT     H155397   9.772   4.927   5.310
18385WAT     H255398   9.657   4.824   5.256
18386WAT      O55399   4.805   5.343   3.086
18386WAT     H155400   4.804   5.370   3.183
18386WAT     H255401   4.733   5.275   3.071
18387WAT      O55402   5.154   5.945   8.726
18387WAT     H155403   5.189   5.852   8.734
18387WAT     H255404   5.058   5.942   8.697
18388WAT      O55405   4.335   0.518   0.680
18388WAT     H155406   4.330   0.534   0.581
18388WAT     H255407   4.391   0.437   0.699
18389WAT      O55408   3.232   4.553   1.961
18389WAT     H155409   3.299   4.492   1.920
18389WAT     H255410   3.209   4.521   2.053
18390WAT      O55411   8.854   1.225   0.168
18390WAT     H155412   8.906   1.149   0.207
18390WAT     H255413   8.912   1.279   0.107
18391WAT      O55414   7.952   4.258   4.043
18391WAT     H155415   7.876   4.195   4.057
18391WAT     H255416   8.030   4.230   4.099
18392WAT      O55417   6.986   8.549   5.951
18392WAT     H155418   6.934   8.484   5.896
18392WAT     H255419   6.923   8.597   6.013
18393WAT      O55420   5.038   0.613   0.510
18393WAT     H155421   5.126   0.580   0.542
18393WAT     H255422   4.966   0.585   0.575
18394WAT      O55423   5.828   9.521   4.877
18394WAT     H155424   5.746   9.577   4.888
18394WAT     H255425   5.839   9.497   4.781
18395WAT      O55426   4.683   1.183   9.857
18395WAT     H155427   4.753   1.236   9.809
18395WAT     H255428   4.601   1.239   9.868
18396WAT      O55429   6.683   3.182   8.417
18396WAT     H155430   6.716   3.218   8.330
18396WAT     H255431   6.589   3.151   8.406
18397WAT      O55432   6.621   8.999   4.402
18397WAT     H155433   6.720   9.014   4.410
18397WAT     H255434   6.601   8.902   4.418
18398WAT      O55435   7.720   3.059   1.969
18398WAT     H155436   7.782   3.035   1.895
18398WAT     H255437   7.718   2.985   2.036
18399WAT      O55438   1.435   2.339   3.690
18399WAT     H155439   1.358   2.394   3.657
18399WAT     H255440   1.407   2.289   3.772
18400WAT      O55441   8.822   4.549   2.414
18400WAT     H155442   8.865   4.629   2.372
18400WAT     H255443   8.852   4.467   2.366
18401WAT      O55444   6.066   8.674   2.240
18401WAT     H155445   6.129   8.721   2.301
18401WAT     H255446   5.972   8.690   2.271
18402WAT      O55447   7.210   0.588   5.289
18402WAT     H155448   7.299   0.623   5.317
18402WAT     H255449   7.171   0.533   5.363
18403WAT      O55450   6.892   8.629   8.389
18403WAT     H155451   6.928   8.716   8.355
18403WAT     H255452   6.809   8.646   8.442
18404WAT      O55453   3.145   3.726   1.238
18404WAT     H155454   3.089   3.789   1.184
18404WAT     H255455   3.091   3.693   1.316
18405WAT      O55456   9.082   6.303   6.852
18405WAT     H155457   9.029   6.383   6.824
18405WAT     H255458   9.147   6.328   6.923
18406WAT      O55459   7.905   1.384   1.782
18406WAT     H155460   7.917   1.439   1.864
18406WAT     H255461   7.920   1.287   1.803
18407WAT      O55462   2.771   9.190   7.214
18407WAT     H155463   2.730   9.099   7.223
18407WAT     H255464   2.813   9.200   7.124
18408WAT      O55465   5.689   7.335   2.330
18408WAT     H155466   5.748   7.415   2.336
18408WAT     H255467   5.745   7.252   2.329
18409WAT      O55468   8.205   9.374   2.132
18409WAT     H155469   8.287   9.390   2.078
18409WAT     H255470   8.202   9.279   2.161
18410WAT      O55471   7.275   1.072   5.012
18410WAT     H155472   7.183   1.040   4.987
18410WAT     H255473   7.331   1.080   4.930
18411WAT      O55474   9.149   5.514   8.560
18411WAT     H155475   9.106   5.596   8.598
18411WAT     H255476   9.189   5.536   8.471
18412WAT      O55477   7.782   4.064   4.141
18412WAT     H155478   7.803   4.106   4.229
18412WAT     H255479   7.850   3.993   4.121
18413WAT      O55480   0.048   6.958   0.769
18413WAT     H155481  -0.013   6.954   0.848
18413WAT     H255482   0.126   7.017   0.790
18414WAT      O55483   4.061   0.017   1.836
18414WAT     H155484   4.081  -0.081   1.831
18414WAT     H255485   4.110   0.064   1.762
18415WAT      O55486   4.208   7.858   1.681
18415WAT     H155487   4.284   7.822   1.734
18415WAT     H255488   4.238   7.938   1.629
18416WAT      O55489   1.408   1.501   8.580
18416WAT     H155490   1.444   1.495   8.673
18416WAT     H255491   1.471   1.456   8.517
18417WAT      O55492   4.587   4.571   6.758
18417WAT     H155493   4.564   4.566   6.855
18417WAT     H255494   4.612   4.665   6.734
18418WAT      O55495   8.127   1.646   6.095
18418WAT     H155496   8.129   1.723   6.032
18418WAT     H255497   8.112   1.679   6.189
18419WAT      O55498   4.182   3.676   1.974
18419WAT     H155499   4.178   3.676   2.074
18419WAT     H255500   4.220   3.763   1.942
18420WAT      O55501   7.534   2.704   1.842
18420WAT     H155502   7.612   2.647   1.815
18420WAT     H255503   7.454   2.646   1.859
18421WAT      O55504   8.565   3.076   6.557
18421WAT     H155505   8.623   3.157   6.545
18421WAT     H255506   8.614   3.009   6.613
18422WAT      O55507   4.427   3.801   9.695
18422WAT     H155508   4.394   3.895   9.700
18422WAT     H255509   4.363   3.740   9.741
18423WAT      O55510   5.718   8.033   5.658
18423WAT     H155511   5.763   7.973   5.723
18423WAT     H255512   5.665   7.978   5.593
18424WAT      O55513   1.432   8.787   4.115
18424WAT     H155514   1.472   8.876   4.138
18424WAT     H255515   1.370   8.798   4.037
18425WAT      O55516   5.756   8.125   7.820
18425WAT     H155517   5.816   8.162   7.750
18425WAT     H255518   5.666   8.170   7.815
18426WAT      O55519   7.999   2.059   1.187
18426WAT     H155520   8.023   1.990   1.119
18426WAT     H255521   7.947   2.132   1.143
18427WAT      O55522   7.836   1.442   7.151
18427WAT     H155523   7.899   1.453   7.074
18427WAT     H255524   7.884   1.402   7.229
18428WAT      O55525   4.661   9.184   7.254
18428WAT     H155526   4.609   9.226   7.328
18428WAT     H255527   4.758   9.206   7.266
18429WAT      O55528   8.044   3.736   8.554
18429WAT     H155529   8.140   3.760   8.543
18429WAT     H255530   7.992   3.770   8.476
18430WAT      O55531   4.139   6.076   4.825
18430WAT     H155532   4.234   6.103   4.843
18430WAT     H255533   4.132   5.976   4.825
18431WAT      O55534   2.313   4.996   2.156
18431WAT     H155535   2.272   5.003   2.247
18431WAT     H255536   2.317   5.087   2.114
18432WAT      O55537   4.425   9.398   1.432
18432WAT     H155538   4.362   9.464   1.473
18432WAT     H255539   4.476   9.442   1.359
18433WAT      O55540   9.085   4.328   6.512
18433WAT     H155541   9.049   4.344   6.605
18433WAT     H255542   9.089   4.230   6.494
18434WAT      O55543   6.784   5.094   3.531
18434WAT     H155544   6.797   5.036   3.611
18434WAT     H255545   6.756   5.037   3.453
18435WAT      O55546   9.519   1.297   6.218
18435WAT     H155547   9.497   1.234   6.293
18435WAT     H255548   9.608   1.273   6.180
18436WAT      O55549   8.519   5.217   6.699
18436WAT     H155550   8.486   5.123   6.703
18436WAT     H255551   8.444   5.277   6.672
18437WAT      O55552   3.005   2.347   8.295
18437WAT     H155553   2.919   2.378   8.255
18437WAT     H255554   3.004   2.365   8.394
18438WAT      O55555   3.586   9.714   3.211
18438WAT     H155556   3.536   9.630   3.189
18438WAT     H255557   3.660   9.693   3.275
18439WAT      O55558   6.057   1.102   9.064
18439WAT     H155559   6.037   1.065   8.973
18439WAT     H255560   5.977   1.088   9.124
18440WAT      O55561   3.803   4.706   4.825
18440WAT     H155562   3.756   4.785   4.784
18440WAT     H255563   3.826   4.727   4.920
18441WAT      O55564   8.529   6.655   4.450
18441WAT     H155565   8.530   6.632   4.548
18441WAT     H255566   8.610   6.615   4.406
18442WAT      O55567   7.183   3.745   9.559
18442WAT     H155568   7.267   3.756   9.611
18442WAT     H255569   7.121   3.683   9.609
18443WAT      O55570   4.090   7.575   5.758
18443WAT     H155571   4.139   7.512   5.818
18443WAT     H255572   4.009   7.528   5.721
18444WAT      O55573   9.859   1.213   6.832
18444WAT     H155574   9.930   1.283   6.841
18444WAT     H255575   9.829   1.186   6.923
18445WAT      O55576   7.772   5.728   1.788
18445WAT     H155577   7.797   5.704   1.882
18445WAT     H255578   7.805   5.657   1.726
18446WAT      O55579   1.457   7.802   8.078
18446WAT     H155580   1.407   7.745   8.012
18446WAT     H255581   1.482   7.746   8.157
18447WAT      O55582   2.102   5.911   2.075
18447WAT     H155583   2.178   5.863   2.032
18447WAT     H255584   2.020   5.854   2.071
18448WAT      O55585   4.398   3.988   1.031
18448WAT     H155586   4.344   3.904   1.034
18448WAT     H255587   4.345   4.063   1.072
18449WAT      O55588   4.908   0.834   3.640
18449WAT     H155589   4.973   0.887   3.585
18449WAT     H255590   4.928   0.736   3.630
18450WAT      O55591   0.364   4.270   3.257
18450WAT     H155592   0.357   4.336   3.332
18450WAT     H255593   0.334   4.180   3.289
18451WAT      O55594   2.309   7.772   0.454
18451WAT     H155595   2.401   7.786   0.489
18451WAT     H255596   2.252   7.850   0.479
18452WAT      O55597   6.074   4.645   4.711
18452WAT     H155598   5.976   4.640   4.733
18452WAT     H255599   6.125   4.670   4.793
18453WAT      O55600   1.996   3.463   1.786
18453WAT     H155601   2.085   3.502   1.760
18453WAT     H255602   1.995   3.365   1.765
18454WAT      O55603   1.914   5.268   0.076
18454WAT     H155604   1.860   5.284  -0.007
18454WAT     H255605   1.958   5.178   0.069
18455WAT      O55606   1.919   6.973   5.261
18455WAT     H155607   1.946   7.004   5.353
18455WAT     H255608   1.846   6.906   5.269
18456WAT      O55609   0.644   6.639   5.441
18456WAT     H155610   0.560   6.585   5.439
18456WAT     H255611   0.682   6.645   5.349
18457WAT      O55612   3.641   7.939   6.401
18457WAT     H155613   3.715   7.918   6.338
18457WAT     H255614   3.596   8.024   6.374
18458WAT      O55615   1.709   4.693   1.667
18458WAT     H155616   1.791   4.730   1.623
18458WAT     H255617   1.732   4.609   1.717
18459WAT      O55618   0.115   4.699   2.498
18459WAT     H155619   0.154   4.770   2.440
18459WAT     H255620   0.164   4.613   2.482
18460WAT      O55621   0.163   1.417   6.930
18460WAT     H155622   0.123   1.471   6.857
18460WAT     H255623   0.263   1.425   6.927
18461WAT      O55624   3.007   8.696   5.151
18461WAT     H155625   3.086   8.642   5.181
18461WAT     H255626   3.017   8.790   5.185
18462WAT      O55627   9.582   5.873   0.480
18462WAT     H155628   9.612   5.892   0.573
18462WAT     H255629   9.505   5.933   0.456
18463WAT      O55630   1.310   6.752   7.542
18463WAT     H155631   1.331   6.752   7.640
18463WAT     H255632   1.395   6.757   7.489
18464WAT      O55633   1.858   1.964   5.333
18464WAT     H155634   1.913   1.989   5.253
18464WAT     H255635   1.773   2.016   5.333
18465WAT      O55636   8.380   1.430   4.401
18465WAT     H155637   8.344   1.523   4.395
18465WAT     H255638   8.332   1.380   4.474
18466WAT      O55639   0.763   6.195   3.252
18466WAT     H155640   0.680   6.198   3.196
18466WAT     H255641   0.821   6.274   3.230
18467WAT      O55642   7.310   8.137   0.540
18467WAT     H155643   7.333   8.052   0.586
18467WAT     H255644   7.213   8.135   0.513
18468WAT      O55645   8.784   6.434   8.039
18468WAT     H155646   8.856   6.394   7.982
18468WAT     H255647   8.755   6.368   8.109
18469WAT      O55648   5.724   2.448   9.565
18469WAT     H155649   5.776   2.378   9.517
18469WAT     H255650   5.716   2.424   9.661
18470WAT      O55651   9.062   3.178   1.607
18470WAT     H155652   9.004   3.241   1.658
18470WAT     H255653   9.032   3.084   1.624
18471WAT      O55654   1.875   5.169   1.532
18471WAT     H155655   1.837   5.095   1.477
18471WAT     H255656   1.801   5.231   1.559
18472WAT      O55657   9.684   5.433   8.094
18472WAT     H155658   9.718   5.342   8.067
18472WAT     H255659   9.630   5.425   8.178
18473WAT      O55660   5.965   7.098   7.266
18473WAT     H155661   5.903   7.020   7.269
18473WAT     H255662   5.992   7.116   7.172
18474WAT      O55663   7.727   3.801   8.282
18474WAT     H155664   7.628   3.792   8.287
18474WAT     H255665   7.768   3.711   8.268
18475WAT      O55666   4.840   2.036   2.153
18475WAT     H155667   4.755   2.004   2.194
18475WAT     H255668   4.907   1.962   2.153
18476WAT      O55669   4.824   5.992   3.749
18476WAT     H155670   4.782   5.909   3.786
18476WAT     H255671   4.923   5.989   3.762
18477WAT      O55672   5.027   4.484   7.596
18477WAT     H155673   4.975   4.561   7.634
18477WAT     H255674   5.123   4.511   7.586
18478WAT      O55675   8.229   8.049   4.126
18478WAT     H155676   8.311   8.097   4.094
18478WAT     H255677   8.186   8.102   4.199
18479WAT      O55678   7.079   6.607   7.978
18479WAT     H155679   7.072   6.526   8.037
18479WAT     H255680   7.171   6.612   7.938
18480WAT      O55681   1.233   0.728   8.214
18480WAT     H155682   1.310   0.704   8.273
18480WAT     H255683   1.266   0.777   8.134
18481WAT      O55684   2.818   5.627   8.842
18481WAT     H155685   2.828   5.576   8.757
18481WAT     H255686   2.907   5.662   8.871
18482WAT      O55687   3.027   4.084   1.349
18482WAT     H155688   3.081   4.160   1.386
18482WAT     H255689   2.958   4.057   1.417
18483WAT      O55690   4.639   9.669   8.828
18483WAT     H155691   4.634   9.571   8.848
18483WAT     H255692   4.647   9.720   8.914
18484WAT      O55693   3.390   6.572   5.571
18484WAT     H155694   3.404   6.629   5.490
18484WAT     H255695   3.292   6.561   5.587
18485WAT      O55696   1.156   9.771   7.574
18485WAT     H155697   1.133   9.858   7.530
18485WAT     H255698   1.211   9.790   7.655
18486WAT      O55699   8.565   7.906   8.475
18486WAT     H155700   8.473   7.889   8.509
18486WAT     H255701   8.569   7.889   8.377
18487WAT      O55702   7.661   5.583   7.624
18487WAT     H155703   7.758   5.596   7.607
18487WAT     H255704   7.607   5.631   7.555
18488WAT      O55705   5.465   9.588   1.997
18488WAT     H155706   5.386   9.591   2.058
18488WAT     H255707   5.445   9.530   1.918
18489WAT      O55708   0.117   5.269   8.640
18489WAT     H155709   0.161   5.205   8.577
18489WAT     H255710   0.163   5.265   8.729
18490WAT      O55711   1.439   9.587   4.866
18490WAT     H155712   1.357   9.566   4.814
18490WAT     H255713   1.452   9.519   4.938
18491WAT      O55714   8.785   4.661   8.989
18491WAT     H155715   8.716   4.590   9.008
18491WAT     H255716   8.740   4.750   8.982
18492WAT      O55717   1.896   2.477   5.989
18492WAT     H155718   1.860   2.543   6.055
18492WAT     H255719   1.839   2.479   5.906
18493WAT      O55720   0.746   4.011   7.815
18493WAT     H155721   0.745   3.988   7.913
18493WAT     H255722   0.840   4.012   7.781
18494WAT      O55723   1.839   7.114   2.457
18494WAT     H155724   1.920   7.063   2.487
18494WAT     H255725   1.769   7.111   2.529
18495WAT      O55726   6.261   5.032   6.910
18495WAT     H155727   6.183   5.004   6.853
18495WAT     H255728   6.279   4.961   6.978
18496WAT      O55729   6.640   9.488   9.074
18496WAT     H155730   6.626   9.447   9.164
18496WAT     H255731   6.671   9.418   9.010
18497WAT      O55732   8.185   6.162   5.545
18497WAT     H155733   8.184   6.082   5.604
18497WAT     H255734   8.259   6.224   5.572
18498WAT      O55735   6.128   8.098   3.881
18498WAT     H155736   6.038   8.117   3.920
18498WAT     H255737   6.178   8.035   3.941
18499WAT      O55738   4.582   4.781   5.886
18499WAT     H155739   4.680   4.801   5.899
18499WAT     H255740   4.571   4.686   5.857
18500WAT      O55741   1.762   8.308   6.445
18500WAT     H155742   1.848   8.264   6.467
18500WAT     H255743   1.704   8.313   6.526
18501WAT      O55744   8.867   2.946   1.064
18501WAT     H155745   8.849   2.921   1.159
18501WAT     H255746   8.832   3.038   1.046
18502WAT      O55747   3.565   6.479   3.471
18502WAT     H155748   3.506   6.430   3.407
18502WAT     H255749   3.627   6.415   3.515
18503WAT      O55750   6.152   0.387   6.034
18503WAT     H155751   6.158   0.477   6.078
18503WAT     H255752   6.150   0.316   6.104
18504WAT      O55753   5.055   6.694   0.059
18504WAT     H155754   5.030   6.776   0.112
18504WAT     H255755   5.031   6.708  -0.037
18505WAT      O55756   4.178   9.243   3.785
18505WAT     H155757   4.218   9.240   3.693
18505WAT     H255758   4.250   9.260   3.852
18506WAT      O55759   6.204   6.777   3.242
18506WAT     H155760   6.137   6.761   3.170
18506WAT     H255761   6.179   6.857   3.295
18507WAT      O55762   8.464   5.597   2.774
18507WAT     H155763   8.553   5.617   2.814
18507WAT     H255764   8.443   5.664   2.702
18508WAT      O55765   2.306   1.778   5.515
18508WAT     H155766   2.226   1.718   5.511
18508WAT     H255767   2.380   1.731   5.563
18509WAT      O55768   0.409   8.300   6.736
18509WAT     H155769   0.389   8.270   6.829
18509WAT     H255770   0.459   8.229   6.687
18510WAT      O55771   6.074   7.414   1.778
18510WAT     H155772   6.118   7.457   1.699
18510WAT     H255773   6.000   7.473   1.811
18511WAT      O55774   6.995   7.324   3.678
18511WAT     H155775   6.990   7.417   3.715
18511WAT     H255776   6.949   7.321   3.590
18512WAT      O55777   4.378   2.764   7.741
18512WAT     H155778   4.464   2.744   7.694
18512WAT     H255779   4.396   2.818   7.823
18513WAT      O55780   1.473   7.244   0.889
18513WAT     H155781   1.536   7.259   0.814
18513WAT     H255782   1.525   7.228   0.974
18514WAT      O55783   6.173   7.470   9.066
18514WAT     H155784   6.148   7.503   8.975
18514WAT     H255785   6.199   7.548   9.124
18515WAT      O55786   6.863   1.332   8.523
18515WAT     H155787   6.833   1.418   8.481
18515WAT     H255788   6.897   1.271   8.451
18516WAT      O55789   0.787   5.486   4.347
18516WAT     H155790   0.844   5.550   4.400
18516WAT     H255791   0.840   5.403   4.327
18517WAT      O55792   4.409   9.053   2.329
18517WAT     H155793   4.488   9.020   2.277
18517WAT     H255794   4.326   9.015   2.289
18518WAT      O55795   3.627   3.745   6.592
18518WAT     H155796   3.592   3.776   6.680
18518WAT     H255797   3.658   3.650   6.600
18519WAT      O55798   7.628   1.309   2.819
18519WAT     H155799   7.572   1.265   2.749
18519WAT     H255800   7.639   1.406   2.797
18520WAT      O55801   4.043   7.918   2.868
18520WAT     H155802   4.100   7.910   2.786
18520WAT     H255803   4.079   7.990   2.927
18521WAT      O55804   3.480   4.948   5.783
18521WAT     H155805   3.463   5.004   5.703
18521WAT     H255806   3.522   4.862   5.756
18522WAT      O55807   7.352   1.569   1.000
18522WAT     H155808   7.355   1.532   0.907
18522WAT     H255809   7.356   1.669   0.997
18523WAT      O55810   4.103   7.274   1.174
18523WAT     H155811   4.045   7.325   1.237
18523WAT     H255812   4.187   7.246   1.221
18524WAT      O55813   4.667   8.235   2.425
18524WAT     H155814   4.588   8.270   2.476
18524WAT     H255815   4.721   8.175   2.484
18525WAT      O55816   2.019   5.319   6.662
18525WAT     H155817   2.018   5.361   6.571
18525WAT     H255818   1.966   5.376   6.725
18526WAT      O55819   6.483   7.636   9.498
18526WAT     H155820   6.403   7.614   9.553
18526WAT     H255821   6.566   7.624   9.553
18527WAT      O55822   8.312   0.745   1.775
18527WAT     H155823   8.272   0.671   1.829
18527WAT     H255824   8.306   0.722   1.678
18528WAT      O55825   1.556   4.606   4.764
18528WAT     H155826   1.567   4.552   4.847
18528WAT     H255827   1.472   4.580   4.717
18529WAT      O55828   0.127   0.671   1.446
18529WAT     H155829   0.068   0.749   1.424
18529WAT     H255830   0.102   0.634   1.536
18530WAT      O55831   7.652   2.887   7.247
18530WAT     H155832   7.644   2.847   7.338
18530WAT     H255833   7.608   2.827   7.180
18531WAT      O55834   5.657   2.559   1.113
18531WAT     H155835   5.631   2.561   1.209
18531WAT     H255836   5.586   2.511   1.060
18532WAT      O55837   4.316   1.854   2.912
18532WAT     H155838   4.258   1.900   2.981
18532WAT     H255839   4.393   1.811   2.958
18533WAT      O55840   2.931   9.059   2.871
18533WAT     H155841   2.866   8.993   2.909
18533WAT     H255842   2.884   9.143   2.846
18534WAT      O55843   8.158   4.068   6.434
18534WAT     H155844   8.083   4.100   6.376
18534WAT     H255845   8.245   4.098   6.395
18535WAT      O55846   3.401   5.420   7.555
18535WAT     H155847   3.303   5.401   7.559
18535WAT     H255848   3.433   5.449   7.646
18536WAT      O55849   4.654   4.885   3.451
18536WAT     H155850   4.672   4.803   3.396
18536WAT     H255851   4.557   4.887   3.477
18537WAT      O55852   0.823   3.749   6.250
18537WAT     H155853   0.763   3.696   6.190
18537WAT     H255854   0.857   3.829   6.201
18538WAT      O55855   7.208   0.165   0.548
18538WAT     H155856   7.301   0.189   0.518
18538WAT     H255857   7.163   0.111   0.476
18539WAT      O55858   4.708   3.366   2.767
18539WAT     H155859   4.746   3.305   2.697
18539WAT     H255860   4.774   3.375   2.843
18540WAT      O55861   0.964   1.202   7.481
18540WAT     H155862   1.022   1.282   7.495
18540WAT     H255863   0.916   1.211   7.394
18541WAT      O55864   3.170   5.888   8.187
18541WAT     H155865   3.207   5.847   8.271
18541WAT     H255866   3.244   5.901   8.121
18542WAT      O55867   3.194   0.928   6.094
18542WAT     H155868   3.250   0.959   6.017
18542WAT     H255869   3.141   0.847   6.066
18543WAT      O55870   6.546   3.145   1.388
18543WAT     H155871   6.557   3.201   1.470
18543WAT     H255872   6.615   3.072   1.387
18544WAT      O55873   0.738   8.411   4.623
18544WAT     H155874   0.690   8.343   4.567
18544WAT     H255875   0.806   8.365   4.680
18545WAT      O55876   8.635   6.463   4.634
18545WAT     H155877   8.705   6.493   4.570
18545WAT     H255878   8.677   6.405   4.704
18546WAT      O55879   6.921   7.204   5.877
18546WAT     H155880   6.931   7.302   5.891
18546WAT     H255881   6.881   7.162   5.959
18547WAT      O55882   8.310   0.245   1.942
18547WAT     H155883   8.241   0.226   1.872
18547WAT     H255884   8.391   0.188   1.926
18548WAT      O55885   4.153   5.773   9.724
18548WAT     H155886   4.139   5.791   9.822
18548WAT     H255887   4.068   5.794   9.674
18549WAT      O55888   0.308   8.939   5.546
18549WAT     H155889   0.263   8.893   5.622
18549WAT     H255890   0.389   8.988   5.578
18550WAT      O55891   4.398   7.361   3.949
18550WAT     H155892   4.373   7.270   3.981
18550WAT     H255893   4.496   7.364   3.928
18551WAT      O55894   0.026   1.998   3.861
18551WAT     H155895   0.076   2.067   3.808
18551WAT     H255896   0.082   1.915   3.867
18552WAT      O55897   8.813   3.462   1.550
18552WAT     H155898   8.757   3.382   1.528
18552WAT     H255899   8.848   3.454   1.643
18553WAT      O55900   0.510   8.700   4.131
18553WAT     H155901   0.522   8.610   4.173
18553WAT     H255902   0.423   8.740   4.162
18554WAT      O55903   2.844   0.400   2.431
18554WAT     H155904   2.806   0.308   2.424
18554WAT     H255905   2.843   0.443   2.340
18555WAT      O55906   8.075   1.561   5.056
18555WAT     H155907   8.119   1.616   5.128
18555WAT     H255908   8.019   1.490   5.097
18556WAT      O55909   5.188   8.036   2.519
18556WAT     H155910   5.117   8.100   2.492
18556WAT     H255911   5.255   8.026   2.446
18557WAT      O55912   9.070   0.452   7.636
18557WAT     H155913   9.117   0.526   7.588
18557WAT     H255914   8.984   0.432   7.589
18558WAT      O55915   4.452   1.846   6.607
18558WAT     H155916   4.362   1.857   6.565
18558WAT     H255917   4.487   1.754   6.587
18559WAT      O55918   8.105   7.857   1.704
18559WAT     H155919   8.183   7.920   1.701
18559WAT     H255920   8.023   7.906   1.733
18560WAT      O55921   6.911   8.804   8.919
18560WAT     H155922   6.881   8.852   8.837
18560WAT     H255923   6.847   8.731   8.939
18561WAT      O55924   8.287   5.930   8.107
18561WAT     H155925   8.361   5.863   8.098
18561WAT     H255926   8.266   5.969   8.018
18562WAT      O55927   0.267   0.037   4.688
18562WAT     H155928   0.335   0.107   4.665
18562WAT     H255929   0.313  -0.042   4.729
18563WAT      O55930   7.451   3.107   6.320
18563WAT     H155931   7.401   3.022   6.337
18563WAT     H255932   7.485   3.107   6.226
18564WAT      O55933   7.885   3.523   0.666
18564WAT     H155934   7.787   3.517   0.686
18564WAT     H255935   7.914   3.618   0.671
18565WAT      O55936   9.839   1.534   4.165
18565WAT     H155937   9.800   1.609   4.111
18565WAT     H255938   9.932   1.517   4.134
18566WAT      O55939   4.898   7.806   1.749
18566WAT     H155940   4.949   7.720   1.754
18566WAT     H255941   4.800   7.787   1.753
18567WAT      O55942   4.780   3.609   7.689
18567WAT     H155943   4.753   3.658   7.772
18567WAT     H255944   4.879   3.596   7.688
18568WAT      O55945   0.714   7.486   9.021
18568WAT     H155946   0.666   7.483   8.933
18568WAT     H255947   0.666   7.427   9.086
18569WAT      O55948   7.556   2.794   7.779
18569WAT     H155949   7.539   2.748   7.866
18569WAT     H255950   7.484   2.861   7.762
18570WAT      O55951   4.652   7.541   8.385
18570WAT     H155952   4.596   7.608   8.434
18570WAT     H255953   4.747   7.572   8.384
18571WAT      O55954   3.030   8.914   7.190
18571WAT     H155955   3.072   8.999   7.222
18571WAT     H255956   3.074   8.836   7.235
18572WAT      O55957   7.014   7.440   6.221
18572WAT     H155958   7.071   7.359   6.210
18572WAT     H255959   7.065   7.521   6.189
18573WAT      O55960   4.104   2.608   6.312
18573WAT     H155961   4.178   2.608   6.245
18573WAT     H255962   4.018   2.631   6.267
18574WAT      O55963   4.893   5.460   6.393
18574WAT     H155964   4.904   5.531   6.463
18574WAT     H255965   4.983   5.437   6.355
18575WAT      O55966   4.786   5.877   1.074
18575WAT     H155967   4.855   5.806   1.088
18575WAT     H255968   4.831   5.964   1.056
18576WAT      O55969   1.355   5.735   6.076
18576WAT     H155970   1.304   5.819   6.059
18576WAT     H255971   1.369   5.687   5.989
18577WAT      O55972   6.979   8.639   7.234
18577WAT     H155973   6.985   8.734   7.203
18577WAT     H255974   6.961   8.637   7.332
18578WAT      O55975   7.809   1.308   1.101
18578WAT     H155976   7.871   1.258   1.041
18578WAT     H255977   7.721   1.320   1.056
18579WAT      O55978   5.036   4.528   1.649
18579WAT     H155979   5.003   4.621   1.666
18579WAT     H255980   5.051   4.482   1.737
18580WAT      O55981   3.642   4.848   0.196
18580WAT     H155982   3.556   4.835   0.245
18580WAT     H255983   3.628   4.830   0.098
18581WAT      O55984   9.106   7.463   4.149
18581WAT     H155985   9.027   7.464   4.210
18581WAT     H255986   9.187   7.494   4.199
18582WAT      O55987   5.295   5.157   2.555
18582WAT     H155988   5.337   5.100   2.626
18582WAT     H255989   5.196   5.154   2.564
18583WAT      O55990   5.666   1.678   4.205
18583WAT     H155991   5.699   1.660   4.298
18583WAT     H255992   5.599   1.752   4.208
18584WAT      O55993   6.962   1.278   8.835
18584WAT     H155994   6.889   1.262   8.768
18584WAT     H255995   6.973   1.377   8.849
18585WAT      O55996   6.212   7.077   0.890
18585WAT     H155997   6.194   7.050   0.796
18585WAT     H255998   6.311   7.081   0.905
18586WAT      O55999   8.361   0.407   6.343
18586WAT     H156000   8.286   0.453   6.390
18586WAT     H256001   8.426   0.372   6.411
18587WAT      O56002   1.565   7.148   9.030
18587WAT     H156003   1.616   7.085   8.972
18587WAT     H256004   1.616   7.233   9.042
18588WAT      O56005   5.528   9.281   4.041
18588WAT     H156006   5.480   9.303   4.126
18588WAT     H256007   5.507   9.351   3.973
18589WAT      O56008   1.504   8.686   5.145
18589WAT     H156009   1.481   8.763   5.086
18589WAT     H256010   1.546   8.719   5.229
18590WAT      O56011   4.080   5.872   5.171
18590WAT     H156012   4.033   5.935   5.233
18590WAT     H256013   4.140   5.812   5.224
18591WAT      O56014   3.279   7.622   0.608
18591WAT     H156015   3.218   7.695   0.578
18591WAT     H256016   3.240   7.576   0.689
18592WAT      O56017   6.325   5.712   6.376
18592WAT     H156018   6.340   5.676   6.468
18592WAT     H256019   6.409   5.705   6.323
18593WAT      O56020   9.723   0.178   2.239
18593WAT     H156021   9.623   0.168   2.246
18593WAT     H256022   9.764   0.089   2.217
18594WAT      O56023   0.020   7.376   3.680
18594WAT     H156024   0.048   7.330   3.764
18594WAT     H256025  -0.079   7.393   3.682
18595WAT      O56026   0.508   0.305   8.179
18595WAT     H156027   0.497   0.229   8.115
18595WAT     H256028   0.455   0.383   8.146
18596WAT      O56029   9.229   6.814   6.048
18596WAT     H156030   9.274   6.749   6.108
18596WAT     H256031   9.146   6.773   6.010
18597WAT      O56032   7.724   6.863   7.630
18597WAT     H156033   7.802   6.866   7.693
18597WAT     H256034   7.652   6.923   7.664
18598WAT      O56035   3.407   6.927   8.090
18598WAT     H156036   3.324   6.872   8.099
18598WAT     H256037   3.480   6.886   8.145
18599WAT      O56038   4.505   8.737   5.318
18599WAT     H156039   4.502   8.644   5.355
18599WAT     H256040   4.595   8.776   5.332
18600WAT      O56041   2.747   7.372   9.793
18600WAT     H156042   2.679   7.441   9.769
18600WAT     H256043   2.796   7.401   9.875
18601WAT      O56044   1.894   3.924   9.321
18601WAT     H156045   1.970   3.860   9.313
18601WAT     H256046   1.811   3.882   9.285
18602WAT      O56047   9.745   4.512   8.968
18602WAT     H156048   9.723   4.541   9.061
18602WAT     H256049   9.686   4.435   8.942
18603WAT      O56050   8.040   9.344   8.644
18603WAT     H156051   8.089   9.287   8.578
18603WAT     H256052   7.992   9.417   8.596
18604WAT      O56053   6.383   5.257   8.119
18604WAT     H156054   6.347   5.170   8.155
18604WAT     H256055   6.440   5.238   8.039
18605WAT      O56056   9.850   7.192   7.901
18605WAT     H156057   9.828   7.234   7.989
18605WAT     H256058   9.772   7.199   7.840
18606WAT      O56059   2.971   3.669   6.007
18606WAT     H156060   2.879   3.708   6.006
18606WAT     H256061   3.019   3.696   5.923
18607WAT      O56062   6.078   5.159   5.165
18607WAT     H156063   6.114   5.252   5.158
18607WAT     H256064   6.126   5.109   5.238
18608WAT      O56065   5.754   8.811   1.015
18608WAT     H156066   5.735   8.718   1.045
18608WAT     H256067   5.812   8.857   1.082
18609WAT      O56068   4.482   2.791   9.185
18609WAT     H156069   4.514   2.866   9.243
18609WAT     H256070   4.402   2.821   9.133
18610WAT      O56071   1.862   0.471   2.095
18610WAT     H156072   1.769   0.508   2.099
18610WAT     H256073   1.917   0.526   2.032
18611WAT      O56074   3.857   4.217   3.655
18611WAT     H156075   3.885   4.285   3.723
18611WAT     H256076   3.769   4.178   3.681
18612WAT      O56077   6.864   2.322   0.897
18612WAT     H156078   6.915   2.253   0.845
18612WAT     H256079   6.802   2.370   0.835
18613WAT      O56080   7.797   5.930   2.039
18613WAT     H156081   7.857   5.904   2.115
18613WAT     H256082   7.717   5.871   2.038
18614WAT      O56083   1.331   9.193   5.289
18614WAT     H156084   1.427   9.220   5.291
18614WAT     H256085   1.306   9.155   5.378
18615WAT      O56086   9.521   3.651   5.699
18615WAT     H156087   9.425   3.677   5.703
18615WAT     H256088   9.577   3.732   5.680
18616WAT      O56089   1.855   9.370   0.797
18616WAT     H156090   1.922   9.335   0.732
18616WAT     H256091   1.902   9.427   0.866
18617WAT      O56092   7.353   0.244   1.581
18617WAT     H156093   7.258   0.243   1.553
18617WAT     H256094   7.411   0.270   1.504
18618WAT      O56095   9.780   8.758   1.035
18618WAT     H156096   9.864   8.711   1.062
18618WAT     H256097   9.799   8.856   1.024
18619WAT      O56098   8.930   3.544   1.326
18619WAT     H156099   8.868   3.514   1.399
18619WAT     H256100   9.015   3.577   1.366
18620WAT      O56101   9.043   2.426   5.878
18620WAT     H156102   9.062   2.482   5.797
18620WAT     H256103   8.993   2.344   5.851
18621WAT      O56104   1.018   2.394   1.522
18621WAT     H156105   1.066   2.309   1.542
18621WAT     H256106   0.923   2.375   1.498
18622WAT      O56107   5.935   8.403   3.110
18622WAT     H156108   6.019   8.352   3.126
18622WAT     H256109   5.948   8.499   3.136
18623WAT      O56110   6.951   4.267   3.666
18623WAT     H156111   7.046   4.288   3.644
18623WAT     H256112   6.909   4.345   3.711
18624WAT      O56113   0.828   9.586   3.409
18624WAT     H156114   0.907   9.591   3.470
18624WAT     H256115   0.761   9.655   3.435
18625WAT      O56116   3.185   9.748   6.220
18625WAT     H156117   3.113   9.733   6.289
18625WAT     H256118   3.157   9.820   6.158
18626WAT      O56119   6.074   7.880   3.460
18626WAT     H156120   6.104   7.875   3.555
18626WAT     H256121   6.010   7.806   3.440
18627WAT      O56122   2.844   1.179   2.610
18627WAT     H156123   2.842   1.117   2.532
18627WAT     H256124   2.931   1.170   2.657
18628WAT      O56125   7.853   6.848   0.376
18628WAT     H156126   7.797   6.773   0.413
18628WAT     H256127   7.891   6.902   0.451
18629WAT      O56128   2.111   6.666   1.532
18629WAT     H156129   2.040   6.596   1.522
18629WAT     H256130   2.069   6.752   1.560
18630WAT      O56131   1.350   3.474   1.462
18630WAT     H156132   1.273   3.419   1.497
18630WAT     H256133   1.436   3.426   1.480
18631WAT      O56134   5.553   8.345   8.487
18631WAT     H156135   5.584   8.353   8.581
18631WAT     H256136   5.532   8.437   8.451
18632WAT      O56137   6.049   9.138   2.437
18632WAT     H156138   5.950   9.127   2.446
18632WAT     H256139   6.083   9.194   2.512
18633WAT      O56140   7.629   0.509   5.810
18633WAT     H156141   7.723   0.486   5.837
18633WAT     H256142   7.567   0.489   5.886
18634WAT      O56143   7.362   2.563   7.801
18634WAT     H156144   7.329   2.480   7.757
18634WAT     H256145   7.324   2.643   7.754
18635WAT      O56146   6.921   4.306   7.242
18635WAT     H156147   6.917   4.214   7.204
18635WAT     H256148   7.016   4.333   7.254
18636WAT      O56149   8.953   3.484   8.283
18636WAT     H156150   9.007   3.426   8.342
18636WAT     H256151   8.958   3.451   8.189
18637WAT      O56152   5.351   6.696   0.819
18637WAT     H156153   5.305   6.623   0.870
18637WAT     H256154   5.449   6.692   0.835
18638WAT      O56155   5.933   5.324   3.629
18638WAT     H156156   5.901   5.364   3.715
18638WAT     H256157   6.031   5.341   3.619
18639WAT      O56158   1.518   7.013   5.211
18639WAT     H156159   1.421   6.993   5.197
18639WAT     H256160   1.549   7.078   5.141
18640WAT      O56161   8.559   6.688   7.273
18640WAT     H156162   8.610   6.713   7.356
18640WAT     H256163   8.624   6.661   7.201
18641WAT      O56164   5.795   0.887   5.298
18641WAT     H156165   5.876   0.928   5.341
18641WAT     H256166   5.780   0.930   5.209
18642WAT      O56167   5.804   8.564   1.610
18642WAT     H156168   5.896   8.533   1.589
18642WAT     H256169   5.761   8.599   1.526
18643WAT      O56170   6.542   9.410   8.030
18643WAT     H156171   6.576   9.430   8.122
18643WAT     H256172   6.447   9.377   8.037
18644WAT      O56173   5.515   6.957   7.946
18644WAT     H156174   5.538   6.999   8.033
18644WAT     H256175   5.580   6.883   7.926
18645WAT      O56176   9.533   3.220   8.120
18645WAT     H156177   9.584   3.135   8.102
18645WAT     H256178   9.584   3.298   8.084
18646WAT      O56179   8.255   3.865   1.195
18646WAT     H156180   8.278   3.842   1.101
18646WAT     H256181   8.220   3.959   1.199
18647WAT      O56182   3.452   8.797   2.489
18647WAT     H156183   3.390   8.724   2.459
18647WAT     H256184   3.431   8.820   2.584
18648WAT      O56185   5.033   3.150   4.971
18648WAT     H156186   5.019   3.061   4.929
18648WAT     H256187   5.101   3.202   4.918
18649WAT      O56188   2.676   4.067   1.389
18649WAT     H156189   2.659   4.162   1.361
18649WAT     H256190   2.591   4.015   1.383
18650WAT      O56191   4.028   8.613   6.521
18650WAT     H156192   3.986   8.677   6.586
18650WAT     H256193   4.126   8.608   6.536
18651WAT      O56194   1.758   8.506   2.238
18651WAT     H156195   1.802   8.585   2.279
18651WAT     H256196   1.795   8.422   2.278
18652WAT      O56197   4.967   6.271   9.741
18652WAT     H156198   5.044   6.208   9.732
18652WAT     H256199   4.985   6.337   9.815
18653WAT      O56200   4.471   8.094   7.459
18653WAT     H156201   4.532   8.045   7.521
18653WAT     H256202   4.510   8.096   7.367
18654WAT      O56203   1.922   8.193   3.660
18654WAT     H156204   1.875   8.280   3.646
18654WAT     H256205   1.995   8.184   3.592
18655WAT      O56206   2.731   1.097   6.786
18655WAT     H156207   2.792   1.021   6.807
18655WAT     H256208   2.637   1.071   6.807
18656WAT      O56209   5.607   7.065   6.531
18656WAT     H156210   5.677   7.103   6.470
18656WAT     H256211   5.622   6.967   6.542
18657WAT      O56212   1.005   6.410   0.924
18657WAT     H156213   1.027   6.312   0.917
18657WAT     H256214   1.010   6.452   0.834
18658WAT      O56215   5.851   0.147   7.726
18658WAT     H156216   5.865   0.246   7.734
18658WAT     H256217   5.939   0.102   7.710
18659WAT      O56218   9.685   2.787   5.432
18659WAT     H156219   9.736   2.709   5.397
18659WAT     H256220   9.640   2.834   5.356
18660WAT      O56221   0.405   1.664   0.619
18660WAT     H156222   0.343   1.598   0.576
18660WAT     H256223   0.378   1.756   0.592
18661WAT      O56224   5.393   9.619   9.726
18661WAT     H156225   5.433   9.577   9.808
18661WAT     H256226   5.296   9.637   9.742
18662WAT      O56227   9.194   4.308   9.005
18662WAT     H156228   9.274   4.342   9.056
18662WAT     H256229   9.211   4.214   8.977
18663WAT      O56230   8.407   3.236   0.692
18663WAT     H156231   8.465   3.180   0.751
18663WAT     H256232   8.428   3.216   0.596
18664WAT      O56233   8.744   5.623   6.489
18664WAT     H156234   8.810   5.556   6.456
18664WAT     H256235   8.721   5.604   6.585
18665WAT      O56236   1.538   6.278   4.966
18665WAT     H156237   1.622   6.224   4.959
18665WAT     H256238   1.509   6.306   4.875
18666WAT      O56239   2.499   2.656   6.794
18666WAT     H156240   2.457   2.718   6.729
18666WAT     H256241   2.546   2.709   6.865
18667WAT      O56242   5.755   9.153   3.493
18667WAT     H156243   5.796   9.230   3.541
18667WAT     H256244   5.823   9.108   3.436
18668WAT      O56245   9.304   4.855   7.583
18668WAT     H156246   9.266   4.807   7.662
18668WAT     H256247   9.388   4.809   7.553
18669WAT      O56248   2.583   2.223   6.788
18669WAT     H156249   2.643   2.241   6.710
18669WAT     H256250   2.603   2.132   6.825
18670WAT      O56251   5.782   2.210   1.930
18670WAT     H156252   5.734   2.207   1.842
18670WAT     H256253   5.819   2.119   1.951
18671WAT      O56254   1.792   6.912   1.838
18671WAT     H156255   1.766   6.976   1.765
18671WAT     H256256   1.852   6.959   1.904
18672WAT      O56257   9.498   4.984   8.521
18672WAT     H156258   9.572   4.919   8.510
18672WAT     H256259   9.535   5.072   8.552
18673WAT      O56260   9.443   0.408   5.218
18673WAT     H156261   9.376   0.461   5.165
18673WAT     H256262   9.411   0.314   5.227
18674WAT      O56263   4.992   7.676   0.394
18674WAT     H156264   4.961   7.581   0.381
18674WAT     H256265   4.913   7.734   0.411
18675WAT      O56266   9.657   8.946   9.710
18675WAT     H156267   9.729   9.008   9.745
18675WAT     H256268   9.681   8.916   9.618
18676WAT      O56269   5.619   3.323   3.723
18676WAT     H156270   5.545   3.256   3.730
18676WAT     H256271   5.580   3.414   3.708
18677WAT      O56272   4.873   0.421   6.477
18677WAT     H156273   4.830   0.448   6.390
18677WAT     H256274   4.941   0.350   6.459
18678WAT      O56275   8.274   3.709   7.282
18678WAT     H156276   8.218   3.627   7.267
18678WAT     H256277   8.291   3.720   7.380
18679WAT      O56278   6.263   4.956   7.207
18679WAT     H156279   6.233   4.929   7.298
18679WAT     H256280   6.275   4.874   7.150
18680WAT      O56281   4.535   2.589   8.135
18680WAT     H156282   4.552   2.520   8.064
18680WAT     H256283   4.441   2.621   8.128
18681WAT      O56284   4.861   3.116   0.516
18681WAT     H156285   4.798   3.038   0.515
18681WAT     H256286   4.952   3.086   0.488
18682WAT      O56287   3.399   9.688   0.416
18682WAT     H156288   3.452   9.625   0.473
18682WAT     H256289   3.327   9.730   0.471
18683WAT      O56290   3.194   2.560   8.269
18683WAT     H156291   3.132   2.482   8.265
18683WAT     H256292   3.223   2.576   8.364
18684WAT      O56293   8.628   3.003   0.298
18684WAT     H156294   8.728   3.009   0.304
18684WAT     H256295   8.601   2.990   0.203
18685WAT      O56296   2.428   6.700   8.060
18685WAT     H156297   2.526   6.724   8.060
18685WAT     H256298   2.405   6.654   7.975
18686WAT      O56299   2.682   4.776   1.201
18686WAT     H156300   2.726   4.830   1.129
18686WAT     H256301   2.601   4.732   1.164
18687WAT      O56302   2.630   0.497   0.489
18687WAT     H156303   2.653   0.414   0.438
18687WAT     H256304   2.562   0.549   0.439
18688WAT      O56305   6.530   1.589   3.903
18688WAT     H156306   6.573   1.663   3.852
18688WAT     H256307   6.442   1.566   3.861
18689WAT      O56308   2.024   9.478   8.296
18689WAT     H156309   1.927   9.482   8.320
18689WAT     H256310   2.035   9.426   8.211
18690WAT      O56311   6.991   4.773   6.415
18690WAT     H156312   6.917   4.828   6.454
18690WAT     H256313   6.952   4.702   6.356
18691WAT      O56314   6.964   2.327   7.159
18691WAT     H156315   6.913   2.332   7.246
18691WAT     H256316   6.936   2.244   7.110
18692WAT      O56317   5.925   8.363   0.797
18692WAT     H156318   5.860   8.438   0.781
18692WAT     H256319   5.941   8.313   0.712
18693WAT      O56320   0.342   7.201   1.131
18693WAT     H156321   0.294   7.118   1.159
18693WAT     H256322   0.302   7.235   1.045
18694WAT      O56323   0.185   8.376   6.076
18694WAT     H156324   0.235   8.342   6.156
18694WAT     H256325   0.089   8.387   6.100
18695WAT      O56326   2.180   3.950   7.268
18695WAT     H156327   2.251   3.935   7.336
18695WAT     H256328   2.212   4.016   7.200
18696WAT      O56329   5.173   7.341   4.448
18696WAT     H156330   5.248   7.289   4.490
18696WAT     H256331   5.129   7.397   4.517
18697WAT      O56332   6.416   1.347   3.606
18697WAT     H156333   6.511   1.378   3.616
18697WAT     H256334   6.397   1.278   3.676
18698WAT      O56335   1.931   7.486   8.083
18698WAT     H156336   1.976   7.538   8.155
18698WAT     H256337   1.910   7.394   8.115
18699WAT      O56338   9.184   2.004   6.078
18699WAT     H156339   9.136   1.960   6.154
18699WAT     H256340   9.176   2.104   6.087
18700WAT      O56341   2.729   8.183   5.965
18700WAT     H156342   2.787   8.256   6.002
18700WAT     H256343   2.711   8.115   6.036
18701WAT      O56344   1.967   1.253   9.356
18701WAT     H156345   1.934   1.347   9.370
18701WAT     H256346   1.897   1.200   9.309
18702WAT      O56347   0.426   0.337   8.822
18702WAT     H156348   0.484   0.401   8.772
18702WAT     H256349   0.336   0.378   8.835
18703WAT      O56350   2.924   3.367   2.326
18703WAT     H156351   2.839   3.403   2.286
18703WAT     H256352   2.961   3.433   2.392
18704WAT      O56353   6.511   4.663   7.582
18704WAT     H156354   6.574   4.700   7.514
18704WAT     H256355   6.453   4.593   7.540
18705WAT      O56356   3.775   8.254   1.235
18705WAT     H156357   3.745   8.338   1.279
18705WAT     H256358   3.705   8.183   1.246
18706WAT      O56359   5.456   1.134   3.120
18706WAT     H156360   5.422   1.144   3.027
18706WAT     H256361   5.551   1.101   3.118
18707WAT      O56362   9.083   8.113   9.197
18707WAT     H156363   9.179   8.086   9.186
18707WAT     H256364   9.059   8.116   9.294
18708WAT      O56365   1.481   8.859   7.493
18708WAT     H156366   1.423   8.940   7.499
18708WAT     H256367   1.446   8.788   7.555
18709WAT      O56368   3.923   7.715   8.385
18709WAT     H156369   3.974   7.745   8.465
18709WAT     H256370   3.826   7.707   8.409
18710WAT      O56371   2.779   6.611   9.791
18710WAT     H156372   2.770   6.519   9.828
18710WAT     H256373   2.758   6.609   9.693
18711WAT      O56374   1.350   4.505   8.362
18711WAT     H156375   1.284   4.435   8.333
18711WAT     H256376   1.433   4.460   8.397
18712WAT      O56377   7.200   8.594   1.711
18712WAT     H156378   7.294   8.589   1.677
18712WAT     H256379   7.199   8.637   1.801
18713WAT      O56380   3.795   5.761   1.070
18713WAT     H156381   3.731   5.814   1.125
18713WAT     H256382   3.881   5.751   1.119
18714WAT      O56383   6.621   3.740   7.901
18714WAT     H156384   6.588   3.777   7.988
18714WAT     H256385   6.543   3.711   7.846
18715WAT      O56386   6.753   8.653   4.353
18715WAT     H156387   6.668   8.665   4.404
18715WAT     H256388   6.740   8.582   4.284
18716WAT      O56389   7.557   9.495   2.127
18716WAT     H156390   7.544   9.574   2.188
18716WAT     H256391   7.639   9.509   2.072
18717WAT      O56392   6.310   3.871   3.332
18717WAT     H156393   6.242   3.840   3.399
18717WAT     H256394   6.275   3.857   3.240
18718WAT      O56395   8.813   2.679   0.295
18718WAT     H156396   8.776   2.598   0.249
18718WAT     H256397   8.739   2.726   0.344
18719WAT      O56398   8.074   3.260   0.218
18719WAT     H156399   8.118   3.170   0.221
18719WAT     H256400   8.097   3.311   0.301
18720WAT      O56401   0.484   1.380   6.871
18720WAT     H156402   0.528   1.317   6.935
18720WAT     H256403   0.503   1.475   6.898
18721WAT      O56404   6.404   1.851   9.771
18721WAT     H156405   6.448   1.762   9.784
18721WAT     H256406   6.465   1.923   9.805
18722WAT      O56407   3.172   5.398   4.603
18722WAT     H156408   3.204   5.379   4.510
18722WAT     H256409   3.139   5.313   4.644
18723WAT      O56410   0.969   5.469   8.098
18723WAT     H156411   1.011   5.379   8.106
18723WAT     H256412   0.940   5.484   8.004
18724WAT      O56413   8.349   5.430   6.096
18724WAT     H156414   8.324   5.398   6.005
18724WAT     H256415   8.347   5.353   6.160
18725WAT      O56416   8.143   8.208   6.200
18725WAT     H156417   8.064   8.230   6.256
18725WAT     H256418   8.164   8.285   6.139
18726WAT      O56419   6.198   1.709   4.935
18726WAT     H156420   6.190   1.627   4.878
18726WAT     H256421   6.242   1.684   5.021
18727WAT      O56422   2.802   2.201   7.225
18727WAT     H156423   2.800   2.270   7.297
18727WAT     H256424   2.746   2.230   7.148
18728WAT      O56425   8.316   6.518   5.163
18728WAT     H156426   8.321   6.617   5.175
18728WAT     H256427   8.222   6.492   5.140
18729WAT      O56428   0.322   5.018   1.363
18729WAT     H156429   0.356   5.091   1.421
18729WAT     H256430   0.297   4.939   1.420
18730WAT      O56431   9.795   5.101   9.490
18730WAT     H156432   9.866   5.031   9.492
18730WAT     H256433   9.739   5.095   9.573
18731WAT      O56434   8.172   7.740   1.276
18731WAT     H156435   8.140   7.707   1.365
18731WAT     H256436   8.097   7.788   1.229
18732WAT      O56437   4.924   2.899   4.884
18732WAT     H156438   4.865   2.876   4.807
18732WAT     H256439   4.950   2.815   4.932
18733WAT      O56440   1.304   8.837   5.926
18733WAT     H156441   1.278   8.753   5.975
18733WAT     H256442   1.396   8.864   5.954
18734WAT      O56443   4.116   9.607   6.436
18734WAT     H156444   4.038   9.545   6.450
18734WAT     H256445   4.184   9.562   6.378
18735WAT      O56446   7.577   4.338   3.663
18735WAT     H156447   7.624   4.426   3.660
18735WAT     H256448   7.645   4.265   3.661
18736WAT      O56449   2.517   7.784   7.313
18736WAT     H156450   2.516   7.685   7.298
18736WAT     H256451   2.556   7.830   7.233
18737WAT      O56452   1.802   8.193   7.806
18737WAT     H156453   1.781   8.280   7.850
18737WAT     H256454   1.722   8.162   7.754
18738WAT      O56455   1.470   2.192   2.799
18738WAT     H156456   1.542   2.169   2.733
18738WAT     H256457   1.380   2.183   2.755
18739WAT      O56458   5.774   5.486   9.549
18739WAT     H156459   5.681   5.489   9.585
18739WAT     H256460   5.823   5.408   9.587
18740WAT      O56461   2.566   9.110   4.961
18740WAT     H156462   2.595   9.080   4.870
18740WAT     H256463   2.508   9.041   5.002
18741WAT      O56464   5.978   6.367   7.068
18741WAT     H156465   6.060   6.424   7.078
18741WAT     H256466   5.908   6.398   7.131
18742WAT      O56467   5.703   4.580   6.760
18742WAT     H156468   5.706   4.492   6.712
18742WAT     H256469   5.612   4.594   6.798
18743WAT      O56470   0.369   6.736   1.782
18743WAT     H156471   0.408   6.684   1.858
18743WAT     H256472   0.409   6.828   1.780
18744WAT      O56473   3.726   1.078   4.762
18744WAT     H156474   3.711   1.043   4.855
18744WAT     H256475   3.821   1.061   4.735
18745WAT      O56476   1.747   7.907   3.416
18745WAT     H156477   1.762   7.929   3.319
18745WAT     H256478   1.649   7.909   3.435
18746WAT      O56479   9.069   9.594   6.161
18746WAT     H156480   9.141   9.594   6.231
18746WAT     H256481   9.103   9.551   6.077
18747WAT      O56482   9.064   8.660   7.719
18747WAT     H156483   9.126   8.701   7.652
18747WAT     H256484   9.028   8.732   7.779
18748WAT      O56485   6.820   2.191   3.605
18748WAT     H156486   6.754   2.200   3.531
18748WAT     H256487   6.912   2.186   3.567
18749WAT      O56488   9.233   0.343   5.492
18749WAT     H156489   9.298   0.414   5.520
18749WAT     H256490   9.283   0.265   5.455
18750WAT      O56491   1.874   0.352   8.885
18750WAT     H156492   1.836   0.438   8.852
18750WAT     H256493   1.941   0.317   8.820
18751WAT      O56494   7.856   6.889   2.276
18751WAT     H156495   7.886   6.979   2.305
18751WAT     H256496   7.917   6.820   2.314
18752WAT      O56497   9.202   7.019   9.138
18752WAT     H156498   9.227   7.065   9.223
18752WAT     H256499   9.238   7.070   9.060
18753WAT      O56500   2.074   9.406   7.613
18753WAT     H156501   1.984   9.411   7.655
18753WAT     H256502   2.136   9.354   7.672
18754WAT      O56503   6.408   6.570   0.514
18754WAT     H156504   6.430   6.513   0.435
18754WAT     H256505   6.492   6.611   0.550
18755WAT      O56506   4.056   6.133   4.058
18755WAT     H156507   3.982   6.067   4.067
18755WAT     H256508   4.019   6.220   4.023
18756WAT      O56509   9.122   4.584   5.346
18756WAT     H156510   9.040   4.624   5.386
18756WAT     H256511   9.179   4.546   5.419
18757WAT      O56512   4.986   5.642   8.804
18757WAT     H156513   4.986   5.545   8.827
18757WAT     H256514   5.077   5.670   8.774
18758WAT      O56515   3.027   2.028   2.480
18758WAT     H156516   2.997   2.113   2.522
18758WAT     H256517   3.076   2.048   2.395
18759WAT      O56518   7.443   5.405   3.172
18759WAT     H156519   7.387   5.429   3.251
18759WAT     H256520   7.390   5.347   3.110
18760WAT      O56521   0.808   7.885   7.462
18760WAT     H156522   0.865   7.899   7.381
18760WAT     H256523   0.862   7.900   7.544
18761WAT      O56524   2.881   7.743   8.898
18761WAT     H156525   2.886   7.651   8.860
18761WAT     H256526   2.883   7.811   8.824
18762WAT      O56527   9.555   9.708   7.639
18762WAT     H156528   9.508   9.732   7.724
18762WAT     H256529   9.552   9.785   7.576
18763WAT      O56530   1.618   3.972   1.000
18763WAT     H156531   1.650   4.063   0.975
18763WAT     H256532   1.554   3.938   0.930
18764WAT      O56533   5.673   2.174   1.681
18764WAT     H156534   5.739   2.166   1.606
18764WAT     H256535   5.633   2.266   1.681
18765WAT      O56536   2.717   0.209   0.815
18765WAT     H156537   2.631   0.162   0.794
18765WAT     H256538   2.704   0.308   0.809
18766WAT      O56539   0.681   4.428   8.193
18766WAT     H156540   0.670   4.519   8.155
18766WAT     H256541   0.596   4.376   8.180
18767WAT      O56542   0.172   0.129   6.460
18767WAT     H156543   0.123   0.099   6.542
18767WAT     H256544   0.126   0.093   6.379
18768WAT      O56545   3.282   4.936   4.600
18768WAT     H156546   3.246   4.844   4.612
18768WAT     H256547   3.289   4.981   4.689
18769WAT      O56548   1.819   8.275   1.677
18769WAT     H156549   1.824   8.265   1.578
18769WAT     H256550   1.840   8.369   1.703
18770WAT      O56551   4.127   3.721   3.411
18770WAT     H156552   4.027   3.713   3.405
18770WAT     H256553   4.160   3.668   3.489
18771WAT      O56554   2.204   2.219   8.877
18771WAT     H156555   2.153   2.132   8.873
18771WAT     H256556   2.140   2.295   8.868
18772WAT      O56557   3.215   3.569   5.207
18772WAT     H156558   3.205   3.521   5.295
18772WAT     H256559   3.162   3.521   5.137
18773WAT      O56560   4.507   2.630   7.189
18773WAT     H156561   4.581   2.679   7.236
18773WAT     H256562   4.464   2.566   7.252
18774WAT      O56563   2.054   8.695   7.582
18774WAT     H156564   2.031   8.606   7.542
18774WAT     H256565   2.018   8.700   7.675
18775WAT      O56566   6.344   1.799   8.493
18775WAT     H156567   6.268   1.748   8.535
18775WAT     H256568   6.321   1.820   8.398
18776WAT      O56569   2.515   9.712   4.196
18776WAT     H156570   2.527   9.614   4.180
18776WAT     H256571   2.469   9.727   4.284
18777WAT      O56572   8.019   8.049   4.853
18777WAT     H156573   8.115   8.073   4.838
18777WAT     H256574   7.967   8.069   4.770
18778WAT      O56575   9.417   9.231   4.134
18778WAT     H156576   9.391   9.269   4.223
18778WAT     H256577   9.460   9.142   4.147
18779WAT      O56578   9.513   8.981   0.855
18779WAT     H156579   9.482   8.898   0.902
18779WAT     H256580   9.525   9.055   0.922
18780WAT      O56581   5.703   7.993   8.699
18780WAT     H156582   5.742   8.068   8.645
18780WAT     H256583   5.766   7.916   8.700
18781WAT      O56584   7.100   8.756   8.535
18781WAT     H156585   7.071   8.803   8.452
18781WAT     H256586   7.095   8.657   8.522
18782WAT      O56587   6.501   4.566   2.375
18782WAT     H156588   6.477   4.572   2.278
18782WAT     H256589   6.485   4.473   2.408
18783WAT      O56590   6.509   6.955   4.945
18783WAT     H156591   6.492   6.862   4.911
18783WAT     H256592   6.606   6.967   4.962
18784WAT      O56593   9.776   3.241   4.575
18784WAT     H156594   9.748   3.150   4.545
18784WAT     H256595   9.835   3.233   4.655
18785WAT      O56596   2.122   0.222   4.370
18785WAT     H156597   2.109   0.141   4.313
18785WAT     H256598   2.151   0.298   4.313
18786WAT      O56599   1.114   0.290   8.380
18786WAT     H156600   1.122   0.346   8.298
18786WAT     H256601   1.165   0.205   8.367
18787WAT      O56602   9.028   2.842   0.610
18787WAT     H156603   9.019   2.897   0.527
18787WAT     H256604   9.123   2.845   0.641
18788WAT      O56605   9.178   1.862   3.268
18788WAT     H156606   9.228   1.851   3.182
18788WAT     H256607   9.210   1.944   3.315
18789WAT      O56608   2.637   0.338   7.454
18789WAT     H156609   2.547   0.355   7.414
18789WAT     H256610   2.635   0.250   7.502
18790WAT      O56611   2.278   0.037   6.586
18790WAT     H156612   2.234   0.081   6.664
18790WAT     H256613   2.269   0.096   6.506
18791WAT      O56614   7.889   6.767   5.848
18791WAT     H156615   7.867   6.741   5.943
18791WAT     H256616   7.883   6.686   5.790
18792WAT      O56617   4.480   8.462   1.300
18792WAT     H156618   4.550   8.392   1.285
18792WAT     H256619   4.523   8.545   1.334
18793WAT      O56620   9.428   1.003   0.493
18793WAT     H156621   9.415   0.928   0.428
18793WAT     H256622   9.503   1.062   0.461
18794WAT      O56623   5.524   7.877   8.884
18794WAT     H156624   5.474   7.805   8.836
18794WAT     H256625   5.576   7.931   8.819
18795WAT      O56626   9.557   8.822   5.168
18795WAT     H156627   9.617   8.814   5.248
18795WAT     H256628   9.496   8.900   5.179
18796WAT      O56629   6.096   8.734   5.606
18796WAT     H156630   6.091   8.645   5.560
18796WAT     H256631   6.141   8.800   5.545
18797WAT      O56632   9.575   2.539   6.682
18797WAT     H156633   9.599   2.636   6.687
18797WAT     H256634   9.568   2.511   6.586
18798WAT      O56635   5.549   8.729   4.062
18798WAT     H156636   5.511   8.646   4.020
18798WAT     H256637   5.606   8.777   3.996
18799WAT      O56638   0.017   5.596   3.634
18799WAT     H156639  -0.076   5.564   3.617
18799WAT     H256640   0.057   5.630   3.549
18800WAT      O56641   1.734   8.954   3.311
18800WAT     H156642   1.759   8.956   3.408
18800WAT     H256643   1.791   8.887   3.263
18801WAT      O56644   7.484   4.515   7.388
18801WAT     H156645   7.427   4.480   7.314
18801WAT     H256646   7.473   4.614   7.395
18802WAT      O56647   8.296   9.052   8.909
18802WAT     H156648   8.322   8.966   8.952
18802WAT     H256649   8.276   9.036   8.812
18803WAT      O56650   0.722   3.698   7.926
18803WAT     H156651   0.710   3.638   8.006
18803WAT     H256652   0.635   3.742   7.905
18804WAT      O56653   9.140   7.879   0.461
18804WAT     H156654   9.067   7.901   0.397
18804WAT     H256655   9.102   7.827   0.538
18805WAT      O56656   9.680   4.097   7.243
18805WAT     H156657   9.753   4.100   7.311
18805WAT     H256658   9.621   4.177   7.254
18806WAT      O56659   3.170   4.394   7.418
18806WAT     H156660   3.101   4.411   7.488
18806WAT     H256661   3.238   4.467   7.419
18807WAT      O56662   4.722   4.858   7.990
18807WAT     H156663   4.694   4.894   7.901
18807WAT     H256664   4.816   4.887   8.010
18808WAT      O56665   8.606   1.097   1.858
18808WAT     H156666   8.701   1.102   1.888
18808WAT     H256667   8.572   1.004   1.871
18809WAT      O56668   7.626   2.520   5.624
18809WAT     H156669   7.697   2.562   5.680
18809WAT     H256670   7.550   2.584   5.614
18810WAT      O56671   1.036   1.914   5.769
18810WAT     H156672   1.026   2.008   5.736
18810WAT     H256673   1.129   1.901   5.804
18811WAT      O56674   8.180   1.083   7.978
18811WAT     H156675   8.211   1.035   7.896
18811WAT     H256676   8.084   1.108   7.968
18812WAT      O56677   3.657   3.655   4.304
18812WAT     H156678   3.655   3.753   4.322
18812WAT     H256679   3.642   3.638   4.207
18813WAT      O56680   0.053   1.269   5.306
18813WAT     H156681   0.044   1.182   5.354
18813WAT     H256682  -0.038   1.304   5.283
18814WAT      O56683   2.449   1.874   2.752
18814WAT     H156684   2.414   1.824   2.831
18814WAT     H256685   2.391   1.954   2.734
18815WAT      O56686   4.015   0.288   4.971
18815WAT     H156687   4.061   0.212   4.924
18815WAT     H256688   3.965   0.342   4.904
18816WAT      O56689   5.768   2.105   3.551
18816WAT     H156690   5.803   2.149   3.468
18816WAT     H256691   5.817   2.140   3.631
18817WAT      O56692   4.649   5.530   0.562
18817WAT     H156693   4.672   5.620   0.525
18817WAT     H256694   4.562   5.535   0.611
18818WAT      O56695   7.296   3.520   0.987
18818WAT     H156696   7.235   3.475   1.052
18818WAT     H256697   7.243   3.584   0.931
18819WAT      O56698   1.510   6.204   1.996
18819WAT     H156699   1.433   6.179   1.937
18819WAT     H256700   1.476   6.255   2.075
18820WAT      O56701   9.389   4.058   4.380
18820WAT     H156702   9.305   4.029   4.335
18820WAT     H256703   9.369   4.130   4.446
18821WAT      O56704   7.139   2.109   7.973
18821WAT     H156705   7.234   2.123   8.000
18821WAT     H256706   7.136   2.050   7.892
18822WAT      O56707   4.978   5.495   1.778
18822WAT     H156708   4.935   5.551   1.708
18822WAT     H256709   4.910   5.434   1.819
18823WAT      O56710   1.461   8.429   9.545
18823WAT     H156711   1.384   8.406   9.486
18823WAT     H256712   1.449   8.385   9.634
18824WAT      O56713   7.631   5.976   1.673
18824WAT     H156714   7.688   5.916   1.730
18824WAT     H256715   7.650   6.072   1.696
18825WAT      O56716   4.227   9.615   0.519
18825WAT     H156717   4.322   9.584   0.511
18825WAT     H256718   4.208   9.682   0.448
18826WAT      O56719   3.008   6.346   5.822
18826WAT     H156720   3.068   6.411   5.869
18826WAT     H256721   2.964   6.287   5.889
18827WAT      O56722   3.391   5.798   2.956
18827WAT     H156723   3.450   5.822   2.879
18827WAT     H256724   3.380   5.698   2.960
18828WAT      O56725   5.103   7.642   6.691
18828WAT     H156726   5.069   7.693   6.612
18828WAT     H256727   5.148   7.704   6.755
18829WAT      O56728   1.205   6.217   2.529
18829WAT     H156729   1.159   6.133   2.557
18829WAT     H256730   1.181   6.291   2.592
18830WAT      O56731   1.142   7.691   5.673
18830WAT     H156732   1.098   7.676   5.762
18830WAT     H256733   1.084   7.654   5.601
18831WAT      O56734   5.245   3.174   0.546
18831WAT     H156735   5.194   3.114   0.485
18831WAT     H256736   5.337   3.138   0.559
18832WAT      O56737   1.359   1.045   0.600
18832WAT     H156738   1.408   1.131   0.598
18832WAT     H256739   1.334   1.018   0.507
18833WAT      O56740   5.767   5.502   3.966
18833WAT     H156741   5.825   5.582   3.948
18833WAT     H256742   5.784   5.468   4.059
18834WAT      O56743   5.199   2.413   9.144
18834WAT     H156744   5.102   2.393   9.155
18834WAT     H256745   5.211   2.489   9.080
18835WAT      O56746   2.027   4.021   9.732
18835WAT     H156747   2.118   4.060   9.722
18835WAT     H256748   2.032   3.921   9.724
18836WAT      O56749   4.074   7.095   4.499
18836WAT     H156750   3.990   7.087   4.554
18836WAT     H256751   4.075   7.183   4.452
18837WAT      O56752   8.286   4.464   3.146
18837WAT     H156753   8.278   4.413   3.060
18837WAT     H256754   8.279   4.562   3.127
18838WAT      O56755   1.926   2.148   0.973
18838WAT     H156756   1.888   2.222   0.918
18838WAT     H256757   2.013   2.118   0.933
18839WAT      O56758   1.214   9.266   2.443
18839WAT     H156759   1.263   9.216   2.514
18839WAT     H256760   1.280   9.304   2.379
18840WAT      O56761   6.386   8.754   1.955
18840WAT     H156762   6.350   8.736   2.047
18840WAT     H256763   6.464   8.816   1.962
18841WAT      O56764   1.795   2.191   6.742
18841WAT     H156765   1.754   2.224   6.827
18841WAT     H256766   1.849   2.265   6.701
18842WAT      O56767   9.407   3.930   0.914
18842WAT     H156768   9.484   3.971   0.964
18842WAT     H256769   9.443   3.874   0.839
18843WAT      O56770   5.378   5.619   2.525
18843WAT     H156771   5.312   5.693   2.541
18843WAT     H256772   5.333   5.531   2.534
18844WAT      O56773   1.699   5.030   8.517
18844WAT     H156774   1.611   5.064   8.485
18844WAT     H256775   1.772   5.074   8.465
18845WAT      O56776   8.851   8.556   6.672
18845WAT     H156777   8.893   8.568   6.762
18845WAT     H256778   8.900   8.484   6.622
18846WAT      O56779   0.070   0.833   4.221
18846WAT     H156780   0.085   0.785   4.307
18846WAT     H256781  -0.010   0.892   4.229
18847WAT      O56782   1.617   5.648   0.510
18847WAT     H156783   1.581   5.729   0.465
18847WAT     H256784   1.664   5.674   0.594
18848WAT      O56785   5.281   0.425   4.727
18848WAT     H156786   5.379   0.439   4.745
18848WAT     H256787   5.233   0.512   4.735
18849WAT      O56788   4.326   4.920   9.201
18849WAT     H156789   4.423   4.943   9.191
18849WAT     H256790   4.281   4.988   9.258
18850WAT      O56791   2.040   0.915   4.304
18850WAT     H156792   1.945   0.887   4.319
18850WAT     H256793   2.093   0.836   4.272
18851WAT      O56794   2.251   5.273   6.853
18851WAT     H156795   2.178   5.297   6.789
18851WAT     H256796   2.302   5.356   6.878
18852WAT      O56797   6.254   3.319   2.683
18852WAT     H156798   6.311   3.400   2.671
18852WAT     H256799   6.178   3.340   2.745
18853WAT      O56800   9.389   2.788   5.762
18853WAT     H156801   9.441   2.749   5.838
18853WAT     H256802   9.424   2.752   5.676
18854WAT      O56803   2.780   0.360   3.086
18854WAT     H156804   2.813   0.351   2.992
18854WAT     H256805   2.838   0.306   3.147
18855WAT      O56806   8.561   8.726   1.890
18855WAT     H156807   8.643   8.759   1.936
18855WAT     H256808   8.495   8.800   1.882
18856WAT      O56809   1.577   0.100   2.941
18856WAT     H156810   1.598   0.131   2.848
18856WAT     H256811   1.569   0.001   2.942
18857WAT      O56812   8.195   1.725   7.508
18857WAT     H156813   8.096   1.730   7.524
18857WAT     H256814   8.212   1.702   7.412
18858WAT      O56815   5.575   1.598   1.085
18858WAT     H156816   5.616   1.684   1.054
18858WAT     H256817   5.594   1.526   1.020
18859WAT      O56818   6.604   2.853   5.801
18859WAT     H156819   6.658   2.895   5.874
18859WAT     H256820   6.660   2.845   5.719
18860WAT      O56821   1.451   3.859   0.797
18860WAT     H156822   1.355   3.883   0.811
18860WAT     H256823   1.474   3.869   0.700
18861WAT      O56824   2.867   9.799   9.126
18861WAT     H156825   2.898   9.726   9.186
18861WAT     H256826   2.767   9.806   9.131
18862WAT      O56827   4.526   8.341   6.305
18862WAT     H156828   4.595   8.269   6.309
18862WAT     H256829   4.455   8.317   6.239
18863WAT      O56830   6.588   3.399   0.248
18863WAT     H156831   6.498   3.386   0.205
18863WAT     H256832   6.615   3.314   0.294
18864WAT      O56833   1.777   1.874   7.510
18864WAT     H156834   1.817   1.924   7.587
18864WAT     H256835   1.843   1.805   7.478
18865WAT      O56836   3.814   7.725   0.898
18865WAT     H156837   3.782   7.651   0.838
18865WAT     H256838   3.873   7.787   0.846
18866WAT      O56839   9.015   1.143   1.320
18866WAT     H156840   8.992   1.241   1.316
18866WAT     H256841   8.933   1.089   1.302
18867WAT      O56842   9.249   4.761   7.295
18867WAT     H156843   9.180   4.691   7.314
18867WAT     H256844   9.227   4.844   7.346
18868WAT      O56845   2.976   6.661   6.086
18868WAT     H156846   2.956   6.759   6.091
18868WAT     H256847   2.914   6.618   6.021
18869WAT      O56848   0.002   3.744   1.229
18869WAT     H156849   0.097   3.752   1.197
18869WAT     H256850  -0.056   3.714   1.154
18870WAT      O56851   0.264   9.781   0.332
18870WAT     H156852   0.251   9.873   0.370
18870WAT     H256853   0.192   9.762   0.265
18871WAT      O56854   8.247   4.382   1.961
18871WAT     H156855   8.167   4.389   1.901
18871WAT     H256856   8.320   4.331   1.914
18872WAT      O56857   3.101   4.410   4.665
18872WAT     H156858   3.108   4.360   4.751
18872WAT     H256859   3.134   4.352   4.590
18873WAT      O56860   1.159   2.572   9.298
18873WAT     H156861   1.172   2.617   9.209
18873WAT     H256862   1.142   2.642   9.368
18874WAT      O56863   9.640   7.549   2.905
18874WAT     H156864   9.614   7.455   2.886
18874WAT     H256865   9.557   7.604   2.921
18875WAT      O56866   0.584   7.407   4.699
18875WAT     H156867   0.629   7.329   4.743
18875WAT     H256868   0.590   7.486   4.760
18876WAT      O56869   2.874   7.499   0.935
18876WAT     H156870   2.821   7.425   0.977
18876WAT     H256871   2.870   7.580   0.993
18877WAT      O56872   3.849   3.770   8.428
18877WAT     H156873   3.872   3.709   8.503
18877WAT     H256874   3.812   3.716   8.351
18878WAT      O56875   7.490   8.243   4.136
18878WAT     H156876   7.556   8.169   4.127
18878WAT     H256877   7.412   8.226   4.076
18879WAT      O56878   6.953   6.551   3.307
18879WAT     H156879   7.028   6.617   3.303
18879WAT     H256880   6.869   6.597   3.336
18880WAT      O56881   4.276   1.470   7.126
18880WAT     H156882   4.273   1.512   7.035
18880WAT     H256883   4.306   1.538   7.193
18881WAT      O56884   0.060   8.272   3.803
18881WAT     H156885   0.065   8.268   3.902
18881WAT     H256886   0.005   8.350   3.775
18882WAT      O56887   0.481   0.515   3.276
18882WAT     H156888   0.553   0.533   3.209
18882WAT     H256889   0.440   0.602   3.304
18883WAT      O56890   2.188   1.605   8.690
18883WAT     H156891   2.117   1.587   8.757
18883WAT     H256892   2.191   1.531   8.623
18884WAT      O56893   0.369   4.116   1.058
18884WAT     H156894   0.396   4.209   1.033
18884WAT     H256895   0.434   4.050   1.021
18885WAT      O56896   2.298   2.344   7.649
18885WAT     H156897   2.257   2.356   7.739
18885WAT     H256898   2.265   2.415   7.587
18886WAT      O56899   6.592   2.643   8.457
18886WAT     H156900   6.582   2.652   8.556
18886WAT     H256901   6.525   2.578   8.422
18887WAT      O56902   8.606   7.399   7.416
18887WAT     H156903   8.706   7.394   7.426
18887WAT     H256904   8.578   7.344   7.337
18888WAT      O56905   9.350   9.562   6.882
18888WAT     H156906   9.291   9.533   6.807
18888WAT     H256907   9.361   9.662   6.880
18889WAT      O56908   8.473   6.451   6.330
18889WAT     H156909   8.572   6.442   6.340
18889WAT     H256910   8.436   6.507   6.405
18890WAT      O56911   2.443   0.819   3.511
18890WAT     H156912   2.461   0.901   3.456
18890WAT     H256913   2.512   0.750   3.492
18891WAT      O56914   1.907   4.184   6.151
18891WAT     H156915   1.960   4.102   6.173
18891WAT     H256916   1.969   4.261   6.139
18892WAT      O56917   7.818   9.121   7.075
18892WAT     H156918   7.802   9.023   7.086
18892WAT     H256919   7.915   9.137   7.056
18893WAT      O56920   8.057   3.381   6.519
18893WAT     H156921   8.034   3.412   6.427
18893WAT     H256922   8.141   3.426   6.549
18894WAT      O56923   0.513   6.794   9.506
18894WAT     H156924   0.446   6.861   9.473
18894WAT     H256925   0.575   6.769   9.431
18895WAT      O56926   8.201   1.727   6.988
18895WAT     H156927   8.202   1.630   6.966
18895WAT     H256928   8.140   1.775   6.924
18896WAT      O56929   1.704   8.037   5.920
18896WAT     H156930   1.721   8.029   5.821
18896WAT     H256931   1.640   7.967   5.949
18897WAT      O56932   0.467   4.361   8.631
18897WAT     H156933   0.464   4.286   8.698
18897WAT     H256934   0.556   4.359   8.584
18898WAT      O56935   1.045   2.023   0.906
18898WAT     H156936   0.980   2.041   0.832
18898WAT     H256937   1.003   1.962   0.973
18899WAT      O56938   4.895   1.659   9.077
18899WAT     H156939   4.859   1.615   9.160
18899WAT     H256940   4.931   1.590   9.015
18900WAT      O56941   4.833   2.983   1.133
18900WAT     H156942   4.871   3.053   1.073
18900WAT     H256943   4.885   2.898   1.123
18901WAT      O56944   6.119   1.608   8.617
18901WAT     H156945   6.041   1.605   8.554
18901WAT     H256946   6.157   1.516   8.628
18902WAT      O56947   0.754   8.228   3.047
18902WAT     H156948   0.708   8.213   3.135
18902WAT     H256949   0.850   8.249   3.064
18903WAT      O56950   2.410   9.035   3.814
18903WAT     H156951   2.427   8.976   3.735
18903WAT     H256952   2.316   9.021   3.846
18904WAT      O56953   2.964   7.994   9.373
18904WAT     H156954   2.957   7.941   9.289
18904WAT     H256955   3.006   7.938   9.445
18905WAT      O56956   8.647   6.974   3.669
18905WAT     H156957   8.711   6.945   3.597
18905WAT     H256958   8.624   6.895   3.726
18906WAT      O56959   0.648   5.727   5.870
18906WAT     H156960   0.699   5.675   5.802
18906WAT     H256961   0.666   5.825   5.858
18907WAT      O56962   1.974   3.887   0.468
18907WAT     H156963   2.035   3.862   0.393
18907WAT     H256964   1.902   3.818   0.477
18908WAT      O56965   0.343   2.554   8.327
18908WAT     H156966   0.263   2.613   8.319
18908WAT     H256967   0.426   2.609   8.330
18909WAT      O56968   9.682   1.297   9.100
18909WAT     H156969   9.614   1.369   9.113
18909WAT     H256970   9.639   1.208   9.112
18910WAT      O56971   1.253   4.000   5.328
18910WAT     H156972   1.246   4.100   5.328
18910WAT     H256973   1.171   3.961   5.370
18911WAT      O56974   1.476   2.972   6.522
18911WAT     H156975   1.433   2.913   6.590
18911WAT     H256976   1.543   3.031   6.566
18912WAT      O56977   5.449   0.953   5.065
18912WAT     H156978   5.379   1.015   5.102
18912WAT     H256979   5.446   0.866   5.114
18913WAT      O56980   9.755   3.651   8.957
18913WAT     H156981   9.819   3.727   8.943
18913WAT     H256982   9.662   3.687   8.962
18914WAT      O56983   1.013   6.654   8.669
18914WAT     H156984   0.975   6.599   8.594
18914WAT     H256985   1.054   6.593   8.737
18915WAT      O56986   2.191   2.876   0.969
18915WAT     H156987   2.203   2.965   1.013
18915WAT     H256988   2.114   2.829   1.011
18916WAT      O56989   7.904   0.675   3.850
18916WAT     H156990   7.906   0.647   3.946
18916WAT     H256991   7.817   0.718   3.829
18917WAT      O56992   3.551   6.788   4.490
18917WAT     H156993   3.512   6.697   4.473
18917WAT     H256994   3.614   6.811   4.415
18918WAT      O56995   5.789   7.496   1.967
18918WAT     H156996   5.799   7.399   1.991
18918WAT     H256997   5.750   7.546   2.044
18919WAT      O56998   2.377   8.761   0.080
18919WAT     H156999   2.384   8.769   0.180
18919WAT     H257000   2.296   8.808   0.048
18920WAT      O57001   2.007   4.589   0.487
18920WAT     H157002   1.986   4.496   0.455
18920WAT     H257003   1.924   4.644   0.487
18921WAT      O57004   3.089   6.739   2.657
18921WAT     H157005   3.084   6.772   2.562
18921WAT     H257006   3.183   6.743   2.689
18922WAT      O57007   8.118   9.448   0.940
18922WAT     H157008   8.126   9.484   0.847
18922WAT     H257009   8.084   9.520   1.001
18923WAT      O57010   3.847   1.358   1.795
18923WAT     H157011   3.854   1.456   1.815
18923WAT     H257012   3.852   1.306   1.880
18924WAT      O57013   9.627   7.313   8.923
18924WAT     H157014   9.584   7.225   8.941
18924WAT     H257015   9.620   7.371   9.004
18925WAT      O57016   4.777   3.890   3.102
18925WAT     H157017   4.742   3.826   3.171
18925WAT     H257018   4.877   3.885   3.100
18926WAT      O57019   0.934   2.601   3.704
18926WAT     H157020   0.879   2.608   3.620
18926WAT     H257021   0.921   2.683   3.759
18927WAT      O57022   8.374   8.983   8.487
18927WAT     H157023   8.356   8.939   8.399
18927WAT     H257024   8.441   9.056   8.475
18928WAT      O57025   1.599   0.950   9.495
18928WAT     H157026   1.574   1.008   9.417
18928WAT     H257027   1.516   0.916   9.539
18929WAT      O57028   5.154   9.834   2.262
18929WAT     H157029   5.162   9.859   2.359
18929WAT     H257030   5.058   9.815   2.241
18930WAT      O57031   8.562   3.696   4.859
18930WAT     H157032   8.471   3.693   4.817
18930WAT     H257033   8.616   3.767   4.816
18931WAT      O57034   0.026   0.542   1.701
18931WAT     H157035   0.118   0.505   1.715
18931WAT     H257036   0.022   0.635   1.737
18932WAT      O57037   5.974   0.831   0.985
18932WAT     H157038   5.935   0.829   1.077
18932WAT     H257039   6.073   0.841   0.990
18933WAT      O57040   3.410   5.419   2.366
18933WAT     H157041   3.375   5.370   2.445
18933WAT     H257042   3.364   5.508   2.359
18934WAT      O57043   5.494   5.805   1.237
18934WAT     H157044   5.508   5.804   1.138
18934WAT     H257045   5.397   5.814   1.257
18935WAT      O57046   2.165   8.190   9.399
18935WAT     H157047   2.193   8.280   9.432
18935WAT     H257048   2.108   8.201   9.317
18936WAT      O57049   1.544   7.602   3.613
18936WAT     H157050   1.565   7.663   3.690
18936WAT     H257051   1.448   7.575   3.618
18937WAT      O57052   0.555   6.294   7.801
18937WAT     H157053   0.570   6.290   7.899
18937WAT     H257054   0.552   6.201   7.764
18938WAT      O57055   8.105   7.932   6.224
18938WAT     H157056   8.164   7.894   6.153
18938WAT     H257057   8.102   8.031   6.216
18939WAT      O57058   9.652   3.986   1.149
18939WAT     H157059   9.602   4.006   1.233
18939WAT     H257060   9.665   3.887   1.140
18940WAT      O57061   8.063   4.004   0.167
18940WAT     H157062   8.041   4.038   0.076
18940WAT     H257063   7.979   3.981   0.216
18941WAT      O57064   2.616   7.471   9.348
18941WAT     H157065   2.592   7.513   9.261
18941WAT     H257066   2.617   7.540   9.420
18942WAT      O57067   8.007   1.808   9.000
18942WAT     H157068   7.929   1.770   8.949
18942WAT     H257069   7.999   1.907   9.002
18943WAT      O57070   8.537   0.842   1.890
18943WAT     H157071   8.530   0.835   1.990
18943WAT     H257072   8.462   0.791   1.848
18944WAT      O57073   5.849   6.302   7.464
18944WAT     H157074   5.818   6.382   7.516
18944WAT     H257075   5.781   6.229   7.472
18945WAT      O57076   1.635   3.092   8.865
18945WAT     H157077   1.608   3.172   8.918
18945WAT     H257078   1.721   3.056   8.901
18946WAT      O57079   4.210   6.324   1.821
18946WAT     H157080   4.197   6.326   1.920
18946WAT     H257081   4.236   6.232   1.792
18947WAT      O57082   0.502   1.746   4.553
18947WAT     H157083   0.487   1.746   4.454
18947WAT     H257084   0.590   1.703   4.574
18948WAT      O57085   5.930   7.970   2.031
18948WAT     H157086   5.983   8.052   2.056
18948WAT     H257087   5.964   7.892   2.083
18949WAT      O57088   2.377   7.773   2.178
18949WAT     H157089   2.329   7.707   2.236
18949WAT     H257090   2.360   7.751   2.082
18950WAT      O57091   6.278   5.336   1.903
18950WAT     H157092   6.263   5.411   1.967
18950WAT     H257093   6.209   5.339   1.831
18951WAT      O57094   5.591   3.781   6.298
18951WAT     H157095   5.531   3.832   6.359
18951WAT     H257096   5.656   3.727   6.354
18952WAT      O57097   9.106   8.591   1.175
18952WAT     H157098   9.167   8.589   1.254
18952WAT     H257099   9.079   8.685   1.156
18953WAT      O57100   9.718   5.821   4.154
18953WAT     H157101   9.790   5.782   4.097
18953WAT     H257102   9.672   5.894   4.103
18954WAT      O57103   3.296   8.278   5.875
18954WAT     H157104   3.226   8.347   5.861
18954WAT     H257105   3.322   8.275   5.971
18955WAT      O57106   9.166   4.417   7.883
18955WAT     H157107   9.134   4.399   7.790
18955WAT     H257108   9.087   4.423   7.944
18956WAT      O57109   3.963   6.566   7.537
18956WAT     H157110   4.055   6.593   7.509
18956WAT     H257111   3.895   6.621   7.487
18957WAT      O57112   4.700   9.823   3.287
18957WAT     H157113   4.675   9.836   3.382
18957WAT     H257114   4.777   9.759   3.281
18958WAT      O57115   5.701   9.636   9.424
18958WAT     H157116   5.794   9.638   9.387
18958WAT     H257117   5.643   9.699   9.372
18959WAT      O57118   9.011   0.833   0.158
18959WAT     H157119   8.984   0.767   0.088
18959WAT     H257120   9.103   0.867   0.138
18960WAT      O57121   5.455   4.247   2.729
18960WAT     H157122   5.376   4.186   2.725
18960WAT     H257123   5.510   4.235   2.645
18961WAT      O57124   5.710   6.744   7.056
18961WAT     H157125   5.634   6.772   6.997
18961WAT     H257126   5.778   6.695   7.001
18962WAT      O57127   7.051   4.623   3.825
18962WAT     H157128   7.045   4.654   3.729
18962WAT     H257129   7.102   4.691   3.878
18963WAT      O57130   4.156   7.707   7.054
18963WAT     H157131   4.110   7.766   7.120
18963WAT     H257132   4.091   7.640   7.018
18964WAT      O57133   5.794   8.872   9.115
18964WAT     H157134   5.828   8.947   9.058
18964WAT     H257135   5.721   8.824   9.066
18965WAT      O57136   1.176   1.732   0.524
18965WAT     H157137   1.197   1.702   0.617
18965WAT     H257138   1.237   1.807   0.498
18966WAT      O57139   7.938   2.954   1.584
18966WAT     H157140   8.036   2.969   1.595
18966WAT     H257141   7.916   2.948   1.486
18967WAT      O57142   3.692   3.176   8.639
18967WAT     H157143   3.715   3.245   8.708
18967WAT     H257144   3.642   3.220   8.564
18968WAT      O57145   3.818   4.871   2.614
18968WAT     H157146   3.843   4.966   2.634
18968WAT     H257147   3.809   4.860   2.515
18969WAT      O57148   5.540   1.596   9.551
18969WAT     H157149   5.543   1.498   9.535
18969WAT     H257150   5.630   1.628   9.580
18970WAT      O57151   2.685   5.568   9.795
18970WAT     H157152   2.634   5.563   9.709
18970WAT     H257153   2.673   5.658   9.836
18971WAT      O57154   9.673   4.995   9.736
18971WAT     H157155   9.630   4.907   9.712
18971WAT     H257156   9.713   4.988   9.828
18972WAT      O57157   1.405   6.365   2.849
18972WAT     H157158   1.309   6.342   2.835
18972WAT     H257159   1.412   6.462   2.873
18973WAT      O57160   5.975   2.822   0.978
18973WAT     H157161   6.002   2.763   0.901
18973WAT     H257162   5.875   2.828   0.981
18974WAT      O57163   0.911   9.028   9.047
18974WAT     H157164   0.854   8.969   9.104
18974WAT     H257165   0.879   9.025   8.952
18975WAT      O57166   1.763   6.404   7.678
18975WAT     H157167   1.789   6.421   7.773
18975WAT     H257168   1.801   6.476   7.620
18976WAT      O57169   8.387   1.221   1.782
18976WAT     H157170   8.303   1.167   1.783
18976WAT     H257171   8.464   1.164   1.811
18977WAT      O57172   5.811   0.566   0.629
18977WAT     H157173   5.741   0.628   0.593
18977WAT     H257174   5.881   0.551   0.559
18978WAT      O57175   4.171   7.340   3.739
18978WAT     H157176   4.123   7.260   3.775
18978WAT     H257177   4.245   7.366   3.801
18979WAT      O57178   8.645   0.177   3.261
18979WAT     H157179   8.600   0.263   3.284
18979WAT     H257180   8.638   0.161   3.162
18980WAT      O57181   4.903   6.092   7.715
18980WAT     H157182   4.959   6.173   7.730
18980WAT     H257183   4.923   6.024   7.786
18981WAT      O57184   5.510   2.967   2.068
18981WAT     H157185   5.485   2.870   2.059
18981WAT     H257186   5.603   2.981   2.034
18982WAT      O57187   4.098   7.481   4.977
18982WAT     H157188   4.046   7.414   4.924
18982WAT     H257189   4.036   7.529   5.039
18983WAT      O57190   2.165   1.897   4.718
18983WAT     H157191   2.179   1.822   4.783
18983WAT     H257192   2.236   1.894   4.648
18984WAT      O57193   7.228   5.190   0.113
18984WAT     H157194   7.196   5.115   0.054
18984WAT     H257195   7.178   5.187   0.200
18985WAT      O57196   5.090   9.552   0.644
18985WAT     H157197   5.008   9.527   0.591
18985WAT     H257198   5.157   9.593   0.583
18986WAT      O57199   7.383   9.639   9.641
18986WAT     H157200   7.400   9.546   9.671
18986WAT     H257201   7.284   9.655   9.637
18987WAT      O57202   1.769   9.020   9.416
18987WAT     H157203   1.753   8.964   9.336
18987WAT     H257204   1.864   9.052   9.417
18988WAT      O57205   4.275   6.886   9.262
18988WAT     H157206   4.351   6.943   9.294
18988WAT     H257207   4.216   6.863   9.340
18989WAT      O57208   1.600   3.858   6.375
18989WAT     H157209   1.557   3.770   6.352
18989WAT     H257210   1.536   3.913   6.428
18990WAT      O57211   5.294   6.909   5.154
18990WAT     H157212   5.286   6.810   5.162
18990WAT     H257213   5.355   6.943   5.226
18991WAT      O57214   1.816   4.248   7.600
18991WAT     H157215   1.752   4.265   7.525
18991WAT     H257216   1.830   4.333   7.652
18992WAT      O57217   4.797   7.387   7.236
18992WAT     H157218   4.723   7.454   7.238
18992WAT     H257219   4.769   7.304   7.284
18993WAT      O57220   6.534   5.702   9.004
18993WAT     H157221   6.582   5.745   9.080
18993WAT     H257222   6.583   5.619   8.975
18994WAT      O57223   9.355   5.841   7.902
18994WAT     H157224   9.453   5.832   7.884
18994WAT     H257225   9.311   5.886   7.824
18995WAT      O57226   0.418   6.640   9.832
18995WAT     H157227   0.436   6.573   9.904
18995WAT     H257228   0.479   6.719   9.844
18996WAT      O57229   3.079   2.222   3.368
18996WAT     H157230   3.016   2.182   3.301
18996WAT     H257231   3.027   2.259   3.445
18997WAT      O57232   3.463   2.238   9.592
18997WAT     H157233   3.374   2.200   9.616
18997WAT     H257234   3.532   2.166   9.594
18998WAT      O57235   3.791   8.985   5.678
18998WAT     H157236   3.871   8.973   5.618
18998WAT     H257237   3.725   8.913   5.659
18999WAT      O57238   0.992   4.574   4.431
18999WAT     H157239   0.989   4.484   4.389
18999WAT     H257240   0.908   4.625   4.408
19000WAT      O57241   5.679   5.257   5.945
19000WAT     H157242   5.747   5.231   5.876
19000WAT     H257243   5.601   5.300   5.900
19001WAT      O57244   4.601   8.750   4.719
19001WAT     H157245   4.629   8.754   4.623
19001WAT     H257246   4.562   8.838   4.745
19002WAT      O57247   1.953   9.193   3.226
19002WAT     H157248   1.878   9.144   3.182
19002WAT     H257249   2.024   9.128   3.255
19003WAT      O57250   0.181   6.784   5.134
19003WAT     H157251   0.103   6.846   5.144
19003WAT     H257252   0.215   6.787   5.040
19004WAT      O57253   3.417   4.768   0.340
19004WAT     H157254   3.340   4.819   0.376
19004WAT     H257255   3.390   4.674   0.321
19005WAT      O57256   5.244   7.012   5.808
19005WAT     H157257   5.336   7.017   5.847
19005WAT     H257258   5.236   6.929   5.752
19006WAT      O57259   2.104   7.329   8.630
19006WAT     H157260   2.014   7.312   8.590
19006WAT     H257261   2.093   7.363   8.723
19007WAT      O57262   5.362   0.862   9.786
19007WAT     H157263   5.460   0.874   9.799
19007WAT     H257264   5.340   0.764   9.787
19008WAT      O57265   5.847   3.868   3.131
19008WAT     H157266   5.753   3.838   3.148
19008WAT     H257267   5.869   3.945   3.191
19009WAT      O57268   4.798   9.771   2.444
19009WAT     H157269   4.711   9.725   2.464
19009WAT     H257270   4.814   9.772   2.346
19010WAT      O57271   5.854   0.105   1.392
19010WAT     H157272   5.950   0.130   1.401
19010WAT     H257273   5.846   0.005   1.391
19011WAT      O57274   6.480   3.151   4.539
19011WAT     H157275   6.450   3.178   4.631
19011WAT     H257276   6.553   3.084   4.546
19012WAT      O57277   7.287   2.166   0.469
19012WAT     H157278   7.230   2.098   0.423
19012WAT     H257279   7.383   2.152   0.444
19013WAT      O57280   9.172   8.263   2.398
19013WAT     H157281   9.202   8.344   2.447
19013WAT     H257282   9.233   8.245   2.321
19014WAT      O57283   7.542   3.850   8.806
19014WAT     H157284   7.623   3.879   8.856
19014WAT     H257285   7.493   3.781   8.858
19015WAT      O57286   0.552   1.094   8.471
19015WAT     H157287   0.522   1.149   8.548
19015WAT     H257288   0.652   1.088   8.471
19016WAT      O57289   0.100   3.347   6.926
19016WAT     H157290   0.018   3.290   6.926
19016WAT     H257291   0.076   3.440   6.898
19017WAT      O57292   3.436   8.430   5.108
19017WAT     H157293   3.525   8.473   5.093
19017WAT     H257294   3.445   8.331   5.097
19018WAT      O57295   0.419   8.682   7.134
19018WAT     H157296   0.335   8.706   7.085
19018WAT     H257297   0.498   8.708   7.079
19019WAT      O57298   4.909   6.801   5.281
19019WAT     H157299   4.812   6.810   5.303
19019WAT     H257300   4.936   6.874   5.218
19020WAT      O57301   0.792   7.240   8.828
19020WAT     H157302   0.804   7.265   8.924
19020WAT     H257303   0.875   7.260   8.777
19021WAT      O57304   8.002   2.587   4.662
19021WAT     H157305   7.991   2.506   4.604
19021WAT     H257306   7.963   2.667   4.615
19022WAT      O57307   0.816   7.131   8.427
19022WAT     H157308   0.717   7.119   8.429
19022WAT     H257309   0.838   7.228   8.412
19023WAT      O57310   2.321   5.595   3.174
19023WAT     H157311   2.417   5.602   3.147
19023WAT     H257312   2.312   5.622   3.270
19024WAT      O57313   7.837   7.088   7.407
19024WAT     H157314   7.844   7.106   7.505
19024WAT     H257315   7.837   7.174   7.357
19025WAT      O57316   0.280   7.234   4.746
19025WAT     H157317   0.339   7.169   4.793
19025WAT     H257318   0.314   7.327   4.758
19026WAT      O57319   0.437   5.639   6.063
19026WAT     H157320   0.517   5.647   6.004
19026WAT     H257321   0.356   5.621   6.007
19027WAT      O57322   4.495   2.647   3.452
19027WAT     H157323   4.455   2.565   3.492
19027WAT     H257324   4.479   2.648   3.354
19028WAT      O57325   3.755   3.021   2.972
19028WAT     H157326   3.778   3.110   3.010
19028WAT     H257327   3.723   3.031   2.878
19029WAT      O57328   0.609   3.715   0.088
19029WAT     H157329   0.621   3.636   0.028
19029WAT     H257330   0.680   3.782   0.069
19030WAT      O57331   7.410   0.934   3.193
19030WAT     H157332   7.345   0.917   3.267
19030WAT     H257333   7.504   0.929   3.229
19031WAT      O57334   2.927   0.907   0.323
19031WAT     H157335   2.997   0.947   0.263
19031WAT     H257336   2.970   0.843   0.386
19032WAT      O57337   8.644   6.535   5.525
19032WAT     H157338   8.570   6.547   5.591
19032WAT     H257339   8.620   6.582   5.440
19033WAT      O57340   7.551   8.820   3.741
19033WAT     H157341   7.496   8.780   3.667
19033WAT     H257342   7.490   8.858   3.811
19034WAT      O57343   2.738   6.446   2.142
19034WAT     H157344   2.795   6.479   2.066
19034WAT     H257345   2.684   6.368   2.112
19035WAT      O57346   0.502   6.322   2.453
19035WAT     H157347   0.526   6.248   2.391
19035WAT     H257348   0.573   6.331   2.523
19036WAT      O57349   6.717   3.875   3.952
19036WAT     H157350   6.620   3.873   3.974
19036WAT     H257351   6.739   3.959   3.902
19037WAT      O57352   9.881   1.362   1.377
19037WAT     H157353   9.826   1.412   1.310
19037WAT     H257354   9.851   1.266   1.378
19038WAT      O57355   1.967   4.674   2.993
19038WAT     H157356   1.961   4.585   3.039
19038WAT     H257357   2.013   4.663   2.905
19039WAT      O57358   4.031   0.061   4.606
19039WAT     H157359   4.020   0.145   4.552
19039WAT     H257360   4.089   0.081   4.686
19040WAT      O57361   5.795   1.013   3.486
19040WAT     H157362   5.862   1.082   3.511
19040WAT     H257363   5.841   0.927   3.463
19041WAT      O57364   2.551   9.130   2.737
19041WAT     H157365   2.612   9.191   2.687
19041WAT     H257366   2.584   9.120   2.831
19042WAT      O57367   4.057   6.761   9.190
19042WAT     H157368   4.137   6.822   9.194
19042WAT     H257369   3.976   6.810   9.222
19043WAT      O57370   6.087   3.273   2.992
19043WAT     H157371   6.040   3.185   2.997
19043WAT     H257372   6.186   3.258   2.993
19044WAT      O57373   3.444   3.481   1.871
19044WAT     H157374   3.462   3.486   1.970
19044WAT     H257375   3.528   3.500   1.821
19045WAT      O57376   3.078   0.146   9.244
19045WAT     H157377   2.999   0.092   9.216
19045WAT     H257378   3.115   0.195   9.165
19046WAT      O57379   3.052   0.102   7.804
19046WAT     H157380   3.100   0.155   7.874
19046WAT     H257381   3.086   0.008   7.804
19047WAT      O57382   5.968   8.310   5.726
19047WAT     H157383   5.879   8.289   5.687
19047WAT     H257384   5.962   8.310   5.825
19048WAT      O57385   2.502   6.343   5.840
19048WAT     H157386   2.538   6.423   5.791
19048WAT     H257387   2.451   6.375   5.920
19049WAT      O57388   4.107   2.964   2.960
19049WAT     H157389   4.055   2.995   2.881
19049WAT     H257390   4.047   2.956   3.039
19050WAT      O57391   6.391   9.371   3.553
19050WAT     H157392   6.455   9.409   3.620
19050WAT     H257393   6.298   9.402   3.574
19051WAT      O57394   7.488   7.365   6.350
19051WAT     H157395   7.521   7.389   6.259
19051WAT     H257396   7.504   7.268   6.367
19052WAT      O57397   8.352   7.981   5.882
19052WAT     H157398   8.424   7.949   5.819
19052WAT     H257399   8.299   8.053   5.837
19053WAT      O57400   6.390   2.981   9.321
19053WAT     H157401   6.361   2.950   9.411
19053WAT     H257402   6.400   2.903   9.259
19054WAT      O57403   2.010   8.744   2.834
19054WAT     H157404   2.074   8.787   2.898
19054WAT     H257405   1.938   8.809   2.811
19055WAT      O57406   4.653   4.214   5.519
19055WAT     H157407   4.722   4.286   5.522
19055WAT     H257408   4.640   4.177   5.611
19056WAT      O57409   2.674   7.006   6.457
19056WAT     H157410   2.575   7.005   6.447
19056WAT     H257411   2.701   7.079   6.520
19057WAT      O57412   3.461   8.402   3.203
19057WAT     H157413   3.556   8.413   3.232
19057WAT     H257414   3.425   8.317   3.242
19058WAT      O57415   7.620   5.513   9.889
19058WAT     H157416   7.614   5.542   9.793
19058WAT     H257417   7.715   5.520   9.920
19059WAT      O57418   6.886   2.178   4.628
19059WAT     H157419   6.916   2.146   4.717
19059WAT     H257420   6.879   2.278   4.629
19060WAT      O57421   8.421   3.049   1.346
19060WAT     H157422   8.476   3.079   1.268
19060WAT     H257423   8.477   2.994   1.408
19061WAT      O57424   2.420   7.261   3.773
19061WAT     H157425   2.391   7.344   3.726
19061WAT     H257426   2.342   7.221   3.821
19062WAT      O57427   9.332   0.668   2.365
19062WAT     H157428   9.268   0.731   2.320
19062WAT     H257429   9.376   0.715   2.442
19063WAT      O57430   3.562   7.108   3.347
19063WAT     H157431   3.644   7.095   3.404
19063WAT     H257432   3.515   7.020   3.335
19064WAT      O57433   5.209   8.690   9.190
19064WAT     H157434   5.297   8.691   9.238
19064WAT     H257435   5.138   8.724   9.251
19065WAT      O57436   5.190   7.429   0.673
19065WAT     H157437   5.240   7.464   0.594
19065WAT     H257438   5.200   7.330   0.677
19066WAT      O57439   3.979   8.931   8.426
19066WAT     H157440   4.047   8.908   8.496
19066WAT     H257441   3.908   8.861   8.424
19067WAT      O57442   8.725   1.227   5.254
19067WAT     H157443   8.699   1.208   5.160
19067WAT     H257444   8.744   1.142   5.302
19068WAT      O57445   8.464   5.561   7.128
19068WAT     H157446   8.395   5.517   7.069
19068WAT     H257447   8.507   5.636   7.079
19069WAT      O57448   3.406   1.208   4.018
19069WAT     H157449   3.459   1.209   4.103
19069WAT     H257450   3.458   1.162   3.947
19070WAT      O57451   8.687   1.746   5.319
19070WAT     H157452   8.680   1.843   5.295
19070WAT     H257453   8.623   1.693   5.264
19071WAT      O57454   2.157   6.834   5.166
19071WAT     H157455   2.076   6.872   5.211
19071WAT     H257456   2.239   6.870   5.210
19072WAT      O57457   0.097   9.132   1.609
19072WAT     H157458   0.097   9.214   1.665
19072WAT     H257459   0.154   9.062   1.652
19073WAT      O57460   1.336   7.035   6.954
19073WAT     H157461   1.327   6.989   6.866
19073WAT     H257462   1.434   7.044   6.976
19074WAT      O57463   4.444   5.791   5.212
19074WAT     H157464   4.452   5.890   5.226
19074WAT     H257465   4.358   5.759   5.250
19075WAT      O57466   7.926   4.569   8.315
19075WAT     H157467   7.960   4.502   8.381
19075WAT     H257468   7.862   4.524   8.252
19076WAT      O57469   2.322   6.569   2.991
19076WAT     H157470   2.307   6.665   2.968
19076WAT     H257471   2.296   6.511   2.914
19077WAT      O57472   7.073   8.775   5.835
19077WAT     H157473   7.045   8.684   5.864
19077WAT     H257474   7.169   8.790   5.857
19078WAT      O57475   0.722   2.448   7.719
19078WAT     H157476   0.628   2.441   7.686
19078WAT     H257477   0.758   2.539   7.700
19079WAT      O57478   5.861   3.639   0.037
19079WAT     H157479   5.886   3.618   0.132
19079WAT     H257480   5.942   3.664  -0.015
19080WAT      O57481   3.065   3.628   2.026
19080WAT     H157482   2.985   3.645   2.083
19080WAT     H257483   3.142   3.682   2.060
19081WAT      O57484   4.599   2.208   5.980
19081WAT     H157485   4.694   2.216   6.011
19081WAT     H257486   4.596   2.209   5.880
19082WAT      O57487   6.807   0.833   7.445
19082WAT     H157488   6.724   0.889   7.455
19082WAT     H257489   6.879   0.870   7.505
19083WAT      O57490   5.761   7.727   8.073
19083WAT     H157491   5.800   7.794   8.135
19083WAT     H257492   5.670   7.700   8.105
19084WAT      O57493   7.907   1.507   6.822
19084WAT     H157494   7.993   1.497   6.872
19084WAT     H257495   7.863   1.417   6.812
19085WAT      O57496   4.806   3.755   5.216
19085WAT     H157497   4.846   3.728   5.304
19085WAT     H257498   4.785   3.853   5.218
19086WAT      O57499   6.873   8.633   3.010
19086WAT     H157500   6.913   8.548   3.044
19086WAT     H257501   6.939   8.680   2.952
19087WAT      O57502   7.096   3.637   6.428
19087WAT     H157503   7.159   3.580   6.376
19087WAT     H257504   7.141   3.724   6.451
19088WAT      O57505   6.445   7.212   5.629
19088WAT     H157506   6.406   7.198   5.538
19088WAT     H257507   6.544   7.194   5.626
19089WAT      O57508   5.978   0.016   9.366
19089WAT     H157509   6.009   0.080   9.436
19089WAT     H257510   5.924   0.064   9.297
19090WAT      O57511   4.983   7.490   4.173
19090WAT     H157512   4.990   7.414   4.237
19090WAT     H257513   4.989   7.456   4.079
19091WAT      O57514   5.907   7.691   8.980
19091WAT     H157515   5.964   7.714   9.059
19091WAT     H257516   5.959   7.637   8.915
19092WAT      O57517   3.203   5.845   9.333
19092WAT     H157518   3.139   5.770   9.342
19092WAT     H257519   3.201   5.902   9.415
19093WAT      O57520   1.393   2.996   3.735
19093WAT     H157521   1.441   2.910   3.715
19093WAT     H257522   1.402   3.017   3.832
19094WAT      O57523   1.013   9.558   7.078
19094WAT     H157524   0.976   9.581   7.168
19094WAT     H257525   1.015   9.458   7.067
19095WAT      O57526   2.603   1.722   1.724
19095WAT     H157527   2.687   1.743   1.675
19095WAT     H257528   2.624   1.697   1.819
19096WAT      O57529   4.271   2.177   0.992
19096WAT     H157530   4.290   2.080   0.976
19096WAT     H257531   4.174   2.188   1.014
19097WAT      O57532   1.715   9.692   5.967
19097WAT     H157533   1.691   9.746   6.047
19097WAT     H257534   1.771   9.613   5.994
19098WAT      O57535   3.061   4.021   5.833
19098WAT     H157536   3.046   4.043   5.929
19098WAT     H257537   3.130   4.083   5.795
19099WAT      O57538   0.757   3.966   9.352
19099WAT     H157539   0.754   3.867   9.340
19099WAT     H257540   0.760   4.010   9.262
19100WAT      O57541   4.401   1.750   3.813
19100WAT     H157542   4.339   1.825   3.833
19100WAT     H257543   4.494   1.775   3.842
19101WAT      O57544   2.536   8.469   5.663
19101WAT     H157545   2.575   8.509   5.746
19101WAT     H257546   2.505   8.543   5.602
19102WAT      O57547   8.304   6.602   6.510
19102WAT     H157548   8.309   6.608   6.610
19102WAT     H257549   8.311   6.694   6.471
19103WAT      O57550   3.385   7.997   8.164
19103WAT     H157551   3.485   8.005   8.161
19103WAT     H257552   3.344   8.074   8.115
19104WAT      O57553   7.813   7.061   2.664
19104WAT     H157554   7.885   7.000   2.696
19104WAT     H257555   7.849   7.124   2.595
19105WAT      O57556   3.457   6.178   4.968
19105WAT     H157557   3.494   6.138   5.052
19105WAT     H257558   3.523   6.167   4.894
19106WAT      O57559   3.598   3.065   5.183
19106WAT     H157560   3.674   3.130   5.175
19106WAT     H257561   3.617   3.002   5.259
19107WAT      O57562   6.545   6.204   1.246
19107WAT     H157563   6.582   6.239   1.332
19107WAT     H257564   6.612   6.217   1.173
19108WAT      O57565   2.240   7.703   5.749
19108WAT     H157566   2.197   7.788   5.781
19108WAT     H257567   2.309   7.725   5.680
19109WAT      O57568   0.362   1.895   8.375
19109WAT     H157569   0.406   1.893   8.286
19109WAT     H257570   0.300   1.973   8.380
19110WAT      O57571   3.173   0.272   4.195
19110WAT     H157572   3.085   0.319   4.198
19110WAT     H257573   3.241   0.330   4.151
19111WAT      O57574   2.670   7.812   9.057
19111WAT     H157575   2.702   7.783   8.967
19111WAT     H257576   2.664   7.912   9.060
19112WAT      O57577   1.390   8.112   0.916
19112WAT     H157578   1.377   8.110   1.015
19112WAT     H257579   1.487   8.127   0.895
19113WAT      O57580   4.735   4.628   0.440
19113WAT     H157581   4.775   4.587   0.522
19113WAT     H257582   4.728   4.560   0.368
19114WAT      O57583   3.166   4.677   4.612
19114WAT     H157584   3.181   4.680   4.513
19114WAT     H257585   3.169   4.582   4.643
19115WAT      O57586   0.822   1.040   4.386
19115WAT     H157587   0.871   0.959   4.419
19115WAT     H257588   0.727   1.036   4.415
19116WAT      O57589   0.733   9.279   4.229
19116WAT     H157590   0.667   9.353   4.234
19116WAT     H257591   0.764   9.255   4.321
19117WAT      O57592   4.688   5.289   7.947
19117WAT     H157593   4.725   5.255   8.034
19117WAT     H257594   4.618   5.358   7.966
19118WAT      O57595   4.073   2.187   6.472
19118WAT     H157596   4.054   2.235   6.557
19118WAT     H257597   4.122   2.247   6.409
19119WAT      O57598   6.804   3.674   2.283
19119WAT     H157599   6.893   3.629   2.276
19119WAT     H257600   6.753   3.635   2.360
19120WAT      O57601   4.064   6.200   7.626
19120WAT     H157602   4.058   6.138   7.705
19120WAT     H257603   4.130   6.164   7.560
19121WAT      O57604   0.305   6.889   6.029
19121WAT     H157605   0.315   6.858   6.123
19121WAT     H257606   0.302   6.989   6.027
19122WAT      O57607   5.087   8.307   2.542
19122WAT     H157608   5.133   8.325   2.455
19122WAT     H257609   5.096   8.387   2.601
19123WAT      O57610   0.705   2.595   3.145
19123WAT     H157611   0.795   2.605   3.102
19123WAT     H257612   0.645   2.669   3.115
19124WAT      O57613   1.396   2.616   6.255
19124WAT     H157614   1.448   2.573   6.181
19124WAT     H257615   1.298   2.601   6.240
19125WAT      O57616   2.266   6.400   2.173
19125WAT     H157617   2.189   6.426   2.231
19125WAT     H257618   2.341   6.465   2.186
19126WAT      O57619   4.594   9.061   8.518
19126WAT     H157620   4.691   9.077   8.500
19126WAT     H257621   4.584   8.983   8.580
19127WAT      O57622   1.220   3.406   2.281
19127WAT     H157623   1.226   3.351   2.197
19127WAT     H257624   1.313   3.423   2.315
19128WAT      O57625   7.359   1.945   3.874
19128WAT     H157626   7.306   2.010   3.819
19128WAT     H257627   7.352   1.971   3.970
19129WAT      O57628   4.928   3.970   4.283
19129WAT     H157629   4.876   3.928   4.358
19129WAT     H257630   5.004   4.023   4.320
19130WAT      O57631   6.332   6.420   8.571
19130WAT     H157632   6.365   6.345   8.515
19130WAT     H257633   6.283   6.383   8.650
19131WAT      O57634   5.867   9.292   7.884
19131WAT     H157635   5.889   9.331   7.794
19131WAT     H257636   5.914   9.345   7.955
19132WAT      O57637   0.737   4.305   4.156
19132WAT     H157638   0.706   4.253   4.076
19132WAT     H257639   0.672   4.293   4.231
19133WAT      O57640   9.703   7.343   1.760
19133WAT     H157641   9.755   7.416   1.717
19133WAT     H257642   9.763   7.291   1.821
19134WAT      O57643   6.488   4.642   2.852
19134WAT     H157644   6.522   4.621   2.943
19134WAT     H257645   6.399   4.686   2.859
19135WAT      O57646   6.343   3.755   1.338
19135WAT     H157647   6.365   3.851   1.354
19135WAT     H257648   6.244   3.746   1.322
19136WAT      O57649   4.485   3.921   1.762
19136WAT     H157650   4.498   4.020   1.755
19136WAT     H257651   4.559   3.881   1.816
19137WAT      O57652   3.664   2.925   7.850
19137WAT     H157653   3.607   2.990   7.800
19137WAT     H257654   3.662   2.947   7.947
19138WAT      O57655   5.741   4.307   1.884
19138WAT     H157656   5.836   4.296   1.855
19138WAT     H257657   5.685   4.237   1.839
19139WAT      O57658   7.860   4.715   2.661
19139WAT     H157659   7.800   4.755   2.592
19139WAT     H257660   7.955   4.742   2.644
19140WAT      O57661   0.416   3.601   6.129
19140WAT     H157662   0.358   3.603   6.047
19140WAT     H257663   0.509   3.626   6.105
19141WAT      O57664   3.295   1.862   9.571
19141WAT     H157665   3.306   1.948   9.521
19141WAT     H257666   3.316   1.876   9.667
19142WAT      O57667   0.620   8.635   9.668
19142WAT     H157668   0.714   8.610   9.690
19142WAT     H257669   0.619   8.716   9.610
19143WAT      O57670   3.682   9.452   7.421
19143WAT     H157671   3.653   9.539   7.460
19143WAT     H257672   3.690   9.384   7.493
19144WAT      O57673   8.550   5.370   8.606
19144WAT     H157674   8.607   5.443   8.642
19144WAT     H257675   8.537   5.384   8.508
19145WAT      O57676   5.315   5.677   9.747
19145WAT     H157677   5.348   5.752   9.804
19145WAT     H257678   5.246   5.710   9.683
19146WAT      O57679   7.465   4.764   0.978
19146WAT     H157680   7.451   4.763   1.077
19146WAT     H257681   7.503   4.676   0.949
19147WAT      O57682   8.352   5.663   0.841
19147WAT     H157683   8.276   5.727   0.832
19147WAT     H257684   8.316   5.570   0.851
19148WAT      O57685   2.876   2.551   9.524
19148WAT     H157686   2.913   2.599   9.444
19148WAT     H257687   2.901   2.454   9.520
19149WAT      O57688   9.741   5.820   8.301
19149WAT     H157689   9.644   5.841   8.314
19149WAT     H257690   9.756   5.789   8.208
19150WAT      O57691   7.139   3.530   3.992
19150WAT     H157692   7.166   3.504   3.900
19150WAT     H257693   7.113   3.449   4.043
19151WAT      O57694   6.842   8.227   7.110
19151WAT     H157695   6.805   8.157   7.172
19151WAT     H257696   6.900   8.183   7.041
19152WAT      O57697   0.870   0.884   8.623
19152WAT     H157698   0.969   0.882   8.618
19152WAT     H257699   0.842   0.884   8.720
19153WAT      O57700   1.258   6.615   6.780
19153WAT     H157701   1.330   6.609   6.711
19153WAT     H257702   1.201   6.533   6.776
19154WAT      O57703   3.086   0.525   2.605
19154WAT     H157704   3.150   0.485   2.539
19154WAT     H257705   2.996   0.484   2.593
19155WAT      O57706   6.101   0.184   0.987
19155WAT     H157707   6.072   0.277   1.011
19155WAT     H257708   6.148   0.142   1.065
19156WAT      O57709   2.767   9.134   7.514
19156WAT     H157710   2.742   9.215   7.567
19156WAT     H257711   2.729   9.142   7.422
19157WAT      O57712   1.845   6.097   9.491
19157WAT     H157713   1.775   6.167   9.482
19157WAT     H257714   1.869   6.086   9.588
19158WAT      O57715   1.654   3.886   7.886
19158WAT     H157716   1.668   3.852   7.979
19158WAT     H257717   1.614   3.977   7.889
19159WAT      O57718   8.482   0.817   2.146
19159WAT     H157719   8.389   0.803   2.180
19159WAT     H257720   8.538   0.860   2.216
19160WAT      O57721   1.801   6.146   0.556
19160WAT     H157722   1.819   6.068   0.497
19160WAT     H257723   1.826   6.230   0.508
19161WAT      O57724   7.178   2.026   9.892
19161WAT     H157725   7.096   2.010   9.837
19161WAT     H257726   7.225   1.939   9.908
19162WAT      O57727   3.813   2.275   2.483
19162WAT     H157728   3.715   2.290   2.485
19162WAT     H257729   3.848   2.294   2.392
19163WAT      O57730   7.619   7.939   9.490
19163WAT     H157731   7.608   7.931   9.589
19163WAT     H257732   7.643   8.034   9.467
19164WAT      O57733   1.147   9.736   8.659
19164WAT     H157734   1.145   9.708   8.563
19164WAT     H257735   1.141   9.835   8.665
19165WAT      O57736   9.402   2.281   9.240
19165WAT     H157737   9.453   2.226   9.306
19165WAT     H257738   9.409   2.239   9.149
19166WAT      O57739   9.720   4.934   8.265
19166WAT     H157740   9.719   4.884   8.351
19166WAT     H257741   9.812   4.971   8.249
19167WAT      O57742   9.398   3.238   3.386
19167WAT     H157743   9.364   3.291   3.308
19167WAT     H257744   9.496   3.252   3.396
19168WAT      O57745   9.733   9.131   0.751
19168WAT     H157746   9.755   9.185   0.669
19168WAT     H257747   9.639   9.100   0.746
19169WAT      O57748   5.424   9.424   7.533
19169WAT     H157749   5.380   9.513   7.532
19169WAT     H257750   5.383   9.367   7.604
19170WAT      O57751   0.860   7.680   6.814
19170WAT     H157752   0.865   7.580   6.807
19170WAT     H257753   0.853   7.719   6.722
19171WAT      O57754   8.473   3.330   1.726
19171WAT     H157755   8.398   3.303   1.786
19171WAT     H257756   8.463   3.426   1.701
19172WAT      O57757   5.537   7.305   5.359
19172WAT     H157758   5.540   7.216   5.404
19172WAT     H257759   5.589   7.371   5.412
19173WAT      O57760   9.534   6.093   6.187
19173WAT     H157761   9.571   6.137   6.269
19173WAT     H257762   9.527   6.160   6.113
19174WAT      O57763   0.372   3.741   0.216
19174WAT     H157764   0.388   3.764   0.311
19174WAT     H257765   0.449   3.771   0.160
19175WAT      O57766   0.169   6.488   0.494
19175WAT     H157767   0.125   6.411   0.541
19175WAT     H257768   0.153   6.572   0.546
19176WAT      O57769   0.853   3.213   3.482
19176WAT     H157770   0.908   3.253   3.408
19176WAT     H257771   0.798   3.285   3.524
19177WAT      O57772   5.004   3.777   8.846
19177WAT     H157773   5.035   3.759   8.940
19177WAT     H257774   4.940   3.854   8.847
19178WAT      O57775   2.178   8.368   8.388
19178WAT     H157776   2.145   8.323   8.305
19178WAT     H257777   2.271   8.337   8.408
19179WAT      O57778   8.869   1.273   0.627
19179WAT     H157779   8.797   1.230   0.572
19179WAT     H257780   8.869   1.234   0.719
19180WAT      O57781   1.284   0.417   4.180
19180WAT     H157782   1.354   0.419   4.108
19180WAT     H257783   1.292   0.332   4.231
19181WAT      O57784   6.012   0.008   4.075
19181WAT     H157785   6.040  -0.018   4.167
19181WAT     H257786   5.958  -0.065   4.034
19182WAT      O57787   6.321   3.298   1.722
19182WAT     H157788   6.305   3.297   1.821
19182WAT     H257789   6.329   3.203   1.690
19183WAT      O57790   9.786   1.033   3.786
19183WAT     H157791   9.847   0.970   3.835
19183WAT     H257792   9.833   1.120   3.772
19184WAT      O57793   9.108   0.890   1.637
19184WAT     H157794   9.107   0.838   1.722
19184WAT     H257795   9.186   0.953   1.638
19185WAT      O57796   0.720   2.111   1.361
19185WAT     H157797   0.809   2.112   1.314
19185WAT     H257798   0.677   2.022   1.347
19186WAT      O57799   7.523   7.672   6.229
19186WAT     H157800   7.531   7.764   6.269
19186WAT     H257801   7.615   7.639   6.206
19187WAT      O57802   1.604   5.950   0.610
19187WAT     H157803   1.577   5.908   0.523
19187WAT     H257804   1.642   6.041   0.592
19188WAT      O57805   4.758   3.218   3.384
19188WAT     H157806   4.794   3.125   3.388
19188WAT     H257807   4.808   3.277   3.448
19189WAT      O57808   8.483   4.824   1.377
19189WAT     H157809   8.576   4.859   1.369
19189WAT     H257810   8.470   4.783   1.468
19190WAT      O57811   5.106   4.266   1.530
19190WAT     H157812   5.079   4.354   1.569
19190WAT     H257813   5.172   4.222   1.591
19191WAT      O57814   8.659   3.986   4.801
19191WAT     H157815   8.723   4.003   4.876
19191WAT     H257816   8.709   3.949   4.722
19192WAT      O57817   3.208   6.427   3.938
19192WAT     H157818   3.173   6.483   4.013
19192WAT     H257819   3.131   6.385   3.890
19193WAT      O57820   9.155   4.783   3.023
19193WAT     H157821   9.182   4.788   3.120
19193WAT     H257822   9.109   4.696   3.006
19194WAT      O57823   7.560   1.315   5.933
19194WAT     H157824   7.497   1.275   5.867
19194WAT     H257825   7.582   1.409   5.905
19195WAT      O57826   0.240   0.139   7.762
19195WAT     H157827   0.258   0.117   7.666
19195WAT     H257828   0.326   0.143   7.813
19196WAT      O57829   2.955   6.352   7.367
19196WAT     H157830   2.872   6.298   7.349
19196WAT     H257831   3.024   6.294   7.410
19197WAT      O57832   4.568   3.316   7.338
19197WAT     H157833   4.650   3.276   7.379
19197WAT     H257834   4.555   3.278   7.246
19198WAT      O57835   0.092   2.718   1.810
19198WAT     H157836   0.049   2.776   1.879
19198WAT     H257837   0.191   2.717   1.823
19199WAT      O57838   3.308   3.215   4.266
19199WAT     H157839   3.367   3.195   4.345
19199WAT     H257840   3.343   3.297   4.220
19200WAT      O57841   3.916   4.178   8.686
19200WAT     H157842   3.823   4.146   8.706
19200WAT     H257843   3.916   4.278   8.682
19201WAT      O57844   7.518   4.169   9.120
19201WAT     H157845   7.579   4.146   9.044
19201WAT     H257846   7.425   4.142   9.097
19202WAT      O57847   0.019   9.636   8.518
19202WAT     H157848   0.006   9.549   8.472
19202WAT     H257849   0.103   9.679   8.485
19203WAT      O57850   4.900   8.588   6.209
19203WAT     H157851   4.905   8.685   6.188
19203WAT     H257852   4.854   8.539   6.135
19204WAT      O57853   2.463   3.330   5.207
19204WAT     H157854   2.382   3.309   5.262
19204WAT     H257855   2.435   3.386   5.128
19205WAT      O57856   0.471   2.405   7.622
19205WAT     H157857   0.478   2.433   7.526
19205WAT     H257858   0.415   2.322   7.629
19206WAT      O57859   7.801   2.621   3.239
19206WAT     H157860   7.849   2.544   3.198
19206WAT     H257861   7.798   2.610   3.338
19207WAT      O57862   1.289   2.389   7.188
19207WAT     H157863   1.261   2.293   7.184
19207WAT     H257864   1.289   2.426   7.095
19208WAT      O57865   7.994   9.338   7.405
19208WAT     H157866   8.007   9.360   7.502
19208WAT     H257867   7.944   9.252   7.397
19209WAT      O57868   1.739   2.812   9.126
19209WAT     H157869   1.746   2.755   9.044
19209WAT     H257870   1.778   2.903   9.106
19210WAT      O57871   0.629   7.629   1.537
19210WAT     H157872   0.536   7.617   1.573
19210WAT     H257873   0.673   7.540   1.528
19211WAT      O57874   8.560   4.711   7.563
19211WAT     H157875   8.469   4.672   7.550
19211WAT     H257876   8.551   4.805   7.596
19212WAT      O57877   7.629   8.715   8.117
19212WAT     H157878   7.552   8.697   8.057
19212WAT     H257879   7.634   8.645   8.188
19213WAT      O57880   5.632   0.029   7.870
19213WAT     H157881   5.701   0.097   7.844
19213WAT     H257882   5.604   0.045   7.964
19214WAT      O57883   5.448   8.941   1.943
19214WAT     H157884   5.520   8.879   1.912
19214WAT     H257885   5.437   9.016   1.878
19215WAT      O57886   0.565   7.591   6.103
19215WAT     H157887   0.484   7.646   6.125
19215WAT     H257888   0.561   7.562   6.007
19216WAT      O57889   1.429   9.497   7.214
19216WAT     H157890   1.394   9.513   7.122
19216WAT     H257891   1.393   9.567   7.276
19217WAT      O57892   3.059   7.392   9.337
19217WAT     H157893   3.072   7.486   9.366
19217WAT     H257894   3.118   7.331   9.390
19218WAT      O57895   8.392   4.909   9.084
19218WAT     H157896   8.317   4.968   9.113
19218WAT     H257897   8.359   4.844   9.015
19219WAT      O57898   2.373   9.471   9.075
19219WAT     H157899   2.462   9.505   9.045
19219WAT     H257900   2.306   9.484   9.002
19220WAT      O57901   3.375   2.635   7.014
19220WAT     H157902   3.438   2.685   6.955
19220WAT     H257903   3.427   2.584   7.083
19221WAT      O57904   6.532   1.170   6.443
19221WAT     H157905   6.525   1.248   6.381
19221WAT     H257906   6.441   1.147   6.477
19222WAT      O57907   1.324   9.069   6.078
19222WAT     H157908   1.265   9.023   6.012
19222WAT     H257909   1.301   9.166   6.082
19223WAT      O57910   5.457   2.288   6.245
19223WAT     H157911   5.497   2.237   6.169
19223WAT     H257912   5.485   2.248   6.332
19224WAT      O57913   2.134   7.621   2.778
19224WAT     H157914   2.140   7.720   2.788
19224WAT     H257915   2.108   7.599   2.684
19225WAT      O57916   1.350   7.584   1.393
19225WAT     H157917   1.437   7.536   1.389
19225WAT     H257918   1.275   7.518   1.393
19226WAT      O57919   3.899   0.582   3.740
19226WAT     H157920   3.892   0.547   3.834
19226WAT     H257921   3.946   0.516   3.683
19227WAT      O57922   4.106   2.758   7.876
19227WAT     H157923   4.028   2.782   7.819
19227WAT     H257924   4.191   2.782   7.829
19228WAT      O57925   1.462   1.718   2.500
19228WAT     H157926   1.477   1.762   2.589
19228WAT     H257927   1.429   1.625   2.514
19229WAT      O57928   1.680   9.782   8.943
19229WAT     H157929   1.771   9.754   8.914
19229WAT     H257930   1.611   9.746   8.880
19230WAT      O57931   9.232   0.156   1.850
19230WAT     H157932   9.262   0.106   1.769
19230WAT     H257933   9.308   0.210   1.887
19231WAT      O57934   9.646   4.332   2.964
19231WAT     H157935   9.635   4.429   2.943
19231WAT     H257936   9.698   4.287   2.891
19232WAT      O57937   7.446   0.421   6.546
19232WAT     H157938   7.412   0.465   6.629
19232WAT     H257939   7.518   0.477   6.505
19233WAT      O57940   7.519   4.520   6.689
19233WAT     H157941   7.561   4.608   6.665
19233WAT     H257942   7.448   4.535   6.757
19234WAT      O57943   7.940   6.187   3.588
19234WAT     H157944   8.011   6.255   3.574
19234WAT     H257945   7.921   6.140   3.501
19235WAT      O57946   3.479   6.279   9.310
19235WAT     H157947   3.407   6.262   9.243
19235WAT     H257948   3.542   6.347   9.274
19236WAT      O57949   1.958   6.012   9.811
19236WAT     H157950   1.859   6.024   9.810
19236WAT     H257951   1.979   5.916   9.831
19237WAT      O57952   3.587   8.796   1.101
19237WAT     H157953   3.586   8.713   1.156
19237WAT     H257954   3.633   8.870   1.150
19238WAT      O57955   1.560   3.391   5.721
19238WAT     H157956   1.531   3.451   5.647
19238WAT     H257957   1.575   3.298   5.686
19239WAT      O57958   1.096   0.171   2.771
19239WAT     H157959   1.080   0.091   2.829
19239WAT     H257960   1.030   0.171   2.696
19240WAT      O57961   6.594   1.732   8.288
19240WAT     H157962   6.512   1.682   8.316
19240WAT     H257963   6.582   1.765   8.194
19241WAT      O57964   6.243   6.330   1.762
19241WAT     H157965   6.242   6.406   1.827
19241WAT     H257966   6.149   6.301   1.744
19242WAT      O57967   6.696   8.449   3.552
19242WAT     H157968   6.613   8.396   3.567
19242WAT     H257969   6.770   8.410   3.608
19243WAT      O57970   6.480   7.254   8.430
19243WAT     H157971   6.383   7.271   8.417
19243WAT     H257972   6.513   7.192   8.358
19244WAT      O57973   0.653   0.594   0.707
19244WAT     H157974   0.719   0.599   0.782
19244WAT     H257975   0.655   0.502   0.667
19245WAT      O57976   2.585   8.073   2.477
19245WAT     H157977   2.514   8.010   2.443
19245WAT     H257978   2.672   8.024   2.484
19246WAT      O57979   5.012   9.142   1.638
19246WAT     H157980   4.984   9.236   1.623
19246WAT     H257981   4.945   9.080   1.598
19247WAT      O57982   3.799   9.613   1.838
19247WAT     H157983   3.868   9.577   1.902
19247WAT     H257984   3.718   9.641   1.890
19248WAT      O57985   4.581   9.778   7.376
19248WAT     H157986   4.566   9.825   7.463
19248WAT     H257987   4.523   9.696   7.372
19249WAT      O57988   0.947   7.217   3.709
19249WAT     H157989   0.953   7.156   3.630
19249WAT     H257990   0.984   7.170   3.789
19250WAT      O57991   3.924   0.106   0.980
19250WAT     H157992   3.975   0.084   0.897
19250WAT     H257993   3.844   0.046   0.987
19251WAT      O57994   8.708   6.308   7.678
19251WAT     H157995   8.644   6.378   7.709
19251WAT     H257996   8.785   6.301   7.743
19252WAT      O57997   6.455   6.143   2.308
19252WAT     H157998   6.431   6.238   2.328
19252WAT     H257999   6.473   6.133   2.210
19253WAT      O58000   2.280   4.575   5.993
19253WAT     H158001   2.247   4.666   5.970
19253WAT     H258002   2.359   4.552   5.936
19254WAT      O58003   3.073   3.715   8.130
19254WAT     H158004   3.029   3.802   8.148
19254WAT     H258005   3.087   3.665   8.216
19255WAT      O58006   5.520   2.496   3.803
19255WAT     H158007   5.436   2.508   3.854
19255WAT     H258008   5.568   2.415   3.836
19256WAT      O58009   4.057   3.740   1.256
19256WAT     H158010   4.053   3.670   1.327
19256WAT     H258011   3.965   3.755   1.218
19257WAT      O58012   0.203   5.243   6.651
19257WAT     H158013   0.103   5.247   6.653
19257WAT     H258014   0.240   5.321   6.600
19258WAT      O58015   9.197   6.211   6.443
19258WAT     H158016   9.195   6.290   6.382
19258WAT     H258017   9.113   6.210   6.498
19259WAT      O58018   6.998   2.295   1.790
19259WAT     H158019   7.094   2.268   1.791
19259WAT     H258020   6.956   2.270   1.877
19260WAT      O58021   5.480   5.173   1.534
19260WAT     H158022   5.419   5.126   1.598
19260WAT     H258023   5.471   5.132   1.443
19261WAT      O58024   2.742   4.226   4.129
19261WAT     H158025   2.669   4.212   4.195
19261WAT     H258026   2.725   4.169   4.048
19262WAT      O58027   1.597   3.111   2.796
19262WAT     H158028   1.594   3.124   2.895
19262WAT     H258029   1.674   3.052   2.773
19263WAT      O58030   5.869   7.768   0.612
19263WAT     H158031   5.859   7.865   0.589
19263WAT     H258032   5.808   7.746   0.688
19264WAT      O58033   7.694   6.100   5.381
19264WAT     H158034   7.774   6.100   5.322
19264WAT     H258035   7.680   6.191   5.418
19265WAT      O58036   7.051   0.303   1.743
19265WAT     H158037   7.066   0.384   1.687
19265WAT     H258038   7.133   0.283   1.795
19266WAT      O58039   7.412   9.237   1.833
19266WAT     H158040   7.405   9.259   1.930
19266WAT     H258041   7.503   9.199   1.814
19267WAT      O58042   2.715   0.865   0.963
19267WAT     H158043   2.733   0.876   0.865
19267WAT     H258044   2.658   0.941   0.995
19268WAT      O58045   2.201   4.077   1.592
19268WAT     H158046   2.242   3.986   1.590
19268WAT     H258047   2.263   4.142   1.636
19269WAT      O58048   4.084   3.289   7.258
19269WAT     H158049   4.087   3.197   7.297
19269WAT     H258050   4.152   3.347   7.304
19270WAT      O58051   4.953   6.647   4.591
19270WAT     H158052   4.992   6.691   4.509
19270WAT     H258053   5.017   6.656   4.667
19271WAT      O58054   9.758   4.286   2.722
19271WAT     H158055   9.791   4.235   2.643
19271WAT     H258056   9.730   4.378   2.694
19272WAT      O58057   4.683   2.693   5.950
19272WAT     H158058   4.632   2.743   6.020
19272WAT     H258059   4.732   2.758   5.892
19273WAT      O58060   2.829   7.992   3.201
19273WAT     H158061   2.858   7.980   3.297
19273WAT     H258062   2.819   8.089   3.181
19274WAT      O58063   0.890   7.826   2.700
19274WAT     H158064   0.916   7.774   2.619
19274WAT     H258065   0.971   7.872   2.738
19275WAT      O58066   5.620   1.246   6.447
19275WAT     H158067   5.714   1.231   6.478
19275WAT     H258068   5.592   1.171   6.389
19276WAT      O58069   3.384   8.324   6.113
19276WAT     H158070   3.340   8.396   6.168
19276WAT     H258071   3.481   8.319   6.138
19277WAT      O58072   7.362   8.493   8.257
19277WAT     H158073   7.460   8.478   8.244
19277WAT     H258074   7.347   8.580   8.303
19278WAT      O58075   2.787   7.141   3.001
19278WAT     H158076   2.822   7.117   3.091
19278WAT     H258077   2.859   7.187   2.948
19279WAT      O58078   4.823   2.155   1.914
19279WAT     H158079   4.917   2.179   1.892
19279WAT     H258080   4.819   2.111   2.003
19280WAT      O58081   2.079   4.241   0.794
19280WAT     H158082   2.142   4.177   0.838
19280WAT     H258083   2.049   4.309   0.860
19281WAT      O58084   4.725   5.785   8.326
19281WAT     H158085   4.761   5.706   8.376
19281WAT     H258086   4.729   5.767   8.228
19282WAT      O58087   2.900   5.691   3.944
19282WAT     H158088   2.966   5.657   4.012
19282WAT     H258089   2.941   5.767   3.894
19283WAT      O58090   9.881   3.202   0.419
19283WAT     H158091   9.794   3.152   0.424
19283WAT     H258092   9.952   3.141   0.384
19284WAT      O58093   5.112   8.468   6.726
19284WAT     H158094   5.127   8.561   6.760
19284WAT     H258095   5.090   8.408   6.803
19285WAT      O58096   5.629   8.914   6.285
19285WAT     H158097   5.597   8.984   6.221
19285WAT     H258098   5.599   8.824   6.254
19286WAT      O58099   2.781   5.596   3.689
19286WAT     H158100   2.844   5.632   3.620
19286WAT     H258101   2.827   5.591   3.777
19287WAT      O58102   8.459   2.471   8.632
19287WAT     H158103   8.432   2.565   8.612
19287WAT     H258104   8.472   2.460   8.730
19288WAT      O58105   3.469   9.114   0.660
19288WAT     H158106   3.437   9.159   0.577
19288WAT     H258107   3.539   9.046   0.637
19289WAT      O58108   1.082   9.347   1.400
19289WAT     H158109   0.990   9.326   1.432
19289WAT     H258110   1.079   9.371   1.302
19290WAT      O58111   3.025   2.283   0.533
19290WAT     H158112   2.946   2.231   0.503
19290WAT     H258113   3.082   2.227   0.593
19291WAT      O58114   8.268   7.752   9.559
19291WAT     H158115   8.208   7.783   9.485
19291WAT     H258116   8.333   7.824   9.582
19292WAT      O58117   7.637   7.086   3.746
19292WAT     H158118   7.625   7.093   3.647
19292WAT     H258119   7.569   7.142   3.792
19293WAT      O58120   7.971   8.139   8.285
19293WAT     H158121   8.038   8.200   8.327
19293WAT     H258122   7.949   8.065   8.349
19294WAT      O58123   1.812   7.357   9.630
19294WAT     H158124   1.836   7.444   9.673
19294WAT     H258125   1.860   7.283   9.678
19295WAT      O58126   8.231   6.120   7.891
19295WAT     H158127   8.152   6.180   7.907
19295WAT     H258128   8.309   6.153   7.944
19296WAT      O58129   2.786   1.053   8.752
19296WAT     H158130   2.690   1.039   8.773
19296WAT     H258131   2.833   1.092   8.832
19297WAT      O58132   3.620   5.219   0.489
19297WAT     H158133   3.714   5.191   0.468
19297WAT     H258134   3.566   5.138   0.513
19298WAT      O58135   2.975   6.901   5.863
19298WAT     H158136   3.033   6.924   5.785
19298WAT     H258137   2.940   6.807   5.852
19299WAT      O58138   3.192   3.696   7.187
19299WAT     H158139   3.224   3.696   7.092
19299WAT     H258140   3.229   3.617   7.235
19300WAT      O58141   0.666   2.400   4.467
19300WAT     H158142   0.570   2.375   4.482
19300WAT     H258143   0.710   2.419   4.554
19301WAT      O58144   8.666   8.215   8.652
19301WAT     H158145   8.642   8.197   8.748
19301WAT     H258146   8.600   8.170   8.592
19302WAT      O58147   9.665   6.031   2.455
19302WAT     H158148   9.686   6.120   2.495
19302WAT     H258149   9.581   5.995   2.496
19303WAT      O58150   9.562   0.521   8.024
19303WAT     H158151   9.506   0.449   8.066
19303WAT     H258152   9.541   0.609   8.067
19304WAT      O58153   5.573   7.896   5.448
19304WAT     H158154   5.659   7.866   5.408
19304WAT     H258155   5.519   7.944   5.378
19305WAT      O58156   6.628   3.347   2.339
19305WAT     H158157   6.700   3.278   2.349
19305WAT     H258158   6.539   3.307   2.362
19306WAT      O58159   6.599   0.990   7.489
19306WAT     H158160   6.547   0.991   7.575
19306WAT     H258161   6.559   1.057   7.426
19307WAT      O58162   4.983   6.162   8.012
19307WAT     H158163   4.929   6.243   8.036
19307WAT     H258164   5.001   6.108   8.094
19308WAT      O58165   4.429   3.384   6.547
19308WAT     H158166   4.417   3.305   6.607
19308WAT     H258167   4.372   3.373   6.466
19309WAT      O58168   9.632   2.822   2.821
19309WAT     H158169   9.694   2.900   2.811
19309WAT     H258170   9.555   2.834   2.759
19310WAT      O58171   4.271   3.798   0.481
19310WAT     H158172   4.348   3.750   0.439
19310WAT     H258173   4.306   3.875   0.534
19311WAT      O58174   2.338   5.207   8.623
19311WAT     H158175   2.434   5.231   8.608
19311WAT     H258176   2.284   5.290   8.631
19312WAT      O58177   1.883   7.204   1.171
19312WAT     H158178   1.959   7.205   1.107
19312WAT     H258179   1.900   7.138   1.244
19313WAT      O58180   1.209   3.170   0.468
19313WAT     H158181   1.295   3.141   0.426
19313WAT     H258182   1.136   3.168   0.399
19314WAT      O58183   3.628   3.160   8.154
19314WAT     H158184   3.710   3.107   8.138
19314WAT     H258185   3.611   3.220   8.075
19315WAT      O58186   5.820   7.126   4.032
19315WAT     H158187   5.722   7.145   4.032
19315WAT     H258188   5.834   7.027   4.039
19316WAT      O58189   4.159   5.378   9.233
19316WAT     H158190   4.173   5.433   9.316
19316WAT     H258191   4.084   5.416   9.180
19317WAT      O58192   7.667   8.695   3.085
19317WAT     H158193   7.577   8.652   3.080
19317WAT     H258194   7.659   8.792   3.062
19318WAT      O58195   1.089   0.048   8.924
19318WAT     H158196   1.061   0.001   9.008
19318WAT     H258197   1.188   0.062   8.924
19319WAT      O58198   0.422   5.263   9.850
19319WAT     H158199   0.377   5.294   9.766
19319WAT     H258200   0.437   5.164   9.845
19320WAT      O58201   9.211   9.434   2.620
19320WAT     H158202   9.197   9.405   2.715
19320WAT     H258203   9.183   9.529   2.610
19321WAT      O58204   3.203   2.032   7.088
19321WAT     H158205   3.269   1.964   7.058
19321WAT     H258206   3.232   2.122   7.057
19322WAT      O58207   3.446   6.274   7.070
19322WAT     H158208   3.442   6.374   7.064
19322WAT     H258209   3.444   6.246   7.166
19323WAT      O58210   7.321   7.031   8.618
19323WAT     H158211   7.323   7.127   8.648
19323WAT     H258212   7.229   6.995   8.629
19324WAT      O58213   0.841   2.763   8.491
19324WAT     H158214   0.839   2.857   8.456
19324WAT     H258215   0.750   2.737   8.523
19325WAT      O58216   3.324   2.065   7.796
19325WAT     H158217   3.257   2.055   7.870
19325WAT     H258218   3.310   2.152   7.749
19326WAT      O58219   1.722   8.227   9.640
19326WAT     H158220   1.642   8.182   9.601
19326WAT     H258221   1.698   8.321   9.666
19327WAT      O58222   6.882   7.576   7.464
19327WAT     H158223   6.971   7.533   7.481
19327WAT     H258224   6.885   7.626   7.378
19328WAT      O58225   6.098   3.570   7.712
19328WAT     H158226   6.143   3.652   7.678
19328WAT     H258227   6.148   3.534   7.790
19329WAT      O58228   7.597   8.310   8.866
19329WAT     H158229   7.693   8.301   8.893
19329WAT     H258230   7.577   8.245   8.793
19330WAT      O58231   9.773   5.022   1.347
19330WAT     H158232   9.702   5.017   1.277
19330WAT     H258233   9.737   5.068   1.428
19331WAT      O58234   0.831   7.679   0.596
19331WAT     H158235   0.907   7.671   0.532
19331WAT     H258236   0.786   7.768   0.583
19332WAT      O58237   8.493   1.597   6.867
19332WAT     H158238   8.404   1.564   6.897
19332WAT     H258239   8.551   1.614   6.948
19333WAT      O58240   6.414   5.935   7.301
19333WAT     H158241   6.318   5.930   7.327
19333WAT     H258242   6.427   6.007   7.233
19334WAT      O58243   5.866   0.008   4.717
19334WAT     H158244   5.959  -0.012   4.687
19334WAT     H258245   5.865   0.024   4.816
19335WAT      O58246   6.627   1.026   9.048
19335WAT     H158247   6.670   0.948   9.003
19335WAT     H258248   6.560   1.067   8.986
19336WAT      O58249   5.229   5.437   5.078
19336WAT     H158250   5.265   5.490   5.155
19336WAT     H258251   5.204   5.499   5.003
19337WAT      O58252   6.790   9.728   0.679
19337WAT     H158253   6.800   9.737   0.580
19337WAT     H258254   6.830   9.807   0.724
19338WAT      O58255   4.700   6.095   3.547
19338WAT     H158256   4.629   6.027   3.530
19338WAT     H258257   4.768   6.057   3.609
19339WAT      O58258   2.384   2.626   0.977
19339WAT     H158259   2.326   2.708   0.979
19339WAT     H258260   2.413   2.603   1.069
19340WAT      O58261   4.041   3.359   4.200
19340WAT     H158262   3.988   3.333   4.280
19340WAT     H258263   4.139   3.350   4.221
19341WAT      O58264   2.914   1.632   0.433
19341WAT     H158265   2.913   1.623   0.334
19341WAT     H258266   2.862   1.714   0.459
19342WAT      O58267   9.226   2.220   4.046
19342WAT     H158268   9.178   2.305   4.021
19342WAT     H258269   9.258   2.227   4.140
19343WAT      O58270   0.312   0.490   1.801
19343WAT     H158271   0.399   0.494   1.851
19343WAT     H258272   0.255   0.417   1.840
19344WAT      O58273   9.528   2.137   3.989
19344WAT     H158274   9.592   2.170   3.919
19344WAT     H258275   9.435   2.160   3.961
19345WAT      O58276   4.678   7.791   7.950
19345WAT     H158277   4.669   7.838   8.038
19345WAT     H258278   4.772   7.803   7.916
19346WAT      O58279   2.546   1.795   7.459
19346WAT     H158280   2.497   1.723   7.507
19346WAT     H258281   2.485   1.839   7.393
19347WAT      O58282   3.987   1.040   4.696
19347WAT     H158283   3.999   1.061   4.599
19347WAT     H258284   4.056   0.973   4.724
19348WAT      O58285   7.625   2.572   2.255
19348WAT     H158286   7.617   2.656   2.202
19348WAT     H258287   7.661   2.499   2.196
19349WAT      O58288   7.049   0.878   3.423
19349WAT     H158289   6.986   0.914   3.492
19349WAT     H258290   7.141   0.911   3.442
19350WAT      O58291   0.395   0.835   1.473
19350WAT     H158292   0.336   0.840   1.392
19350WAT     H258293   0.353   0.774   1.540
19351WAT      O58294   9.128   5.945   8.571
19351WAT     H158295   9.136   5.902   8.481
19351WAT     H258296   9.109   5.875   8.640
19352WAT      O58297   2.075   9.576   7.127
19352WAT     H158298   2.066   9.498   7.188
19352WAT     H258299   2.165   9.618   7.138
19353WAT      O58300   0.803   2.794   7.494
19353WAT     H158301   0.791   2.836   7.404
19353WAT     H258302   0.722   2.813   7.551
19354WAT      O58303   7.948   0.853   0.613
19354WAT     H158304   8.006   0.830   0.691
19354WAT     H258305   7.918   0.769   0.568
19355WAT      O58306   0.406   4.069   3.563
19355WAT     H158307   0.319   4.025   3.584
19355WAT     H258308   0.425   4.138   3.633
19356WAT      O58309   6.864   9.482   8.384
19356WAT     H158310   6.904   9.551   8.444
19356WAT     H258311   6.932   9.411   8.365
19357WAT      O58312   9.763   2.230   9.111
19357WAT     H158313   9.664   2.217   9.101
19357WAT     H258314   9.784   2.328   9.109
19358WAT      O58315   4.723   1.170   2.498
19358WAT     H158316   4.646   1.150   2.558
19358WAT     H258317   4.794   1.218   2.549
19359WAT      O58318   7.917   4.803   0.860
19359WAT     H158319   7.835   4.859   0.856
19359WAT     H258320   7.960   4.801   0.769
19360WAT      O58321   6.487   4.706   4.225
19360WAT     H158322   6.483   4.749   4.316
19360WAT     H258323   6.407   4.734   4.172
19361WAT      O58324   7.676   9.831   9.561
19361WAT     H158325   7.588   9.839   9.514
19361WAT     H258326   7.724   9.919   9.558
19362WAT      O58327   4.014   9.416   6.847
19362WAT     H158328   3.962   9.462   6.775
19362WAT     H258329   3.950   9.374   6.912
19363WAT      O58330   9.711   8.638   3.190
19363WAT     H158331   9.743   8.582   3.267
19363WAT     H258332   9.611   8.629   3.182
19364WAT      O58333   3.219   0.235   9.674
19364WAT     H158334   3.129   0.191   9.673
19364WAT     H258335   3.255   0.239   9.581
19365WAT      O58336   5.381   5.774   7.138
19365WAT     H158337   5.348   5.692   7.185
19365WAT     H258338   5.349   5.855   7.187
19366WAT      O58339   7.189   9.083   4.402
19366WAT     H158340   7.208   9.181   4.408
19366WAT     H258341   7.232   9.046   4.319
19367WAT      O58342   5.865   9.714   7.997
19367WAT     H158343   5.801   9.669   7.936
19367WAT     H258344   5.820   9.790   8.043
19368WAT      O58345   8.020   0.491   6.940
19368WAT     H158346   7.948   0.551   6.974
19368WAT     H258347   7.979   0.412   6.894
19369WAT      O58348   7.248   7.183   7.783
19369WAT     H158349   7.194   7.257   7.823
19369WAT     H258350   7.200   7.096   7.794
19370WAT      O58351   7.053   2.591   5.031
19370WAT     H158352   7.123   2.662   5.017
19370WAT     H258353   6.963   2.635   5.042
19371WAT      O58354   0.103   7.774   4.956
19371WAT     H158355   0.032   7.768   4.885
19371WAT     H258356   0.074   7.722   5.036
19372WAT      O58357   8.779   6.934   4.287
19372WAT     H158358   8.820   6.979   4.207
19372WAT     H258359   8.681   6.923   4.271
19373WAT      O58360   0.383   7.532   5.628
19373WAT     H158361   0.422   7.524   5.537
19373WAT     H258362   0.335   7.620   5.636
19374WAT      O58363   6.328   9.522   8.531
19374WAT     H158364   6.373   9.437   8.559
19374WAT     H258365   6.231   9.519   8.558
19375WAT      O58366   1.460   0.629   3.518
19375WAT     H158367   1.528   0.656   3.450
19375WAT     H258368   1.413   0.710   3.553
19376WAT      O58369   8.788   8.718   9.596
19376WAT     H158370   8.769   8.660   9.675
19376WAT     H258371   8.758   8.811   9.614
19377WAT      O58372   5.767   1.292   4.811
19377WAT     H158373   5.689   1.269   4.753
19377WAT     H258374   5.852   1.270   4.762
19378WAT      O58375   9.732   2.233   6.641
19378WAT     H158376   9.689   2.143   6.626
19378WAT     H258377   9.677   2.286   6.705
19379WAT      O58378   9.627   3.295   1.975
19379WAT     H158379   9.542   3.261   1.935
19379WAT     H258380   9.620   3.292   2.075
19380WAT      O58381   7.964   3.053   5.536
19380WAT     H158382   7.950   2.977   5.473
19380WAT     H258383   7.917   3.034   5.622
19381WAT      O58384   9.746   3.173   9.297
19381WAT     H158385   9.717   3.083   9.263
19381WAT     H258386   9.683   3.205   9.367
19382WAT      O58387   5.494   3.870   1.907
19382WAT     H158388   5.473   3.856   1.810
19382WAT     H258389   5.497   3.782   1.954
19383WAT      O58390   5.960   3.169   0.453
19383WAT     H158391   5.948   3.194   0.550
19383WAT     H258392   5.909   3.085   0.434
19384WAT      O58393   9.335   1.609   4.010
19384WAT     H158394   9.385   1.527   3.983
19384WAT     H258395   9.239   1.601   3.983
19385WAT      O58396   6.236   3.775   2.466
19385WAT     H158397   6.289   3.838   2.409
19385WAT     H258398   6.175   3.827   2.526
19386WAT      O58399   1.602   2.222   6.986
19386WAT     H158400   1.581   2.318   6.971
19386WAT     H258401   1.610   2.205   7.085
19387WAT      O58402   2.758   4.285   2.889
19387WAT     H158403   2.830   4.355   2.887
19387WAT     H258404   2.707   4.293   2.975
19388WAT      O58405   0.033   3.459   7.878
19388WAT     H158406   0.011   3.556   7.873
19388WAT     H258407   0.084   3.440   7.962
19389WAT      O58408   9.680   3.724   1.030
19389WAT     H158409   9.685   3.748   0.933
19389WAT     H258410   9.625   3.641   1.041
19390WAT      O58411   8.233   5.102   6.918
19390WAT     H158412   8.317   5.062   6.881
19390WAT     H258413   8.192   5.039   6.984
19391WAT      O58414   2.742   6.630   4.594
19391WAT     H158415   2.769   6.723   4.622
19391WAT     H258416   2.655   6.634   4.544
19392WAT      O58417   3.246   4.147   6.867
19392WAT     H158418   3.332   4.101   6.889
19392WAT     H258419   3.173   4.111   6.926
19393WAT      O58420   3.950   5.640   0.257
19393WAT     H158421   3.868   5.698   0.258
19393WAT     H258422   3.958   5.593   0.345
19394WAT      O58423   5.556   1.131   3.457
19394WAT     H158424   5.632   1.067   3.455
19394WAT     H258425   5.470   1.080   3.452
19395WAT      O58426   5.590   5.980   8.576
19395WAT     H158427   5.525   5.961   8.502
19395WAT     H258428   5.541   6.003   8.659
19396WAT      O58429   2.683   8.484   8.360
19396WAT     H158430   2.751   8.412   8.348
19396WAT     H258431   2.597   8.444   8.393
19397WAT      O58432   8.055   6.496   5.076
19397WAT     H158433   8.081   6.521   4.983
19397WAT     H258434   7.987   6.422   5.073
19398WAT      O58435   0.390   2.814   9.035
19398WAT     H158436   0.404   2.766   9.122
19398WAT     H258437   0.293   2.810   9.010
19399WAT      O58438   8.400   2.748   8.650
19399WAT     H158439   8.480   2.805   8.630
19399WAT     H258440   8.328   2.805   8.689
19400WAT      O58441   1.383   1.859   4.241
19400WAT     H158442   1.448   1.923   4.201
19400WAT     H258443   1.431   1.803   4.310
19401WAT      O58444   5.232   7.420   7.656
19401WAT     H158445   5.209   7.513   7.683
19401WAT     H258446   5.148   7.365   7.652
19402WAT      O58447   6.469   3.439   5.297
19402WAT     H158448   6.492   3.394   5.383
19402WAT     H258449   6.538   3.508   5.276
19403WAT      O58450   8.454   7.344   2.741
19403WAT     H158451   8.480   7.428   2.694
19403WAT     H258452   8.434   7.365   2.837
19404WAT      O58453   1.521   6.712   1.438
19404WAT     H158454   1.490   6.677   1.350
19404WAT     H258455   1.610   6.757   1.427
19405WAT      O58456   7.016   0.741   1.543
19405WAT     H158457   6.967   0.735   1.456
19405WAT     H258458   7.088   0.811   1.536
19406WAT      O58459   5.322   1.126   4.540
19406WAT     H158460   5.260   1.204   4.542
19406WAT     H258461   5.273   1.045   4.507
19407WAT      O58462   7.372   5.291   4.843
19407WAT     H158463   7.374   5.199   4.802
19407WAT     H258464   7.463   5.332   4.837
19408WAT      O58465   7.664   0.509   7.804
19408WAT     H158466   7.644   0.555   7.718
19408WAT     H258467   7.756   0.470   7.801
19409WAT      O58468   4.250   8.269   8.066
19409WAT     H158469   4.325   8.202   8.074
19409WAT     H258470   4.169   8.234   8.114
19410WAT      O58471   3.796   0.097   1.330
19410WAT     H158472   3.713   0.142   1.362
19410WAT     H258473   3.846   0.060   1.408
19411WAT      O58474   8.590   1.017   7.022
19411WAT     H158475   8.499   1.044   6.991
19411WAT     H258476   8.637   0.968   6.949
19412WAT      O58477   1.180   7.241   3.104
19412WAT     H158478   1.259   7.183   3.081
19412WAT     H258479   1.118   7.245   3.025
19413WAT      O58480   4.653   9.043   1.893
19413WAT     H158481   4.719   9.006   1.958
19413WAT     H258482   4.644   9.142   1.906
19414WAT      O58483   4.848   5.903   4.549
19414WAT     H158484   4.817   5.973   4.613
19414WAT     H258485   4.909   5.839   4.596
19415WAT      O58486   0.346   9.154   5.008
19415WAT     H158487   0.381   9.107   5.089
19415WAT     H258488   0.304   9.087   4.947
19416WAT      O58489   8.382   5.153   7.853
19416WAT     H158490   8.283   5.166   7.859
19416WAT     H258491   8.409   5.077   7.912
19417WAT      O58492   6.211   2.803   6.013
19417WAT     H158493   6.281   2.781   6.080
19417WAT     H258494   6.253   2.844   5.932
19418WAT      O58495   4.129   0.533   2.765
19418WAT     H158496   4.147   0.481   2.681
19418WAT     H258497   4.193   0.504   2.836
19419WAT      O58498   8.659   5.724   2.916
19419WAT     H158499   8.721   5.795   2.882
19419WAT     H258500   8.712   5.652   2.961
19420WAT      O58501   6.296   0.969   1.212
19420WAT     H158502   6.227   0.976   1.285
19420WAT     H258503   6.378   1.019   1.239
19421WAT      O58504   0.243   6.549   5.612
19421WAT     H158505   0.270   6.460   5.648
19421WAT     H258506   0.159   6.579   5.657
19422WAT      O58507   4.553   3.418   0.112
19422WAT     H158508   4.538   3.326   0.148
19422WAT     H258509   4.564   3.482   0.188
19423WAT      O58510   0.067   1.228   4.175
19423WAT     H158511   0.086   1.187   4.264
19423WAT     H258512   0.107   1.320   4.171
19424WAT      O58513   0.081   3.290   3.584
19424WAT     H158514   0.052   3.195   3.598
19424WAT     H258515   0.002   3.350   3.586
19425WAT      O58516   7.240   7.206   4.067
19425WAT     H158517   7.312   7.226   4.132
19425WAT     H258518   7.274   7.219   3.974
19426WAT      O58519   0.320   0.258   5.899
19426WAT     H158520   0.409   0.263   5.945
19426WAT     H258521   0.270   0.343   5.915
19427WAT      O58522   7.532   3.739   7.177
19427WAT     H158523   7.597   3.672   7.142
19427WAT     H258524   7.549   3.828   7.135
19428WAT      O58525   6.727   9.309   5.754
19428WAT     H158526   6.737   9.319   5.853
19428WAT     H258527   6.724   9.212   5.731
19429WAT      O58528   2.613   5.647   2.323
19429WAT     H158529   2.692   5.595   2.356
19429WAT     H258530   2.626   5.744   2.343
19430WAT      O58531   3.736   3.419   9.216
19430WAT     H158532   3.819   3.392   9.167
19430WAT     H258533   3.703   3.507   9.180
19431WAT      O58534   7.523   1.930   7.979
19431WAT     H158535   7.622   1.942   7.982
19431WAT     H258536   7.497   1.851   8.035
19432WAT      O58537   1.284   1.950   8.770
19432WAT     H158538   1.347   1.888   8.723
19432WAT     H258539   1.309   1.954   8.867
19433WAT      O58540   3.844   8.185   0.163
19433WAT     H158541   3.906   8.216   0.235
19433WAT     H258542   3.868   8.231   0.077
19434WAT      O58543   7.253   1.752   6.535
19434WAT     H158544   7.240   1.673   6.595
19434WAT     H258545   7.290   1.721   6.447
19435WAT      O58546   6.842   7.192   8.402
19435WAT     H158547   6.808   7.132   8.474
19435WAT     H258548   6.879   7.275   8.443
19436WAT      O58549   8.187   3.511   3.219
19436WAT     H158550   8.218   3.442   3.284
19436WAT     H258551   8.087   3.514   3.219
19437WAT      O58552   6.545   5.702   3.695
19437WAT     H158553   6.637   5.677   3.665
19437WAT     H258554   6.484   5.706   3.616
19438WAT      O58555   1.536   1.590   1.808
19438WAT     H158556   1.598   1.560   1.736
19438WAT     H258557   1.575   1.567   1.897
19439WAT      O58558   4.356   6.970   7.259
19439WAT     H158559   4.390   6.911   7.333
19439WAT     H258560   4.385   6.932   7.171
19440WAT      O58561   7.685   7.851   1.564
19440WAT     H158562   7.758   7.857   1.495
19440WAT     H258563   7.701   7.918   1.636
19441WAT      O58564   1.848   7.555   1.770
19441WAT     H158565   1.878   7.603   1.852
19441WAT     H258566   1.770   7.603   1.729
19442WAT      O58567   4.701   6.346   4.735
19442WAT     H158568   4.649   6.389   4.661
19442WAT     H258569   4.643   6.340   4.817
19443WAT      O58570   4.549   6.598   2.072
19443WAT     H158571   4.624   6.541   2.037
19443WAT     H258572   4.497   6.635   1.995
19444WAT      O58573   2.460   0.250   9.196
19444WAT     H158574   2.429   0.298   9.278
19444WAT     H258575   2.544   0.293   9.163
19445WAT      O58576   1.522   5.951   3.026
19445WAT     H158577   1.541   5.877   3.091
19445WAT     H258578   1.556   5.924   2.935
19446WAT      O58579   9.675   4.912   6.041
19446WAT     H158580   9.606   4.904   6.112
19446WAT     H258581   9.696   5.009   6.025
19447WAT      O58582   6.338   0.263   3.711
19447WAT     H158583   6.283   0.280   3.793
19447WAT     H258584   6.435   0.269   3.734
19448WAT      O58585   6.452   9.412   2.428
19448WAT     H158586   6.463   9.421   2.527
19448WAT     H258587   6.357   9.433   2.403
19449WAT      O58588   8.272   5.155   6.193
19449WAT     H158589   8.283   5.058   6.171
19449WAT     H258590   8.269   5.167   6.292
19450WAT      O58591   5.858   3.634   6.944
19450WAT     H158592   5.890   3.619   7.037
19450WAT     H258593   5.778   3.695   6.945
19451WAT      O58594   9.878   9.410   9.674
19451WAT     H158595   9.920   9.494   9.641
19451WAT     H258596   9.788   9.399   9.632
19452WAT      O58597   5.886   4.171   1.151
19452WAT     H158598   5.916   4.139   1.241
19452WAT     H258599   5.790   4.198   1.155
19453WAT      O58600   5.623   2.597   4.396
19453WAT     H158601   5.719   2.580   4.373
19453WAT     H258602   5.589   2.672   4.339
19454WAT      O58603   1.433   7.309   2.483
19454WAT     H158604   1.354   7.370   2.476
19454WAT     H258605   1.498   7.330   2.411
19455WAT      O58606   4.050   7.648   0.566
19455WAT     H158607   4.025   7.732   0.613
19455WAT     H258608   4.150   7.641   0.560
19456WAT      O58609   3.433   6.374   6.720
19456WAT     H158610   3.367   6.303   6.695
19456WAT     H258611   3.503   6.380   6.649
19457WAT      O58612   6.211   7.549   2.100
19457WAT     H158613   6.144   7.623   2.099
19457WAT     H258614   6.303   7.586   2.102
19458WAT      O58615   8.340   8.045   2.847
19458WAT     H158616   8.276   8.070   2.921
19458WAT     H258617   8.304   8.077   2.760
19459WAT      O58618   3.858   4.102   5.137
19459WAT     H158619   3.894   4.189   5.101
19459WAT     H258620   3.854   4.035   5.063
19460WAT      O58621   9.530   2.103   9.432
19460WAT     H158622   9.622   2.086   9.469
19460WAT     H258623   9.506   2.030   9.368
19461WAT      O58624   0.735   1.133   2.276
19461WAT     H158625   0.703   1.224   2.251
19461WAT     H258626   0.830   1.122   2.247
19462WAT      O58627   9.656   7.702   9.125
19462WAT     H158628   9.755   7.691   9.117
19462WAT     H258629   9.632   7.723   9.219
19463WAT      O58630   4.631   3.049   7.062
19463WAT     H158631   4.548   3.103   7.048
19463WAT     H258632   4.675   3.031   6.974
19464WAT      O58633   6.020   7.004   0.705
19464WAT     H158634   5.977   7.000   0.795
19464WAT     H258635   6.078   6.924   0.693
19465WAT      O58636   4.064   0.497   4.559
19465WAT     H158637   4.008   0.423   4.522
19465WAT     H258638   4.096   0.555   4.484
19466WAT      O58639   7.683   8.871   0.117
19466WAT     H158640   7.722   8.863   0.209
19466WAT     H258641   7.753   8.852   0.049
19467WAT      O58642   0.190   6.409   0.151
19467WAT     H158643   0.139   6.346   0.092
19467WAT     H258644   0.202   6.368   0.242
19468WAT      O58645   1.336   2.335   8.050
19468WAT     H158646   1.255   2.290   8.013
19468WAT     H258647   1.343   2.427   8.013
19469WAT      O58648   1.804   0.231   7.800
19469WAT     H158649   1.778   0.136   7.785
19469WAT     H258650   1.749   0.269   7.874
19470WAT      O58651   9.813   0.964   6.426
19470WAT     H158652   9.889   1.029   6.437
19470WAT     H258653   9.848   0.871   6.427
19471WAT      O58654   5.506   2.833   3.452
19471WAT     H158655   5.430   2.894   3.473
19471WAT     H258656   5.570   2.878   3.390
19472WAT      O58657   5.191   4.227   7.812
19472WAT     H158658   5.203   4.266   7.720
19472WAT     H258659   5.276   4.185   7.841
19473WAT      O58660   8.404   7.818   3.517
19473WAT     H158661   8.378   7.732   3.560
19473WAT     H258662   8.441   7.880   3.587
19474WAT      O58663   4.843   3.234   6.055
19474WAT     H158664   4.775   3.229   6.128
19474WAT     H258665   4.808   3.292   5.981
19475WAT      O58666   9.577   7.630   6.981
19475WAT     H158667   9.570   7.587   7.071
19475WAT     H258668   9.486   7.654   6.949
19476WAT      O58669   0.936   9.644   8.209
19476WAT     H158670   0.853   9.681   8.166
19476WAT     H258671   0.909   9.586   8.287
19477WAT      O58672   2.132   5.512   2.075
19477WAT     H158673   2.095   5.536   2.165
19477WAT     H258674   2.075   5.553   2.004
19478WAT      O58675   8.750   8.435   3.220
19478WAT     H158676   8.751   8.437   3.121
19478WAT     H258677   8.702   8.354   3.252
19479WAT      O58678   0.092   4.153   8.381
19479WAT     H158679   0.086   4.112   8.472
19479WAT     H258680   0.168   4.218   8.379
19480WAT      O58681   7.093   3.288   6.280
19480WAT     H158682   7.099   3.218   6.209
19480WAT     H258683   7.182   3.332   6.291
19481WAT      O58684   7.664   5.571   1.375
19481WAT     H158685   7.619   5.651   1.414
19481WAT     H258686   7.763   5.585   1.375
19482WAT      O58687   6.844   9.510   2.725
19482WAT     H158688   6.930   9.471   2.760
19482WAT     H258689   6.834   9.488   2.628
19483WAT      O58690   6.330   4.825   0.864
19483WAT     H158691   6.423   4.815   0.828
19483WAT     H258692   6.307   4.922   0.871
19484WAT      O58693   1.965   2.827   7.224
19484WAT     H158694   2.000   2.737   7.199
19484WAT     H258695   1.866   2.823   7.232
19485WAT      O58696   9.347   9.667   0.532
19485WAT     H158697   9.403   9.607   0.475
19485WAT     H258698   9.342   9.629   0.625
19486WAT      O58699   9.561   0.793   2.582
19486WAT     H158700   9.528   0.716   2.637
19486WAT     H258701   9.518   0.877   2.614
19487WAT      O58702   8.698   4.024   0.080
19487WAT     H158703   8.797   4.036   0.079
19487WAT     H258704   8.657   4.083   0.010
19488WAT      O58705   6.419   3.272   8.740
19488WAT     H158706   6.348   3.280   8.810
19488WAT     H258707   6.402   3.191   8.685
19489WAT      O58708   8.247   7.322   6.116
19489WAT     H158709   8.249   7.324   6.216
19489WAT     H258710   8.163   7.364   6.083
19490WAT      O58711   0.690   8.097   7.119
19490WAT     H158712   0.629   8.049   7.183
19490WAT     H258713   0.645   8.180   7.086
19491WAT      O58714   3.695   1.266   2.551
19491WAT     H158715   3.599   1.251   2.576
19491WAT     H258716   3.708   1.360   2.521
19492WAT      O58717   7.478   6.041   3.861
19492WAT     H158718   7.510   6.108   3.927
19492WAT     H258719   7.556   5.999   3.814
19493WAT      O58720   9.726   0.771   8.345
19493WAT     H158721   9.711   0.861   8.386
19493WAT     H258722   9.677   0.766   8.257
19494WAT      O58723   2.553   7.990   3.229
19494WAT     H158724   2.491   7.914   3.208
19494WAT     H258725   2.630   7.987   3.165
19495WAT      O58726   0.724   9.420   1.106
19495WAT     H158727   0.719   9.412   1.007
19495WAT     H258728   0.819   9.422   1.135
19496WAT      O58729   7.791   2.574   3.497
19496WAT     H158730   7.747   2.488   3.520
19496WAT     H258731   7.747   2.649   3.548
19497WAT      O58732   0.191   8.888   6.653
19497WAT     H158733   0.212   8.815   6.588
19497WAT     H258734   0.272   8.909   6.707
19498WAT      O58735   5.877   1.957   1.911
19498WAT     H158736   5.848   1.882   1.851
19498WAT     H258737   5.894   1.921   2.003
19499WAT      O58738   9.851   5.126   6.502
19499WAT     H158739   9.920   5.097   6.436
19499WAT     H258740   9.844   5.058   6.575
19500WAT      O58741   1.186   4.912   2.617
19500WAT     H158742   1.199   5.011   2.627
19500WAT     H258743   1.213   4.884   2.525
19501WAT      O58744   5.881   0.705   8.309
19501WAT     H158745   5.829   0.637   8.362
19501WAT     H258746   5.949   0.748   8.369
19502WAT      O58747   7.321   7.126   3.449
19502WAT     H158748   7.282   7.118   3.541
19502WAT     H258749   7.253   7.167   3.388
19503WAT      O58750   2.392   1.425   0.586
19503WAT     H158751   2.420   1.497   0.523
19503WAT     H258752   2.311   1.455   0.638
19504WAT      O58753   1.152   4.776   7.245
19504WAT     H158754   1.195   4.850   7.193
19504WAT     H258755   1.107   4.813   7.326
19505WAT      O58756   8.458   0.688   3.491
19505WAT     H158757   8.370   0.689   3.445
19505WAT     H258758   8.451   0.739   3.577
19506WAT      O58759   4.469   9.439   5.781
19506WAT     H158760   4.397   9.508   5.787
19506WAT     H258761   4.546   9.476   5.730
19507WAT      O58762   5.670   4.617   5.661
19507WAT     H158763   5.713   4.590   5.747
19507WAT     H258764   5.594   4.679   5.679
19508WAT      O58765   4.403   3.436   6.072
19508WAT     H158766   4.380   3.507   6.005
19508WAT     H258767   4.344   3.357   6.057
19509WAT      O58768   8.797   4.777   2.082
19509WAT     H158769   8.708   4.764   2.039
19509WAT     H258770   8.807   4.713   2.158
19510WAT      O58771   7.853   8.800   1.652
19510WAT     H158772   7.867   8.806   1.553
19510WAT     H258773   7.940   8.780   1.697
19511WAT      O58774   4.197   7.518   4.281
19511WAT     H158775   4.214   7.562   4.193
19511WAT     H258776   4.282   7.510   4.332
19512WAT      O58777   7.616   8.436   9.873
19512WAT     H158778   7.540   8.499   9.858
19512WAT     H258779   7.693   8.461   9.815
19513WAT      O58780   3.604   9.768   5.816
19513WAT     H158781   3.540   9.790   5.743
19513WAT     H258782   3.652   9.851   5.846
19514WAT      O58783   9.177   1.566   4.706
19514WAT     H158784   9.140   1.622   4.632
19514WAT     H258785   9.276   1.582   4.712
19515WAT      O58786   4.959   0.919   0.115
19515WAT     H158787   4.960   0.995   0.179
19515WAT     H258788   4.871   0.872   0.120
19516WAT      O58789   4.869   8.458   5.978
19516WAT     H158790   4.936   8.523   5.943
19516WAT     H258791   4.847   8.391   5.906
19517WAT      O58792   4.516   7.287   8.204
19517WAT     H158793   4.532   7.379   8.240
19517WAT     H258794   4.438   7.288   8.141
19518WAT      O58795   8.229   2.778   4.992
19518WAT     H158796   8.242   2.693   4.942
19518WAT     H258797   8.132   2.801   4.996
19519WAT      O58798   9.300   7.474   1.321
19519WAT     H158799   9.366   7.456   1.393
19519WAT     H258800   9.219   7.519   1.360
19520WAT      O58801   3.320   7.929   5.467
19520WAT     H158802   3.262   7.962   5.392
19520WAT     H258803   3.387   7.864   5.430
19521WAT      O58804   6.776   2.810   9.367
19521WAT     H158805   6.811   2.795   9.274
19521WAT     H258806   6.699   2.748   9.384
19522WAT      O58807   1.145   7.844   2.032
19522WAT     H158808   1.225   7.785   2.035
19522WAT     H258809   1.174   7.939   2.014
19523WAT      O58810   9.486   5.626   7.673
19523WAT     H158811   9.486   5.608   7.771
19523WAT     H258812   9.403   5.588   7.631
19524WAT      O58813   5.098   3.050   4.270
19524WAT     H158814   5.063   3.009   4.354
19524WAT     H258815   5.100   2.980   4.198
19525WAT      O58816   5.380   9.685   0.201
19525WAT     H158817   5.401   9.591   0.173
19525WAT     H258818   5.319   9.683   0.281
19526WAT      O58819   9.882   7.999   4.592
19526WAT     H158820   9.908   8.015   4.497
19526WAT     H258821   9.824   7.918   4.597
19527WAT      O58822   7.543   3.247   4.925
19527WAT     H158823   7.533   3.192   4.842
19527WAT     H258824   7.521   3.343   4.904
19528WAT      O58825   2.155   1.262   5.116
19528WAT     H158826   2.130   1.339   5.174
19528WAT     H258827   2.180   1.295   5.025
19529WAT      O58828   6.697   7.938   8.368
19529WAT     H158829   6.789   7.901   8.354
19529WAT     H258830   6.629   7.872   8.337
19530WAT      O58831   2.693   3.517   1.889
19530WAT     H158832   2.777   3.463   1.891
19530WAT     H258833   2.708   3.602   1.840
19531WAT      O58834   0.998   5.863   8.354
19531WAT     H158835   0.978   5.957   8.325
19531WAT     H258836   1.031   5.810   8.276
19532WAT      O58837   6.065   7.592   6.896
19532WAT     H158838   6.118   7.510   6.917
19532WAT     H258839   5.973   7.566   6.868
19533WAT      O58840   8.489   3.412   6.424
19533WAT     H158841   8.578   3.450   6.400
19533WAT     H258842   8.450   3.367   6.344
19534WAT      O58843   3.576   7.953   4.555
19534WAT     H158844   3.483   7.929   4.583
19534WAT     H258845   3.588   7.933   4.458
19535WAT      O58846   9.863   4.985   7.518
19535WAT     H158847   9.805   5.033   7.584
19535WAT     H258848   9.955   4.974   7.557
19536WAT      O58849   7.734   5.795   8.394
19536WAT     H158850   7.734   5.878   8.449
19536WAT     H258851   7.754   5.716   8.452
19537WAT      O58852   7.733   8.008   3.758
19537WAT     H158853   7.801   8.063   3.806
19537WAT     H258854   7.771   7.916   3.742
19538WAT      O58855   7.278   6.788   0.553
19538WAT     H158856   7.282   6.864   0.489
19538WAT     H258857   7.371   6.765   0.584
19539WAT      O58858   2.322   1.648   0.983
19539WAT     H158859   2.402   1.656   0.924
19539WAT     H258860   2.314   1.729   1.041
19540WAT      O58861   3.935   1.628   8.253
19540WAT     H158862   3.960   1.692   8.179
19540WAT     H258863   3.836   1.634   8.269
19541WAT      O58864   8.149   4.560   8.649
19541WAT     H158865   8.164   4.549   8.747
19541WAT     H258866   8.135   4.657   8.628
19542WAT      O58867   5.738   0.583   7.885
19542WAT     H158868   5.724   0.662   7.825
19542WAT     H258869   5.766   0.504   7.830
19543WAT      O58870   2.242   1.482   9.473
19543WAT     H158871   2.209   1.555   9.414
19543WAT     H258872   2.227   1.506   9.569
19544WAT      O58873   0.605   0.193   6.430
19544WAT     H158874   0.683   0.255   6.444
19544WAT     H258875   0.522   0.247   6.416
19545WAT      O58876   0.576   1.627   4.834
19545WAT     H158877   0.607   1.719   4.856
19545WAT     H258878   0.477   1.622   4.846
19546WAT      O58879   9.554   7.826   6.678
19546WAT     H158880   9.529   7.764   6.753
19546WAT     H258881   9.650   7.851   6.686
19547WAT      O58882   5.823   6.562   0.596
19547WAT     H158883   5.803   6.515   0.510
19547WAT     H258884   5.865   6.498   0.660
19548WAT      O58885   8.282   8.792   2.124
19548WAT     H158886   8.331   8.826   2.204
19548WAT     H258887   8.259   8.696   2.138
19549WAT      O58888   2.260   2.778   3.508
19549WAT     H158889   2.165   2.762   3.481
19549WAT     H258890   2.262   2.823   3.598
19550WAT      O58891   4.296   1.037   7.310
19550WAT     H158892   4.241   0.959   7.282
19550WAT     H258893   4.319   1.093   7.230
19551WAT      O58894   4.797   6.003   2.547
19551WAT     H158895   4.867   6.040   2.486
19551WAT     H258896   4.841   5.966   2.629
19552WAT      O58897   4.368   1.651   9.016
19552WAT     H158898   4.317   1.677   8.934
19552WAT     H258899   4.393   1.554   9.011
19553WAT      O58900   3.828   4.480   4.354
19553WAT     H158901   3.905   4.431   4.396
19553WAT     H258902   3.821   4.572   4.393
19554WAT      O58903   0.762   1.830   7.840
19554WAT     H158904   0.784   1.927   7.838
19554WAT     H258905   0.689   1.814   7.907
19555WAT      O58906   7.496   6.222   4.792
19555WAT     H158907   7.399   6.246   4.786
19555WAT     H258908   7.511   6.168   4.875
19556WAT      O58909   1.622   9.669   3.576
19556WAT     H158910   1.564   9.721   3.515
19556WAT     H258911   1.708   9.718   3.591
19557WAT      O58912   3.396   9.452   0.944
19557WAT     H158913   3.458   9.488   1.014
19557WAT     H258914   3.448   9.392   0.883
19558WAT      O58915   1.289   5.605   1.192
19558WAT     H158916   1.366   5.543   1.211
19558WAT     H258917   1.222   5.597   1.266
19559WAT      O58918   7.530   5.715   1.589
19559WAT     H158919   7.451   5.685   1.643
19559WAT     H258920   7.566   5.800   1.626
19560WAT      O58921   4.926   9.511   8.294
19560WAT     H158922   4.985   9.470   8.224
19560WAT     H258923   4.915   9.609   8.275
19561WAT      O58924   2.981   3.025   4.231
19561WAT     H158925   2.947   2.962   4.161
19561WAT     H258926   3.028   2.973   4.303
19562WAT      O58927   7.234   4.103   2.634
19562WAT     H158928   7.328   4.139   2.634
19562WAT     H258929   7.234   4.010   2.670
19563WAT      O58930   3.877   2.923   4.498
19563WAT     H158931   3.783   2.920   4.533
19563WAT     H258932   3.910   2.830   4.484
19564WAT      O58933   2.035   8.706   5.750
19564WAT     H158934   1.975   8.707   5.830
19564WAT     H258935   2.048   8.612   5.720
19565WAT      O58936   8.770   0.368   2.853
19565WAT     H158937   8.849   0.364   2.914
19565WAT     H258938   8.773   0.452   2.799
19566WAT      O58939   0.657   5.603   0.239
19566WAT     H158940   0.728   5.668   0.267
19566WAT     H258941   0.625   5.627   0.147
19567WAT      O58942   1.258   1.164   4.703
19567WAT     H158943   1.304   1.209   4.626
19567WAT     H258944   1.233   1.071   4.677
19568WAT      O58945   5.135   0.869   4.006
19568WAT     H158946   5.071   0.942   4.028
19568WAT     H258947   5.161   0.876   3.910
19569WAT      O58948   3.520   3.152   4.478
19569WAT     H158949   3.554   3.231   4.528
19569WAT     H258950   3.439   3.115   4.525
19570WAT      O58951   9.703   6.404   5.517
19570WAT     H158952   9.754   6.490   5.525
19570WAT     H258953   9.765   6.330   5.491
19571WAT      O58954   8.070   8.693   4.818
19571WAT     H158955   8.159   8.683   4.774
19571WAT     H258956   8.081   8.729   4.910
19572WAT      O58957   7.027   1.263   9.345
19572WAT     H158958   7.062   1.357   9.342
19572WAT     H258959   7.001   1.234   9.253
19573WAT      O58960   2.755   9.455   8.220
19573WAT     H158961   2.818   9.533   8.216
19573WAT     H258962   2.765   9.410   8.309
19574WAT      O58963   3.303   3.182   2.392
19574WAT     H158964   3.391   3.143   2.365
19574WAT     H258965   3.244   3.110   2.428
19575WAT      O58966   6.680   6.881   9.411
19575WAT     H158967   6.583   6.879   9.436
19575WAT     H258968   6.696   6.952   9.342
19576WAT      O58969   4.949   3.419   8.820
19576WAT     H158970   4.985   3.337   8.864
19576WAT     H258971   4.866   3.448   8.868
19577WAT      O58972   7.119   1.886   1.679
19577WAT     H158973   7.178   1.832   1.620
19577WAT     H258974   7.083   1.964   1.627
19578WAT      O58975   4.336   7.953   3.617
19578WAT     H158976   4.239   7.953   3.592
19578WAT     H258977   4.391   7.937   3.535
19579WAT      O58978   1.246   7.880   5.842
19579WAT     H158979   1.256   7.969   5.799
19579WAT     H258980   1.223   7.812   5.773
19580WAT      O58981   2.915   5.997   5.563
19580WAT     H158982   2.965   5.916   5.595
19580WAT     H258983   2.850   5.971   5.492
19581WAT      O58984   2.373   7.805   5.517
19581WAT     H158985   2.464   7.767   5.502
19581WAT     H258986   2.304   7.743   5.479
19582WAT      O58987   6.276   7.184   0.590
19582WAT     H158988   6.216   7.123   0.539
19582WAT     H258989   6.367   7.143   0.598
19583WAT      O58990   0.718   0.343   8.986
19583WAT     H158991   0.679   0.386   8.905
19583WAT     H258992   0.675   0.253   9.000
19584WAT      O58993   7.416   3.295   0.911
19584WAT     H158994   7.390   3.388   0.934
19584WAT     H258995   7.358   3.230   0.961
19585WAT      O58996   7.547   7.464   1.147
19585WAT     H158997   7.459   7.511   1.141
19585WAT     H258998   7.542   7.376   1.099
19586WAT      O58999   4.076   3.884   9.692
19586WAT     H159000   4.090   3.790   9.722
19586WAT     H259001   3.986   3.892   9.649
19587WAT      O59002   9.167   5.247   9.787
19587WAT     H159003   9.124   5.335   9.769
19587WAT     H259004   9.189   5.202   9.701
19588WAT      O59005   8.109   4.815   7.374
19588WAT     H159006   8.021   4.833   7.329
19588WAT     H259007   8.117   4.872   7.456
19589WAT      O59008   0.138   8.942   8.523
19589WAT     H159009   0.143   9.024   8.580
19589WAT     H259010   0.229   8.921   8.487
19590WAT      O59011   0.921   6.351   7.553
19590WAT     H159012   0.861   6.385   7.626
19590WAT     H259013   1.014   6.385   7.567
19591WAT      O59014   8.769   6.824   5.768
19591WAT     H159015   8.695   6.761   5.793
19591WAT     H259016   8.821   6.785   5.692
19592WAT      O59017   7.513   7.401   4.679
19592WAT     H159018   7.436   7.415   4.741
19592WAT     H259019   7.536   7.304   4.676
19593WAT      O59020   2.995   8.532   4.351
19593WAT     H159021   3.071   8.561   4.293
19593WAT     H259022   3.027   8.523   4.446
19594WAT      O59023   9.075   0.703   1.852
19594WAT     H159024   8.978   0.705   1.830
19594WAT     H259025   9.115   0.618   1.818
19595WAT      O59026   6.035   5.250   2.116
19595WAT     H159027   5.970   5.186   2.074
19595WAT     H259028   6.023   5.248   2.215
19596WAT      O59029   5.397   3.573   9.375
19596WAT     H159030   5.336   3.598   9.300
19596WAT     H259031   5.385   3.476   9.397
19597WAT      O59032   8.384   6.773   3.461
19597WAT     H159033   8.410   6.869   3.476
19597WAT     H259034   8.454   6.713   3.499
19598WAT      O59035   5.702   9.571   7.207
19598WAT     H159036   5.737   9.548   7.116
19598WAT     H259037   5.662   9.490   7.249
19599WAT      O59038   4.237   6.266   9.181
19599WAT     H159039   4.223   6.299   9.275
19599WAT     H259040   4.151   6.230   9.145
19600WAT      O59041   2.052   7.322   8.915
19600WAT     H159042   1.971   7.270   8.888
19600WAT     H259043   2.076   7.299   9.009
19601WAT      O59044   8.888   6.196   6.690
19601WAT     H159045   8.819   6.268   6.702
19601WAT     H259046   8.970   6.220   6.741
19602WAT      O59047   4.789   9.285   3.506
19602WAT     H159048   4.867   9.247   3.456
19602WAT     H259049   4.822   9.345   3.579
19603WAT      O59050   9.394   0.365   6.211
19603WAT     H159051   9.330   0.439   6.230
19603WAT     H259052   9.452   0.349   6.291
19604WAT      O59053   4.654   2.431   7.629
19604WAT     H159054   4.558   2.453   7.617
19604WAT     H259055   4.663   2.335   7.657
19605WAT      O59056   1.327   8.933   6.502
19605WAT     H159057   1.335   8.860   6.569
19605WAT     H259058   1.363   8.902   6.414
19606WAT      O59059   6.766   5.510   5.302
19606WAT     H159060   6.826   5.515   5.382
19606WAT     H259061   6.821   5.524   5.219
19607WAT      O59062   2.970   2.124   9.729
19607WAT     H159063   2.897   2.187   9.755
19607WAT     H259064   2.941   2.030   9.750
19608WAT      O59065   5.591   2.166   4.148
19608WAT     H159066   5.513   2.227   4.144
19608WAT     H259067   5.560   2.071   4.145
19609WAT      O59068   4.711   6.759   4.685
19609WAT     H159069   4.787   6.716   4.636
19609WAT     H259070   4.717   6.737   4.782
19610WAT      O59071   4.345   6.494   2.788
19610WAT     H159072   4.323   6.494   2.690
19610WAT     H259073   4.262   6.510   2.841
19611WAT      O59074   7.179   2.345   5.169
19611WAT     H159075   7.145   2.427   5.123
19611WAT     H259076   7.273   2.328   5.140
19612WAT      O59077   8.753   0.854   7.449
19612WAT     H159078   8.758   0.817   7.541
19612WAT     H259079   8.769   0.953   7.452
19613WAT      O59080   1.811   2.035   3.500
19613WAT     H159081   1.783   2.050   3.405
19613WAT     H259082   1.895   2.085   3.517
19614WAT      O59083   9.089   8.743   5.070
19614WAT     H159084   9.145   8.664   5.096
19614WAT     H259085   9.081   8.745   4.970
19615WAT      O59086   8.017   6.333   8.641
19615WAT     H159087   7.934   6.327   8.696
19615WAT     H259088   7.993   6.342   8.545
19616WAT      O59089   2.009   6.403   4.851
19616WAT     H159090   2.030   6.485   4.904
19616WAT     H259091   2.034   6.419   4.755
19617WAT      O59092   0.647   0.274   2.051
19617WAT     H159093   0.733   0.281   2.101
19617WAT     H259094   0.594   0.198   2.087
19618WAT      O59095   0.982   1.497   6.145
19618WAT     H159096   1.076   1.510   6.113
19618WAT     H259097   0.920   1.496   6.067
19619WAT      O59098   1.406   8.091   6.961
19619WAT     H159099   1.323   8.147   6.971
19619WAT     H259100   1.384   8.007   6.913
19620WAT      O59101   6.443   9.187   4.509
19620WAT     H159102   6.428   9.162   4.605
19620WAT     H259103   6.524   9.140   4.474
19621WAT      O59104   1.162   4.317   8.319
19621WAT     H159105   1.086   4.378   8.298
19621WAT     H259106   1.167   4.245   8.250
19622WAT      O59107   5.328   4.258   7.554
19622WAT     H159108   5.402   4.319   7.582
19622WAT     H259109   5.307   4.273   7.457
19623WAT      O59110   2.758   4.917   1.918
19623WAT     H159111   2.797   4.853   1.851
19623WAT     H259112   2.773   5.011   1.887
19624WAT      O59113   4.983   6.908   6.896
19624WAT     H159114   4.971   6.997   6.852
19624WAT     H259115   4.906   6.848   6.870
19625WAT      O59116   1.830   6.593   1.454
19625WAT     H159117   1.761   6.554   1.515
19625WAT     H259118   1.885   6.518   1.416
19626WAT      O59119   2.312   7.590   4.051
19626WAT     H159120   2.358   7.638   3.977
19626WAT     H259121   2.219   7.568   4.023
19627WAT      O59122   7.359   6.243   8.795
19627WAT     H159123   7.442   6.300   8.796
19627WAT     H259124   7.365   6.175   8.868
19628WAT      O59125   6.962   5.314   9.774
19628WAT     H159126   6.919   5.228   9.746
19628WAT     H259127   6.984   5.368   9.692
19629WAT      O59128   0.344   7.676   3.632
19629WAT     H159129   0.432   7.676   3.585
19629WAT     H259130   0.274   7.638   3.572
19630WAT      O59131   1.839   0.718   0.880
19630WAT     H159132   1.853   0.658   0.959
19630WAT     H259133   1.822   0.811   0.911
19631WAT      O59134   0.946   8.624   1.915
19631WAT     H159135   0.931   8.723   1.913
19631WAT     H259136   1.030   8.602   1.866
19632WAT      O59137   4.335   9.249   3.548
19632WAT     H159138   4.302   9.158   3.521
19632WAT     H259139   4.322   9.312   3.472
19633WAT      O59140   5.775   3.717   2.290
19633WAT     H159141   5.713   3.639   2.299
19633WAT     H259142   5.826   3.728   2.375
19634WAT      O59143   0.728   3.646   4.045
19634WAT     H159144   0.721   3.746   4.046
19634WAT     H259145   0.639   3.606   4.063
19635WAT      O59146   0.476   5.568   5.007
19635WAT     H159147   0.493   5.495   4.940
19635WAT     H259148   0.386   5.607   4.993
19636WAT      O59149   2.069   2.667   3.231
19636WAT     H159150   2.049   2.719   3.315
19636WAT     H259151   1.983   2.642   3.187
19637WAT      O59152   5.884   7.780   8.642
19637WAT     H159153   5.928   7.754   8.557
19637WAT     H259154   5.910   7.715   8.714
19638WAT      O59155   0.542   7.386   0.287
19638WAT     H159156   0.528   7.371   0.385
19638WAT     H259157   0.637   7.367   0.264
19639WAT      O59158   5.279   7.771   8.284
19639WAT     H159159   5.283   7.823   8.369
19639WAT     H259160   5.185   7.742   8.267
19640WAT      O59161   8.994   4.003   4.775
19640WAT     H159162   9.069   4.069   4.772
19640WAT     H259163   8.936   4.022   4.854
19641WAT      O59164   9.787   2.859   0.146
19641WAT     H159165   9.764   2.816   0.233
19641WAT     H259166   9.704   2.869   0.090
19642WAT      O59167   4.242   1.069   2.728
19642WAT     H159168   4.210   1.152   2.683
19642WAT     H259169   4.268   1.001   2.660
19643WAT      O59170   4.749   5.920   5.119
19643WAT     H159171   4.750   5.947   5.215
19643WAT     H259172   4.655   5.920   5.085
19644WAT      O59173   4.342   7.178   8.759
19644WAT     H159174   4.264   7.129   8.721
19644WAT     H259175   4.410   7.113   8.792
19645WAT      O59176   0.059   5.123   4.435
19645WAT     H159177   0.124   5.168   4.374
19645WAT     H259178   0.105   5.052   4.487
19646WAT      O59179   3.720   9.167   8.672
19646WAT     H159180   3.690   9.072   8.680
19646WAT     H259181   3.754   9.184   8.579
19647WAT      O59182   1.663   6.416   3.481
19647WAT     H159183   1.652   6.443   3.577
19647WAT     H259184   1.717   6.485   3.433
19648WAT      O59185   5.038   0.419   7.101
19648WAT     H159186   5.119   0.361   7.091
19648WAT     H259187   5.010   0.454   7.012
19649WAT      O59188   5.837   0.181   7.434
19649WAT     H159189   5.858   0.096   7.384
19649WAT     H259190   5.866   0.171   7.530
19650WAT      O59191   7.463   8.041   9.168
19650WAT     H159192   7.543   7.985   9.189
19650WAT     H259193   7.395   8.031   9.241
19651WAT      O59194   3.477   3.873   5.445
19651WAT     H159195   3.532   3.934   5.502
19651WAT     H259196   3.399   3.924   5.409
19652WAT      O59197   0.207   0.690   2.269
19652WAT     H159198   0.182   0.786   2.280
19652WAT     H259199   0.253   0.657   2.351
19653WAT      O59200   5.346   8.234   3.597
19653WAT     H159201   5.281   8.158   3.602
19653WAT     H259202   5.391   8.246   3.686
19654WAT      O59203   5.376   1.549   5.394
19654WAT     H159204   5.290   1.501   5.411
19654WAT     H259205   5.387   1.563   5.296
19655WAT      O59206   5.932   6.785   7.941
19655WAT     H159207   6.002   6.807   7.873
19655WAT     H259208   5.843   6.775   7.895
19656WAT      O59209   7.734   8.686   9.280
19656WAT     H159210   7.749   8.588   9.267
19656WAT     H259211   7.638   8.708   9.262
19657WAT      O59212   4.122   9.044   4.775
19657WAT     H159213   4.038   9.046   4.721
19657WAT     H259214   4.102   9.008   4.866
19658WAT      O59215   8.915   3.976   0.907
19658WAT     H159216   8.872   4.033   0.837
19658WAT     H259217   9.003   3.943   0.874
19659WAT      O59218   6.827   5.250   0.627
19659WAT     H159219   6.821   5.227   0.530
19659WAT     H259220   6.897   5.319   0.641
19660WAT      O59221   4.535   9.179   5.722
19660WAT     H159222   4.596   9.176   5.643
19660WAT     H259223   4.540   9.270   5.764
19661WAT      O59224   2.171   1.223   1.084
19661WAT     H159225   2.270   1.233   1.079
19661WAT     H259226   2.136   1.275   1.162
19662WAT      O59227   6.860   5.566   8.297
19662WAT     H159228   6.829   5.578   8.391
19662WAT     H259229   6.836   5.647   8.243
19663WAT      O59230   2.275   2.686   0.492
19663WAT     H159231   2.222   2.755   0.542
19663WAT     H259232   2.222   2.654   0.413
19664WAT      O59233   8.765   1.561   1.795
19664WAT     H159234   8.738   1.506   1.874
19664WAT     H259235   8.692   1.560   1.727
19665WAT      O59236   2.864   4.002   2.490
19665WAT     H159237   2.792   3.963   2.432
19665WAT     H259238   2.947   4.015   2.435
19666WAT      O59239   5.644   5.718   6.496
19666WAT     H159240   5.629   5.678   6.587
19666WAT     H259241   5.717   5.786   6.502
19667WAT      O59242   4.086   4.591   0.556
19667WAT     H159243   4.096   4.637   0.468
19667WAT     H259244   3.994   4.552   0.563
19668WAT      O59245   8.236   6.078   7.620
19668WAT     H159246   8.325   6.049   7.584
19668WAT     H259247   8.246   6.099   7.718
19669WAT      O59248   1.956   2.329   5.109
19669WAT     H159249   1.925   2.288   5.023
19669WAT     H259250   1.937   2.267   5.185
19670WAT      O59251   1.504   6.397   4.256
19670WAT     H159252   1.510   6.327   4.327
19670WAT     H259253   1.590   6.403   4.207
19671WAT      O59254   1.410   0.309   6.225
19671WAT     H159255   1.480   0.331   6.292
19671WAT     H259256   1.380   0.214   6.238
19672WAT      O59257   6.995   3.155   5.749
19672WAT     H159258   7.035   3.152   5.841
19672WAT     H259259   6.931   3.232   5.742
19673WAT      O59260   0.388   8.251   5.638
19673WAT     H159261   0.421   8.156   5.638
19673WAT     H259262   0.411   8.293   5.726
19674WAT      O59263   9.453   0.740   6.364
19674WAT     H159264   9.503   0.695   6.438
19674WAT     H259265   9.513   0.804   6.318
19675WAT      O59266   1.416   2.104   9.372
19675WAT     H159267   1.359   2.121   9.291
19675WAT     H259268   1.428   2.190   9.423
19676WAT      O59269   5.522   1.082   4.782
19676WAT     H159270   5.501   1.070   4.879
19676WAT     H259271   5.449   1.136   4.739
19677WAT      O59272   6.619   2.615   4.713
19677WAT     H159273   6.684   2.680   4.675
19677WAT     H259274   6.651   2.522   4.695
19678WAT      O59275   2.552   5.021   4.071
19678WAT     H159276   2.562   5.120   4.086
19678WAT     H259277   2.628   4.988   4.016
19679WAT      O59278   6.482   3.628   3.483
19679WAT     H159279   6.485   3.684   3.400
19679WAT     H259280   6.545   3.667   3.551
19680WAT      O59281   5.540   8.634   0.792
19680WAT     H159282   5.496   8.606   0.877
19680WAT     H259283   5.470   8.655   0.723
19681WAT      O59284   6.648   3.682   1.422
19681WAT     H159285   6.661   3.716   1.328
19681WAT     H259286   6.564   3.721   1.460
19682WAT      O59287   3.162   1.579   2.597
19682WAT     H159288   3.114   1.529   2.524
19682WAT     H259289   3.246   1.529   2.621
19683WAT      O59290   6.855   1.149   0.842
19683WAT     H159291   6.790   1.073   0.833
19683WAT     H259292   6.930   1.120   0.901
19684WAT      O59293   3.970   7.079   8.745
19684WAT     H159294   3.922   6.996   8.771
19684WAT     H259295   4.041   7.057   8.678
19685WAT      O59296   7.009   7.489   8.165
19685WAT     H159297   6.997   7.407   8.221
19685WAT     H259298   7.071   7.552   8.211
19686WAT      O59299   6.201   8.652   0.515
19686WAT     H159300   6.285   8.701   0.537
19686WAT     H259301   6.135   8.664   0.589
19687WAT      O59302   0.562   0.008   2.733
19687WAT     H159303   0.551  -0.004   2.832
19687WAT     H259304   0.658  -0.001   2.708
19688WAT      O59305   4.270   7.580   0.319
19688WAT     H159306   4.354   7.589   0.265
19688WAT     H259307   4.275   7.641   0.399
19689WAT      O59308   2.169   5.049   1.861
19689WAT     H159309   2.152   5.120   1.792
19689WAT     H259310   2.082   5.021   1.902
19690WAT      O59311   3.612   2.017   9.629
19690WAT     H159312   3.595   1.918   9.633
19690WAT     H259313   3.685   2.036   9.564
19691WAT      O59314   7.301   8.726   8.362
19691WAT     H159315   7.359   8.799   8.324
19691WAT     H259316   7.273   8.750   8.455
19692WAT      O59317   2.273   1.822   2.486
19692WAT     H159318   2.333   1.836   2.566
19692WAT     H259319   2.180   1.848   2.509
19693WAT      O59320   8.436   7.849   5.423
19693WAT     H159321   8.488   7.931   5.398
19693WAT     H259322   8.490   7.767   5.403
19694WAT      O59323   8.395   0.749   7.432
19694WAT     H159324   8.486   0.709   7.445
19694WAT     H259325   8.331   0.707   7.496
19695WAT      O59326   2.478   9.615   3.433
19695WAT     H159327   2.566   9.586   3.471
19695WAT     H259328   2.472   9.586   3.337
19696WAT      O59329   5.059   0.580   2.810
19696WAT     H159330   5.055   0.613   2.904
19696WAT     H259331   5.144   0.528   2.796
19697WAT      O59332   6.611   3.196   4.014
19697WAT     H159333   6.566   3.150   4.091
19697WAT     H259334   6.542   3.239   3.956
19698WAT      O59335   3.875   1.254   7.441
19698WAT     H159336   3.923   1.195   7.377
19698WAT     H259337   3.941   1.296   7.503
19699WAT      O59338   2.562   0.205   9.822
19699WAT     H159339   2.493   0.204   9.750
19699WAT     H259340   2.637   0.266   9.795
19700WAT      O59341   6.670   8.573   1.506
19700WAT     H159342   6.668   8.481   1.468
19700WAT     H259343   6.747   8.624   1.468
19701WAT      O59344   3.476   6.228   2.184
19701WAT     H159345   3.493   6.164   2.109
19701WAT     H259346   3.382   6.261   2.178
19702WAT      O59347   2.446   3.477   4.328
19702WAT     H159348   2.417   3.446   4.237
19702WAT     H259349   2.444   3.577   4.331
19703WAT      O59350   7.168   0.118   2.195
19703WAT     H159351   7.196   0.032   2.236
19703WAT     H259352   7.089   0.155   2.244
19704WAT      O59353   7.933   6.072   3.285
19704WAT     H159354   7.877   5.995   3.256
19704WAT     H259355   8.022   6.039   3.317
19705WAT      O59356   8.344   4.819   1.632
19705WAT     H159357   8.259   4.870   1.634
19705WAT     H259358   8.420   4.878   1.660
19706WAT      O59359   3.253   8.713   7.689
19706WAT     H159360   3.162   8.692   7.653
19706WAT     H259361   3.322   8.699   7.618
19707WAT      O59362   8.897   2.699   8.949
19707WAT     H159363   8.900   2.660   8.857
19707WAT     H259364   8.971   2.661   9.004
19708WAT      O59365   2.370   9.349   2.779
19708WAT     H159366   2.360   9.332   2.877
19708WAT     H259367   2.411   9.269   2.735
19709WAT      O59368   5.624   6.966   1.653
19709WAT     H159369   5.527   6.986   1.640
19709WAT     H259370   5.678   7.048   1.631
19710WAT      O59371   8.353   2.024   0.213
19710WAT     H159372   8.349   2.053   0.309
19710WAT     H259373   8.411   1.943   0.205
19711WAT      O59374   6.376   1.098   8.253
19711WAT     H159375   6.420   1.086   8.342
19711WAT     H259376   6.372   1.195   8.230
19712WAT      O59377   0.974   4.717   8.610
19712WAT     H159378   0.896   4.742   8.668
19712WAT     H259379   0.945   4.716   8.514
19713WAT      O59380   5.983   2.396   6.692
19713WAT     H159381   6.010   2.314   6.742
19713WAT     H259382   6.064   2.441   6.654
19714WAT      O59383   0.270   3.447   4.775
19714WAT     H159384   0.304   3.465   4.867
19714WAT     H259385   0.207   3.369   4.777
19715WAT      O59386   9.425   1.887   4.011
19715WAT     H159387   9.417   1.788   4.026
19715WAT     H259388   9.489   1.925   4.078
19716WAT      O59389   9.142   2.035   4.394
19716WAT     H159390   9.216   1.970   4.375
19716WAT     H259391   9.068   2.022   4.328
19717WAT      O59392   6.165   4.625   8.882
19717WAT     H159393   6.131   4.540   8.842
19717WAT     H259394   6.210   4.606   8.969
19718WAT      O59395   4.242   3.900   2.882
19718WAT     H159396   4.283   3.941   2.801
19718WAT     H259397   4.258   3.801   2.881
19719WAT      O59398   3.364   9.329   0.225
19719WAT     H159399   3.336   9.287   0.139
19719WAT     H259400   3.432   9.400   0.207
19720WAT      O59401   8.101   1.501   3.973
19720WAT     H159402   8.059   1.486   3.883
19720WAT     H259403   8.095   1.598   3.997
19721WAT      O59404   4.241   8.637   8.817
19721WAT     H159405   4.161   8.697   8.823
19721WAT     H259406   4.249   8.601   8.724
19722WAT      O59407   4.956   9.417   7.379
19722WAT     H159408   4.880   9.477   7.354
19722WAT     H259409   5.027   9.471   7.425
19723WAT      O59410   3.439   8.828   5.148
19723WAT     H159411   3.392   8.915   5.133
19723WAT     H259412   3.375   8.759   5.180
19724WAT      O59413   1.799   9.215   7.446
19724WAT     H159414   1.778   9.303   7.403
19724WAT     H259415   1.898   9.202   7.448
19725WAT      O59416   3.176   5.980   9.590
19725WAT     H159417   3.139   5.982   9.683
19725WAT     H259418   3.256   6.040   9.585
19726WAT      O59419   7.369   6.095   9.019
19726WAT     H159420   7.323   6.175   9.056
19726WAT     H259421   7.352   6.016   9.077
19727WAT      O59422   0.289   0.908   0.155
19727WAT     H159423   0.273   0.865   0.244
19727WAT     H259424   0.381   0.886   0.123
19728WAT      O59425   6.344   9.506   9.007
19728WAT     H159426   6.443   9.517   9.018
19728WAT     H259427   6.310   9.576   8.944
19729WAT      O59428   8.202   5.727   5.296
19729WAT     H159429   8.255   5.680   5.367
19729WAT     H259430   8.250   5.810   5.269
19730WAT      O59431   7.380   6.889   2.698
19730WAT     H159432   7.402   6.946   2.619
19730WAT     H259433   7.458   6.831   2.719
19731WAT      O59434   7.790   3.343   7.231
19731WAT     H159435   7.793   3.250   7.266
19731WAT     H259436   7.817   3.344   7.135
19732WAT      O59437   5.537   9.524   3.871
19732WAT     H159438   5.549   9.621   3.892
19732WAT     H259439   5.623   9.476   3.887
19733WAT      O59440   4.804   6.660   3.894
19733WAT     H159441   4.838   6.752   3.914
19733WAT     H259442   4.842   6.629   3.807
19734WAT      O59443   9.096   5.825   6.179
19734WAT     H159444   9.172   5.890   6.174
19734WAT     H259445   9.019   5.859   6.125
19735WAT      O59446   0.083   3.217   6.379
19735WAT     H159447   0.077   3.295   6.442
19735WAT     H259448   0.027   3.236   6.298
19736WAT      O59449   0.508   0.871   7.767
19736WAT     H159450   0.513   0.861   7.866
19736WAT     H259451   0.593   0.835   7.726
19737WAT      O59452   7.520   8.817   9.699
19737WAT     H159453   7.512   8.876   9.779
19737WAT     H259454   7.609   8.771   9.701
19738WAT      O59455   4.634   6.011   0.862
19738WAT     H159456   4.558   6.072   0.887
19738WAT     H259457   4.650   5.946   0.936
19739WAT      O59458   3.304   7.808   2.875
19739WAT     H159459   3.245   7.826   2.954
19739WAT     H259460   3.335   7.713   2.878
19740WAT      O59461   0.192   3.746   0.982
19740WAT     H159462   0.176   3.824   1.042
19740WAT     H259463   0.253   3.773   0.907
19741WAT      O59464   1.045   4.342   7.977
19741WAT     H159465   1.105   4.279   8.025
19741WAT     H259466   1.011   4.300   7.893
19742WAT      O59467   2.763   8.410   0.387
19742WAT     H159468   2.766   8.510   0.388
19742WAT     H259469   2.668   8.380   0.377
19743WAT      O59470   2.575   7.673   9.537
19743WAT     H159471   2.500   7.738   9.545
19743WAT     H259472   2.572   7.608   9.612
19744WAT      O59473   1.144   3.826   4.683
19744WAT     H159474   1.194   3.782   4.757
19744WAT     H259475   1.114   3.756   4.618
19745WAT      O59476   2.345   1.621   5.776
19745WAT     H159477   2.380   1.711   5.803
19745WAT     H259478   2.298   1.579   5.854
19746WAT      O59479   8.866   6.872   9.424
19746WAT     H159480   8.940   6.809   9.446
19746WAT     H259481   8.863   6.886   9.325
19747WAT      O59482   9.575   9.471   5.101
19747WAT     H159483   9.590   9.521   5.016
19747WAT     H259484   9.621   9.518   5.176
19748WAT      O59485   2.234   8.092   5.218
19748WAT     H159486   2.166   8.042   5.165
19748WAT     H259487   2.287   8.028   5.273
19749WAT      O59488   9.510   8.320   6.356
19749WAT     H159489   9.506   8.372   6.441
19749WAT     H259490   9.445   8.245   6.359
19750WAT      O59491   4.980   6.717   9.701
19750WAT     H159492   4.985   6.631   9.649
19750WAT     H259493   4.913   6.778   9.659
19751WAT      O59494   8.768   0.270   0.935
19751WAT     H159495   8.861   0.279   0.972
19751WAT     H259496   8.757   0.330   0.856
19752WAT      O59497   0.422   2.901   8.704
19752WAT     H159498   0.393   2.990   8.669
19752WAT     H259499   0.498   2.867   8.649
19753WAT      O59500   8.072   4.677   5.381
19753WAT     H159501   8.084   4.741   5.457
19753WAT     H259502   7.998   4.709   5.322
19754WAT      O59503   3.184   0.205   8.017
19754WAT     H159504   3.111   0.233   8.079
19754WAT     H259505   3.257   0.160   8.069
19755WAT      O59506   8.193   1.313   6.648
19755WAT     H159507   8.206   1.339   6.744
19755WAT     H259508   8.142   1.384   6.600
19756WAT      O59509   4.990   8.478   8.542
19756WAT     H159510   4.995   8.387   8.501
19756WAT     H259511   4.942   8.540   8.480
19757WAT      O59512   6.832   7.900   6.726
19757WAT     H159513   6.747   7.947   6.750
19757WAT     H259514   6.811   7.805   6.702
19758WAT      O59515   1.215   5.056   7.635
19758WAT     H159516   1.264   4.979   7.675
19758WAT     H259517   1.240   5.141   7.682
19759WAT      O59518   5.580   5.619   7.062
19759WAT     H159519   5.501   5.677   7.076
19759WAT     H259520   5.596   5.564   7.144
19760WAT      O59521   1.567   5.730   6.718
19760WAT     H159522   1.647   5.671   6.706
19760WAT     H259523   1.515   5.732   6.633
19761WAT      O59524   4.392   6.790   8.661
19761WAT     H159525   4.380   6.709   8.718
19761WAT     H259526   4.480   6.833   8.681
19762WAT      O59527   3.919   6.496   4.567
19762WAT     H159528   3.868   6.497   4.653
19762WAT     H259529   3.940   6.402   4.541
19763WAT      O59530   7.920   7.392   6.816
19763WAT     H159531   7.950   7.399   6.912
19763WAT     H259532   7.842   7.330   6.811
19764WAT      O59533   2.107   5.865   5.312
19764WAT     H159534   2.128   5.808   5.232
19764WAT     H259535   2.140   5.958   5.296
19765WAT      O59536   6.327   7.700   8.498
19765WAT     H159537   6.396   7.772   8.501
19765WAT     H259538   6.290   7.692   8.406
19766WAT      O59539   3.197   0.558   1.020
19766WAT     H159540   3.213   0.463   0.992
19766WAT     H259541   3.135   0.601   0.955
19767WAT      O59542   8.054   1.712   3.277
19767WAT     H159543   7.998   1.638   3.314
19767WAT     H259544   8.035   1.797   3.327
19768WAT      O59545   0.740   9.836   8.520
19768WAT     H159546   0.683   9.908   8.480
19768WAT     H259547   0.802   9.877   8.587
19769WAT      O59548   2.772   9.779   6.706
19769WAT     H159549   2.766   9.681   6.722
19769WAT     H259550   2.686   9.813   6.669
19770WAT      O59551   2.663   9.414   7.319
19770WAT     H159552   2.715   9.337   7.281
19770WAT     H259553   2.725   9.489   7.342
19771WAT      O59554   9.027   5.105   5.821
19771WAT     H159555   9.063   5.070   5.908
19771WAT     H259556   9.021   5.030   5.755
19772WAT      O59557   3.117   2.425   7.333
19772WAT     H159558   3.161   2.335   7.339
19772WAT     H259559   3.083   2.440   7.240
19773WAT      O59560   7.492   0.959   1.785
19773WAT     H159561   7.591   0.967   1.797
19773WAT     H259562   7.466   1.002   1.699
19774WAT      O59563   6.436   6.900   8.089
19774WAT     H159564   6.467   6.807   8.068
19774WAT     H259565   6.499   6.966   8.048
19775WAT      O59566   6.957   5.195   6.368
19775WAT     H159567   6.983   5.249   6.448
19775WAT     H259568   6.869   5.227   6.332
19776WAT      O59569   3.821   8.965   3.989
19776WAT     H159570   3.734   8.958   4.038
19776WAT     H259571   3.862   9.055   4.008
19777WAT      O59572   7.262   4.972   2.420
19777WAT     H159573   7.203   5.052   2.434
19777WAT     H259574   7.216   4.908   2.358
19778WAT      O59575   8.264   3.642   3.945
19778WAT     H159576   8.194   3.713   3.941
19778WAT     H259577   8.252   3.579   3.868
19779WAT      O59578   7.006   6.934   3.963
19779WAT     H159579   7.058   6.987   4.030
19779WAT     H259580   7.033   6.837   3.970
19780WAT      O59581   5.535   7.040   5.451
19780WAT     H159582   5.509   7.087   5.535
19780WAT     H259583   5.495   6.948   5.450
19781WAT      O59584   9.818   7.881   7.575
19781WAT     H159585   9.779   7.966   7.609
19781WAT     H259586   9.885   7.846   7.641
19782WAT      O59587   6.610   4.604   8.961
19782WAT     H159588   6.575   4.558   8.880
19782WAT     H259589   6.669   4.541   9.012
19783WAT      O59590   0.481   2.471   7.314
19783WAT     H159591   0.557   2.520   7.270
19783WAT     H259592   0.439   2.409   7.249
19784WAT      O59593   9.292   6.580   3.997
19784WAT     H159594   9.289   6.648   4.070
19784WAT     H259595   9.335   6.621   3.916
19785WAT      O59596   6.059   1.979   5.367
19785WAT     H159597   5.991   2.003   5.437
19785WAT     H259598   6.150   1.980   5.408
19786WAT      O59599   0.185   1.113   3.526
19786WAT     H159600   0.112   1.063   3.479
19786WAT     H259601   0.220   1.058   3.601
19787WAT      O59602   4.814   7.111   3.753
19787WAT     H159603   4.843   7.136   3.660
19787WAT     H259604   4.714   7.112   3.758
19788WAT      O59605   7.868   8.902   4.217
19788WAT     H159606   7.965   8.924   4.204
19788WAT     H259607   7.843   8.917   4.312
19789WAT      O59608   1.163   8.810   2.566
19789WAT     H159609   1.182   8.783   2.661
19789WAT     H259610   1.248   8.809   2.514
19790WAT      O59611   2.495   4.250   3.755
19790WAT     H159612   2.502   4.160   3.710
19790WAT     H259613   2.513   4.239   3.853
19791WAT      O59614   9.361   5.925   0.758
19791WAT     H159615   9.341   5.928   0.660
19791WAT     H259616   9.460   5.922   0.772
19792WAT      O59617   2.017   8.755   7.202
19792WAT     H159618   2.022   8.816   7.281
19792WAT     H259619   2.086   8.782   7.134
19793WAT      O59620   3.892   0.846   3.300
19793WAT     H159621   3.917   0.927   3.354
19793WAT     H259622   3.892   0.869   3.203
19794WAT      O59623   9.521   2.944   3.088
19794WAT     H159624   9.546   2.897   3.003
19794WAT     H259625   9.422   2.957   3.091
19795WAT      O59626   0.198   2.620   7.259
19795WAT     H159627   0.252   2.621   7.175
19795WAT     H259628   0.253   2.656   7.334
19796WAT      O59629   1.773   0.162   1.035
19796WAT     H159630   1.807   0.089   0.976
19796WAT     H259631   1.683   0.136   1.070
19797WAT      O59632   2.585   0.139   5.984
19797WAT     H159633   2.637   0.081   5.921
19797WAT     H259634   2.491   0.104   5.992
19798WAT      O59635   5.834   4.273   3.730
19798WAT     H159636   5.824   4.259   3.631
19798WAT     H259637   5.909   4.216   3.764
19799WAT      O59638   9.233   5.943   7.656
19799WAT     H159639   9.192   5.872   7.598
19799WAT     H259640   9.300   5.995   7.602
19800WAT      O59641   6.947   3.283   1.944
19800WAT     H159642   6.928   3.376   1.975
19800WAT     H259643   6.963   3.283   1.845
19801WAT      O59644   6.277   8.566   7.572
19801WAT     H159645   6.221   8.643   7.604
19801WAT     H259646   6.222   8.509   7.511
19802WAT      O59647   0.507   2.399   2.413
19802WAT     H159648   0.536   2.369   2.503
19802WAT     H259649   0.464   2.323   2.364
19803WAT      O59650   1.816   4.475   6.779
19803WAT     H159651   1.845   4.409   6.848
19803WAT     H259652   1.742   4.435   6.724
19804WAT      O59653   5.580   7.135   0.424
19804WAT     H159654   5.526   7.219   0.418
19804WAT     H259655   5.577   7.088   0.336
19805WAT      O59656   8.582   6.006   0.610
19805WAT     H159657   8.499   5.956   0.587
19805WAT     H259658   8.584   6.023   0.709
19806WAT      O59659   3.621   2.084   3.493
19806WAT     H159660   3.562   2.075   3.574
19806WAT     H259661   3.594   2.166   3.442
19807WAT      O59662   7.556   8.716   4.714
19807WAT     H159663   7.463   8.696   4.685
19807WAT     H259664   7.591   8.793   4.661
19808WAT      O59665   5.523   4.460   7.666
19808WAT     H159666   5.570   4.496   7.585
19808WAT     H259667   5.582   4.469   7.746
19809WAT      O59668   3.529   3.353   0.781
19809WAT     H159669   3.496   3.396   0.697
19809WAT     H259670   3.461   3.288   0.814
19810WAT      O59671   0.782   4.350   2.204
19810WAT     H159672   0.825   4.296   2.132
19810WAT     H259673   0.797   4.447   2.186
19811WAT      O59674   0.531   7.272   8.663
19811WAT     H159675   0.444   7.226   8.678
19811WAT     H259676   0.597   7.209   8.621
19812WAT      O59677   5.680   1.754   8.788
19812WAT     H159678   5.774   1.789   8.791
19812WAT     H259679   5.681   1.661   8.750
19813WAT      O59680   9.631   1.156   0.431
19813WAT     H159681   9.626   1.251   0.399
19813WAT     H259682   9.636   1.155   0.531
19814WAT      O59683   0.720   3.033   0.458
19814WAT     H159684   0.628   3.062   0.484
19814WAT     H259685   0.784   3.051   0.533
19815WAT      O59686   6.665   6.155   0.150
19815WAT     H159687   6.602   6.106   0.210
19815WAT     H259688   6.754   6.166   0.196
19816WAT      O59689   9.074   1.964   8.192
19816WAT     H159690   8.976   1.974   8.206
19816WAT     H259691   9.122   2.000   8.272
19817WAT      O59692   9.775   2.637   4.885
19817WAT     H159693   9.729   2.548   4.884
19817WAT     H259694   9.868   2.628   4.849
19818WAT      O59695   9.350   4.200   2.888
19818WAT     H159696   9.336   4.141   2.967
19818WAT     H259697   9.442   4.187   2.852
19819WAT      O59698   6.885   8.898   3.924
19819WAT     H159699   6.809   8.846   3.963
19819WAT     H259700   6.918   8.852   3.841
19820WAT      O59701   9.369   1.842   1.380
19820WAT     H159702   9.344   1.859   1.476
19820WAT     H259703   9.456   1.792   1.377
19821WAT      O59704   0.055   6.850   1.087
19821WAT     H159705  -0.021   6.910   1.111
19821WAT     H259706   0.141   6.888   1.122
19822WAT      O59707   2.096   4.901   3.068
19822WAT     H159708   2.052   4.813   3.049
19822WAT     H259709   2.029   4.974   3.058
19823WAT      O59710   9.473   0.453   5.564
19823WAT     H159711   9.556   0.447   5.509
19823WAT     H259712   9.483   0.526   5.631
19824WAT      O59713   1.701   1.246   1.416
19824WAT     H159714   1.795   1.214   1.407
19824WAT     H259715   1.638   1.174   1.386
19825WAT      O59716   5.507   2.196   3.646
19825WAT     H159717   5.568   2.254   3.700
19825WAT     H259718   5.560   2.125   3.600
19826WAT      O59719   0.011   3.565   8.602
19826WAT     H159720  -0.058   3.635   8.620
19826WAT     H259721  -0.019   3.478   8.641
19827WAT      O59722   8.197   6.031   5.035
19827WAT     H159723   8.226   5.937   5.014
19827WAT     H259724   8.232   6.058   5.125
19828WAT      O59725   8.532   6.119   8.958
19828WAT     H159726   8.617   6.104   9.008
19828WAT     H259727   8.454   6.110   9.021
19829WAT      O59728   2.197   4.761   7.301
19829WAT     H159729   2.245   4.787   7.217
19829WAT     H259730   2.257   4.774   7.380
19830WAT      O59731   8.614   2.792   3.371
19830WAT     H159732   8.633   2.881   3.328
19830WAT     H259733   8.541   2.746   3.320
19831WAT      O59734   7.966   0.822   7.391
19831WAT     H159735   8.022   0.899   7.361
19831WAT     H259736   7.908   0.851   7.467
19832WAT      O59737   0.817   9.185   2.412
19832WAT     H159738   0.896   9.144   2.457
19832WAT     H259739   0.746   9.204   2.479
19833WAT      O59740   7.261   7.157   2.297
19833WAT     H159741   7.185   7.093   2.299
19833WAT     H259742   7.228   7.249   2.278
19834WAT      O59743   7.846   0.029   0.801
19834WAT     H159744   7.928   0.056   0.852
19834WAT     H259745   7.854  -0.067   0.773
19835WAT      O59746   4.039   6.824   6.391
19835WAT     H159747   4.136   6.829   6.414
19835WAT     H259748   4.003   6.735   6.419
19836WAT      O59749   8.796   7.790   6.611
19836WAT     H159750   8.774   7.769   6.516
19836WAT     H259751   8.713   7.781   6.666
19837WAT      O59752   8.597   8.611   8.805
19837WAT     H159753   8.641   8.521   8.806
19837WAT     H259754   8.627   8.662   8.725
19838WAT      O59755   1.298   2.650   1.336
19838WAT     H159756   1.243   2.568   1.323
19838WAT     H259757   1.275   2.692   1.424
19839WAT      O59758   8.498   8.517   6.161
19839WAT     H159759   8.411   8.470   6.175
19839WAT     H259760   8.540   8.538   6.249
19840WAT      O59761   5.322   8.422   7.238
19840WAT     H159762   5.314   8.356   7.164
19840WAT     H259763   5.410   8.409   7.285
19841WAT      O59764   0.238   3.337   5.076
19841WAT     H159765   0.149   3.315   5.117
19841WAT     H259766   0.279   3.414   5.124
19842WAT      O59767   4.122   6.646   4.340
19842WAT     H159768   4.067   6.588   4.401
19842WAT     H259769   4.217   6.644   4.371
19843WAT      O59770   0.863   2.646   6.260
19843WAT     H159771   0.833   2.731   6.217
19843WAT     H259772   0.786   2.582   6.265
19844WAT      O59773   5.170   3.357   2.234
19844WAT     H159774   5.257   3.315   2.208
19844WAT     H259775   5.176   3.391   2.328
19845WAT      O59776   8.312   2.787   6.604
19845WAT     H159777   8.346   2.816   6.515
19845WAT     H259778   8.353   2.843   6.676
19846WAT      O59779   4.376   1.790   0.218
19846WAT     H159780   4.350   1.708   0.168
19846WAT     H259781   4.294   1.838   0.249
19847WAT      O59782   8.219   1.650   5.271
19847WAT     H159783   8.221   1.558   5.311
19847WAT     H259784   8.162   1.709   5.328
19848WAT      O59785   8.478   3.974   4.504
19848WAT     H159786   8.512   3.964   4.410
19848WAT     H259787   8.431   4.062   4.512
19849WAT      O59788   7.614   0.724   0.734
19849WAT     H159789   7.701   0.678   0.747
19849WAT     H259790   7.568   0.687   0.654
19850WAT      O59791   6.908   5.396   1.633
19850WAT     H159792   6.919   5.366   1.538
19850WAT     H259793   6.991   5.377   1.684
19851WAT      O59794   1.778   8.367   2.792
19851WAT     H159795   1.753   8.278   2.753
19851WAT     H259796   1.698   8.426   2.795
19852WAT      O59797   2.456   0.758   4.696
19852WAT     H159798   2.374   0.773   4.750
19852WAT     H259799   2.506   0.680   4.733
19853WAT      O59800   4.439   8.117   8.904
19853WAT     H159801   4.461   8.215   8.902
19853WAT     H259802   4.512   8.067   8.949
19854WAT      O59803   3.713   0.868   5.382
19854WAT     H159804   3.730   0.817   5.466
19854WAT     H259805   3.657   0.812   5.321
19855WAT      O59806   2.731   7.007   5.623
19855WAT     H159807   2.691   6.974   5.708
19855WAT     H259808   2.770   6.930   5.572
19856WAT      O59809   9.575   7.809   8.881
19856WAT     H159810   9.610   7.776   8.969
19856WAT     H259811   9.560   7.732   8.819
19857WAT      O59812   3.580   9.094   6.116
19857WAT     H159813   3.596   9.192   6.103
19857WAT     H259814   3.481   9.076   6.112
19858WAT      O59815   2.765   4.044   0.428
19858WAT     H159816   2.726   4.017   0.516
19858WAT     H259817   2.691   4.068   0.365
19859WAT      O59818   5.020   6.006   0.248
19859WAT     H159819   5.037   5.912   0.278
19859WAT     H259820   5.079   6.069   0.299
19860WAT      O59821   6.732   1.026   2.157
19860WAT     H159822   6.686   1.071   2.234
19860WAT     H259823   6.743   0.929   2.177
19861WAT      O59824   4.096   1.434   6.820
19861WAT     H159825   4.050   1.372   6.755
19861WAT     H259826   4.161   1.491   6.770
19862WAT      O59827   5.150   6.792   7.067
19862WAT     H159828   5.108   6.731   7.134
19862WAT     H259829   5.084   6.812   6.994
19863WAT      O59830   3.706   3.725   9.786
19863WAT     H159831   3.622   3.725   9.841
19863WAT     H259832   3.730   3.632   9.760
19864WAT      O59833   8.000   8.892   1.956
19864WAT     H159834   8.021   8.986   1.933
19864WAT     H259835   8.038   8.830   1.887
19865WAT      O59836   6.829   4.704   1.063
19865WAT     H159837   6.729   4.699   1.064
19865WAT     H259838   6.867   4.639   1.129
19866WAT      O59839   0.427   1.187   4.994
19866WAT     H159840   0.524   1.175   4.974
19866WAT     H259841   0.407   1.151   5.086
19867WAT      O59842   3.515   0.102   0.376
19867WAT     H159843   3.478   0.009   0.379
19867WAT     H259844   3.454   0.163   0.428
19868WAT      O59845   5.524   8.231   6.050
19868WAT     H159846   5.427   8.255   6.049
19868WAT     H259847   5.575   8.297   5.995
19869WAT      O59848   8.213   9.118   1.213
19869WAT     H159849   8.204   9.038   1.273
19869WAT     H259850   8.141   9.115   1.144
19870WAT      O59851   1.676   2.618   7.254
19870WAT     H159852   1.593   2.582   7.296
19870WAT     H259853   1.662   2.713   7.229
19871WAT      O59854   8.767   8.088   5.109
19871WAT     H159855   8.764   8.058   5.204
19871WAT     H259856   8.793   8.184   5.105
19872WAT      O59857   7.021   3.201   8.758
19872WAT     H159858   6.993   3.188   8.853
19872WAT     H259859   6.954   3.160   8.697
19873WAT      O59860   1.104   0.466   6.274
19873WAT     H159861   1.076   0.530   6.346
19873WAT     H259862   1.138   0.382   6.316
19874WAT      O59863   5.179   6.199   1.044
19874WAT     H159864   5.217   6.218   1.135
19874WAT     H259865   5.193   6.102   1.022
19875WAT      O59866  -0.003   7.523   7.966
19875WAT     H159867   0.027   7.512   8.061
19875WAT     H259868   0.059   7.473   7.906
19876WAT      O59869   5.224   6.776   5.688
19876WAT     H159870   5.217   6.688   5.736
19876WAT     H259871   5.157   6.779   5.614
19877WAT      O59872   2.727   6.835   2.132
19877WAT     H159873   2.644   6.818   2.079
19877WAT     H259874   2.711   6.909   2.197
19878WAT      O59875   5.824   0.885   5.695
19878WAT     H159876   5.759   0.909   5.623
19878WAT     H259877   5.785   0.813   5.752
19879WAT      O59878   9.469   5.177   5.536
19879WAT     H159879   9.498   5.090   5.577
19879WAT     H259880   9.399   5.159   5.466
19880WAT      O59881   5.704   1.814   0.545
19880WAT     H159882   5.714   1.808   0.446
19880WAT     H259883   5.646   1.740   0.578
19881WAT      O59884   0.580   8.735   1.736
19881WAT     H159885   0.552   8.703   1.645
19881WAT     H259886   0.610   8.657   1.791
19882WAT      O59887   4.198   3.077   8.919
19882WAT     H159888   4.253   3.078   8.836
19882WAT     H259889   4.109   3.120   8.901
19883WAT      O59890   1.674   9.245   6.344
19883WAT     H159891   1.621   9.195   6.412
19883WAT     H259892   1.636   9.337   6.331
19884WAT      O59893   4.275   2.840   6.073
19884WAT     H159894   4.267   2.832   5.974
19884WAT     H259895   4.321   2.926   6.096
19885WAT      O59896   3.371   6.140   8.364
19885WAT     H159897   3.305   6.119   8.292
19885WAT     H259898   3.409   6.231   8.349
19886WAT      O59899   0.949   9.677   7.388
19886WAT     H159900   1.023   9.708   7.447
19886WAT     H259901   0.949   9.731   7.304
19887WAT      O59902   7.938   5.988   3.820
19887WAT     H159903   7.975   5.897   3.801
19887WAT     H259904   7.945   6.044   3.738
19888WAT      O59905   6.031   5.407   6.151
19888WAT     H159906   6.056   5.467   6.228
19888WAT     H259907   6.111   5.394   6.092
19889WAT      O59908   4.573   6.757   0.331
19889WAT     H159909   4.613   6.844   0.362
19889WAT     H259910   4.618   6.729   0.246
19890WAT      O59911   4.259   1.795   7.311
19890WAT     H159912   4.319   1.838   7.242
19890WAT     H259913   4.306   1.718   7.353
19891WAT      O59914   0.121   5.802   8.847
19891WAT     H159915   0.100   5.872   8.914
19891WAT     H259916   0.201   5.829   8.794
19892WAT      O59917   2.884   9.709   8.287
19892WAT     H159918   2.941   9.723   8.368
19892WAT     H259919   2.821   9.786   8.277
19893WAT      O59920   7.536   8.560   6.489
19893WAT     H159921   7.574   8.511   6.567
19893WAT     H259922   7.468   8.626   6.521
19894WAT      O59923   5.859   7.934   0.875
19894WAT     H159924   5.948   7.952   0.917
19894WAT     H259925   5.851   7.989   0.792
19895WAT      O59926   6.335   9.776   2.595
19895WAT     H159927   6.355   9.872   2.616
19895WAT     H259928   6.363   9.756   2.501
19896WAT      O59929   6.704   3.478   2.956
19896WAT     H159930   6.737   3.387   2.932
19896WAT     H259931   6.616   3.471   3.002
19897WAT      O59932   8.840   4.289   2.965
19897WAT     H159933   8.850   4.193   2.990
19897WAT     H259934   8.744   4.308   2.944
19898WAT      O59935   2.923   5.752   3.300
19898WAT     H159936   2.904   5.654   3.303
19898WAT     H259937   2.836   5.802   3.291
19899WAT      O59938   0.383   3.120   5.078
19899WAT     H159939   0.472   3.162   5.061
19899WAT     H259940   0.312   3.191   5.079
19900WAT      O59941   5.642   3.185   9.415
19900WAT     H159942   5.616   3.273   9.454
19900WAT     H259943   5.561   3.127   9.406
19901WAT      O59944   4.220   2.838   4.497
19901WAT     H159945   4.129   2.802   4.475
19901WAT     H259946   4.232   2.927   4.453
19902WAT      O59947   9.669   2.129   5.170
19902WAT     H159948   9.694   2.047   5.221
19902WAT     H259949   9.570   2.131   5.157
19903WAT      O59950   2.151   7.181   1.056
19903WAT     H159951   2.220   7.119   1.018
19903WAT     H259952   2.189   7.273   1.062
19904WAT      O59953   9.724   0.611   0.346
19904WAT     H159954   9.800   0.676   0.345
19904WAT     H259955   9.671   0.622   0.430
19905WAT      O59956   9.031   2.137   3.727
19905WAT     H159957   9.092   2.100   3.797
19905WAT     H259958   9.037   2.080   3.645
19906WAT      O59959   0.545   2.531   6.289
19906WAT     H159960   0.476   2.464   6.315
19906WAT     H259961   0.549   2.604   6.358
19907WAT      O59962   6.583   9.712   7.488
19907WAT     H159963   6.659   9.755   7.439
19907WAT     H259964   6.618   9.660   7.566
19908WAT      O59965   5.436   0.626   2.436
19908WAT     H159966   5.342   0.650   2.411
19908WAT     H259967   5.442   0.615   2.535
19909WAT      O59968   1.903   3.293   8.849
19909WAT     H159969   1.997   3.312   8.820
19909WAT     H259970   1.859   3.378   8.878
19910WAT      O59971   5.577   6.165   4.153
19910WAT     H159972   5.537   6.076   4.134
19910WAT     H259973   5.676   6.160   4.146
19911WAT      O59974   7.499   0.483   8.811
19911WAT     H159975   7.474   0.494   8.907
19911WAT     H259976   7.595   0.455   8.805
19912WAT      O59977   4.249   1.659   8.764
19912WAT     H159978   4.194   1.712   8.699
19912WAT     H259979   4.325   1.615   8.716
19913WAT      O59980   5.168   6.072   2.873
19913WAT     H159981   5.136   6.150   2.927
19913WAT     H259982   5.093   6.037   2.817
19914WAT      O59983   1.089   0.022   6.782
19914WAT     H159984   1.187   0.031   6.795
19914WAT     H259985   1.063  -0.074   6.784
19915WAT      O59986   7.908   0.262   2.100
19915WAT     H159987   8.002   0.289   2.123
19915WAT     H259988   7.880   0.308   2.016
19916WAT      O59989   3.816   8.789   7.671
19916WAT     H159990   3.832   8.811   7.767
19916WAT     H259991   3.722   8.815   7.646
19917WAT      O59992   7.816   7.588   9.275
19917WAT     H159993   7.895   7.649   9.262
19917WAT     H259994   7.849   7.495   9.289
19918WAT      O59995   3.663   9.799   5.510
19918WAT     H159996   3.593   9.868   5.496
19918WAT     H259997   3.645   9.721   5.450
19919WAT      O59998   5.097   2.300   2.994
19919WAT     H159999   5.173   2.275   3.053
19919WAT     H260000   5.106   2.255   2.905
19920WAT      O60001   8.712   7.495   4.705
19920WAT     H160002   8.799   7.452   4.682
19920WAT     H260003   8.646   7.425   4.731
19921WAT      O60004   3.541   3.026   2.335
19921WAT     H160005   3.595   2.967   2.275
19921WAT     H260006   3.584   3.029   2.426
19922WAT      O60007   5.240   0.216   1.024
19922WAT     H160008   5.144   0.190   1.020
19922WAT     H260009   5.292   0.164   0.956
19923WAT      O60010   1.616   1.508   1.241
19923WAT     H160011   1.520   1.517   1.213
19923WAT     H260012   1.653   1.421   1.209
19924WAT      O60013   3.034   8.038   5.935
19924WAT     H160014   2.983   8.110   5.982
19924WAT     H260015   3.028   8.053   5.836
19925WAT      O60016   8.387   6.900   2.544
19925WAT     H160017   8.453   6.854   2.484
19925WAT     H260018   8.390   6.998   2.526
19926WAT      O60019   9.506   8.611   3.974
19926WAT     H160020   9.455   8.525   3.967
19926WAT     H260021   9.465   8.668   4.045
19927WAT      O60022   7.011   8.713   4.399
19927WAT     H160023   7.051   8.621   4.400
19927WAT     H260024   6.913   8.707   4.379
19928WAT      O60025   4.805   8.603   8.378
19928WAT     H160026   4.794   8.681   8.316
19928WAT     H260027   4.787   8.518   8.328
19929WAT      O60028   8.622   8.148   4.261
19929WAT     H160029   8.698   8.091   4.230
19929WAT     H260030   8.557   8.161   4.186
19930WAT      O60031   9.470   8.495   2.021
19930WAT     H160032   9.383   8.450   2.002
19930WAT     H260033   9.454   8.592   2.042
19931WAT      O60034   2.259   3.060   5.824
19931WAT     H160035   2.306   2.975   5.847
19931WAT     H260036   2.326   3.131   5.803
19932WAT      O60037   5.482   5.568   0.739
19932WAT     H160038   5.429   5.585   0.655
19932WAT     H260039   5.422   5.531   0.809
19933WAT      O60040   6.142   9.145   4.610
19933WAT     H160041   6.211   9.094   4.662
19933WAT     H260042   6.187   9.198   4.539
19934WAT      O60043   5.850   6.372   4.033
19934WAT     H160044   5.896   6.461   4.025
19934WAT     H260045   5.817   6.345   3.943
19935WAT      O60046   7.159   6.050   0.271
19935WAT     H160047   7.248   6.093   0.258
19935WAT     H260048   7.164   5.984   0.346
19936WAT      O60049   0.199   8.810   5.964
19936WAT     H160050   0.156   8.899   5.977
19936WAT     H260051   0.202   8.788   5.866
19937WAT      O60052   7.734   7.774   0.067
19937WAT     H160053   7.635   7.788   0.076
19937WAT     H260054   7.761   7.694   0.121
19938WAT      O60055   2.524   6.482   8.922
19938WAT     H160056   2.487   6.503   8.831
19938WAT     H260057   2.590   6.552   8.948
19939WAT      O60058   1.832   7.810   9.720
19939WAT     H160059   1.912   7.862   9.751
19939WAT     H260060   1.793   7.761   9.798
19940WAT      O60061   0.183   0.547   8.602
19940WAT     H160062   0.282   0.544   8.615
19940WAT     H260063   0.137   0.530   8.688
19941WAT      O60064   8.344   2.933   2.943
19941WAT     H160065   8.359   2.987   3.026
19941WAT     H260066   8.393   2.976   2.867
19942WAT      O60067   9.301   5.275   5.886
19942WAT     H160068   9.238   5.197   5.883
19942WAT     H260069   9.251   5.359   5.866
19943WAT      O60070   4.616   9.670   5.592
19943WAT     H160071   4.676   9.726   5.650
19943WAT     H260072   4.556   9.730   5.539
19944WAT      O60073   7.603   9.090   3.649
19944WAT     H160074   7.583   8.992   3.639
19944WAT     H260075   7.689   9.102   3.699
19945WAT      O60076   9.696   6.174   4.340
19945WAT     H160077   9.596   6.174   4.347
19945WAT     H260078   9.730   6.268   4.344
19946WAT      O60079   3.420   5.641   7.389
19946WAT     H160080   3.424   5.555   7.439
19946WAT     H260081   3.482   5.637   7.310
19947WAT      O60082   4.356   8.836   3.058
19947WAT     H160083   4.412   8.895   3.116
19947WAT     H260084   4.412   8.799   2.984
19948WAT      O60085   1.688   8.687   4.086
19948WAT     H160086   1.599   8.723   4.114
19948WAT     H260087   1.699   8.594   4.121
19949WAT      O60088   7.613   4.447   4.884
19949WAT     H160089   7.647   4.459   4.977
19949WAT     H260090   7.569   4.357   4.876
19950WAT      O60091   9.673   0.962   6.831
19950WAT     H160092   9.700   1.023   6.906
19950WAT     H260093   9.659   1.016   6.748
19951WAT      O60094   1.546   9.827   8.050
19951WAT     H160095   1.576   9.824   8.146
19951WAT     H260096   1.480   9.901   8.038
19952WAT      O60097   1.712   2.588   8.975
19952WAT     H160098   1.701   2.505   9.030
19952WAT     H260099   1.655   2.582   8.893
19953WAT      O60100   1.266   2.584   5.946
19953WAT     H160101   1.209   2.582   5.864
19953WAT     H260102   1.331   2.660   5.939
19954WAT      O60103   8.468   6.284   6.769
19954WAT     H160104   8.385   6.257   6.720
19954WAT     H260105   8.444   6.331   6.854
19955WAT      O60106   1.091   2.117   0.410
19955WAT     H160107   1.059   2.185   0.345
19955WAT     H260108   1.062   2.026   0.380
19956WAT      O60109   1.539   1.722   8.910
19956WAT     H160110   1.606   1.791   8.938
19956WAT     H260111   1.505   1.745   8.819
19957WAT      O60112   0.269   4.138   0.778
19957WAT     H160113   0.267   4.111   0.874
19957WAT     H260114   0.226   4.227   0.767
19958WAT      O60115   3.354   7.655   0.283
19958WAT     H160116   3.434   7.708   0.311
19958WAT     H260117   3.384   7.566   0.249
19959WAT      O60118   2.674   6.290   4.502
19959WAT     H160119   2.726   6.309   4.585
19959WAT     H260120   2.576   6.291   4.524
19960WAT      O60121   0.704   4.593   6.793
19960WAT     H160122   0.690   4.511   6.738
19960WAT     H260123   0.635   4.597   6.865
19961WAT      O60124   1.593   3.605   8.520
19961WAT     H160125   1.647   3.604   8.604
19961WAT     H260126   1.509   3.657   8.535
19962WAT      O60127   0.480   5.748   9.395
19962WAT     H160128   0.561   5.802   9.416
19962WAT     H260129   0.402   5.809   9.381
19963WAT      O60130   8.343   2.215   1.622
19963WAT     H160131   8.270   2.155   1.655
19963WAT     H260132   8.315   2.311   1.633
19964WAT      O60133   6.503   4.659   3.781
19964WAT     H160134   6.554   4.622   3.859
19964WAT     H260135   6.562   4.721   3.729
19965WAT      O60136   2.855   5.652   7.969
19965WAT     H160137   2.855   5.700   7.882
19965WAT     H260138   2.877   5.555   7.953
19966WAT      O60139   6.502   1.434   0.559
19966WAT     H160140   6.438   1.438   0.636
19966WAT     H260141   6.465   1.375   0.487
19967WAT      O60142   9.361   1.735   1.888
19967WAT     H160143   9.426   1.754   1.961
19967WAT     H260144   9.269   1.728   1.926
19968WAT      O60145   7.549   1.423   7.303
19968WAT     H160146   7.547   1.461   7.210
19968WAT     H260147   7.456   1.420   7.339
19969WAT      O60148   6.219   3.598   9.331
19969WAT     H160149   6.238   3.617   9.235
19969WAT     H260150   6.148   3.660   9.364
19970WAT      O60151   8.222   3.509   1.866
19970WAT     H160152   8.244   3.459   1.782
19970WAT     H260153   8.126   3.538   1.864
19971WAT      O60154   5.690   0.666   6.234
19971WAT     H160155   5.596   0.645   6.261
19971WAT     H260156   5.692   0.751   6.182
19972WAT      O60157   7.945   4.842   3.837
19972WAT     H160158   8.035   4.883   3.854
19972WAT     H260159   7.898   4.829   3.925
19973WAT      O60160   1.113   6.061   3.728
19973WAT     H160161   1.019   6.074   3.698
19973WAT     H260162   1.152   6.149   3.754
19974WAT      O60163   8.066   5.925   0.251
19974WAT     H160164   8.160   5.953   0.233
19974WAT     H260165   8.064   5.828   0.276
19975WAT      O60166   2.068   1.471   5.254
19975WAT     H160167   2.012   1.513   5.183
19975WAT     H260168   2.119   1.543   5.302
19976WAT      O60169   1.040   7.083   4.539
19976WAT     H160170   1.048   7.145   4.461
19976WAT     H260171   1.094   7.001   4.523
19977WAT      O60172   2.854   1.764   7.364
19977WAT     H160173   2.757   1.772   7.388
19977WAT     H260174   2.876   1.831   7.293
19978WAT      O60175   7.812   8.691   0.770
19978WAT     H160176   7.884   8.759   0.757
19978WAT     H260177   7.836   8.633   0.848
19979WAT      O60178   0.297   8.798   3.133
19979WAT     H160179   0.203   8.802   3.099
19979WAT     H260180   0.301   8.838   3.224
19980WAT      O60181   7.141   4.378   8.308
19980WAT     H160182   7.088   4.437   8.367
19980WAT     H260183   7.128   4.405   8.212
19981WAT      O60184   0.606   9.768   1.770
19981WAT     H160185   0.697   9.731   1.787
19981WAT     H260186   0.550   9.757   1.853
19982WAT      O60187   3.690   5.084   1.783
19982WAT     H160188   3.592   5.078   1.801
19982WAT     H260189   3.729   4.992   1.784
19983WAT      O60190   5.643   0.771   7.701
19983WAT     H160191   5.695   0.735   7.624
19983WAT     H260192   5.582   0.843   7.669
19984WAT      O60193   7.666   9.558   7.115
19984WAT     H160194   7.673   9.479   7.054
19984WAT     H260195   7.682   9.528   7.209
19985WAT      O60196   7.042   1.134   5.309
19985WAT     H160197   7.033   1.035   5.320
19985WAT     H260198   6.951   1.176   5.311
19986WAT      O60199   0.876   4.592   6.413
19986WAT     H160200   0.945   4.549   6.471
19986WAT     H260201   0.796   4.616   6.467
19987WAT      O60202   8.331   8.760   1.522
19987WAT     H160203   8.412   8.806   1.558
19987WAT     H260204   8.359   8.680   1.469
19988WAT      O60205   6.615   0.659   0.968
19988WAT     H160206   6.557   0.667   0.887
19988WAT     H260207   6.684   0.589   0.952
19989WAT      O60208   1.868   9.652   1.183
19989WAT     H160209   1.896   9.733   1.234
19989WAT     H260210   1.925   9.643   1.101
19990WAT      O60211   0.632   1.384   2.189
19990WAT     H160212   0.540   1.388   2.227
19990WAT     H260213   0.682   1.466   2.214
19991WAT      O60214   6.886   8.176   2.177
19991WAT     H160215   6.836   8.209   2.096
19991WAT     H260216   6.938   8.251   2.216
19992WAT      O60217   7.049   3.721   2.439
19992WAT     H160218   7.127   3.660   2.424
19992WAT     H260219   7.026   3.722   2.536
19993WAT      O60220   0.961   4.305   5.319
19993WAT     H160221   1.018   4.287   5.239
19993WAT     H260222   1.017   4.349   5.390
19994WAT      O60223   3.853   5.649   8.578
19994WAT     H160224   3.846   5.624   8.674
19994WAT     H260225   3.883   5.745   8.571
19995WAT      O60226   1.147   8.492   9.445
19995WAT     H160227   1.133   8.400   9.481
19995WAT     H260228   1.065   8.547   9.461
19996WAT      O60229   0.323   4.772   8.648
19996WAT     H160230   0.401   4.812   8.599
19996WAT     H260231   0.324   4.673   8.637
19997WAT      O60232   3.686   1.412   0.349
19997WAT     H160233   3.630   1.445   0.426
19997WAT     H260234   3.750   1.343   0.382
19998WAT      O60235   7.327   3.969   7.057
19998WAT     H160236   7.424   3.987   7.042
19998WAT     H260237   7.295   3.902   6.990
19999WAT      O60238   0.437   2.019   5.175
19999WAT     H160239   0.403   1.991   5.085
19999WAT     H260240   0.375   1.985   5.246
20000WAT      O60241   5.673   2.225   1.295
20000WAT     H160242   5.591   2.282   1.300
20000WAT     H260243   5.745   2.275   1.246
20001WAT      O60244   2.974   0.223   8.197
20001WAT     H160245   2.898   0.173   8.239
20001WAT     H260246   2.947   0.317   8.178
20002WAT      O60247   5.700   8.878   3.868
20002WAT     H160248   5.794   8.873   3.902
20002WAT     H260249   5.701   8.899   3.771
20003WAT      O60250   6.722   5.989   3.483
20003WAT     H160251   6.692   6.026   3.395
20003WAT     H260252   6.764   6.061   3.537
20004WAT      O60253   8.509   7.108   4.035
20004WAT     H160254   8.542   7.015   4.054
20004WAT     H260255   8.502   7.159   4.121
20005WAT      O60256   5.797   2.662   2.055
20005WAT     H160257   5.890   2.692   2.076
20005WAT     H260258   5.741   2.665   2.137
20006WAT      O60259   2.939   9.593   4.822
20006WAT     H160260   2.840   9.608   4.819
20006WAT     H260261   2.984   9.673   4.863
20007WAT      O60262   9.021   1.926   6.292
20007WAT     H160263   8.975   1.996   6.347
20007WAT     H260264   8.963   1.845   6.284
20008WAT      O60265   6.006   6.784   6.203
20008WAT     H160266   5.967   6.756   6.116
20008WAT     H260267   6.001   6.708   6.268
20009WAT      O60268   9.208   1.095   6.508
20009WAT     H160269   9.260   1.041   6.574
20009WAT     H260270   9.133   1.040   6.471
20010WAT      O60271   8.827   0.304   5.700
20010WAT     H160272   8.790   0.230   5.755
20010WAT     H260273   8.927   0.297   5.696
20011WAT      O60274   0.641   1.952   2.562
20011WAT     H160275   0.635   1.918   2.467
20011WAT     H260276   0.615   2.048   2.564
20012WAT      O60277   8.398   4.463   0.789
20012WAT     H160278   8.388   4.364   0.776
20012WAT     H260279   8.328   4.496   0.851
20013WAT      O60280   7.269   3.931   5.665
20013WAT     H160281   7.353   3.961   5.620
20013WAT     H260282   7.265   3.831   5.665
20014WAT      O60283   2.081   3.244   7.137
20014WAT     H160284   1.995   3.238   7.086
20014WAT     H260285   2.116   3.152   7.154
20015WAT      O60286   2.599   1.656   6.504
20015WAT     H160287   2.529   1.687   6.440
20015WAT     H260288   2.566   1.578   6.556
20016WAT      O60289   1.254   4.617   1.159
20016WAT     H160290   1.185   4.672   1.205
20016WAT     H260291   1.218   4.525   1.142
20017WAT      O60292   2.444   3.038   6.626
20017WAT     H160293   2.427   2.940   6.610
20017WAT     H260294   2.359   3.089   6.612
20018WAT      O60295   6.891   3.562   9.340
20018WAT     H160296   6.960   3.559   9.268
20018WAT     H260297   6.928   3.522   9.424
20019WAT      O60298   7.892   8.412   8.144
20019WAT     H160299   7.816   8.392   8.082
20019WAT     H260300   7.918   8.328   8.192
20020WAT      O60301   0.952   7.474   0.740
20020WAT     H160302   0.965   7.405   0.668
20020WAT     H260303   0.915   7.557   0.700
20021WAT      O60304   7.479   4.560   1.898
20021WAT     H160305   7.447   4.522   1.812
20021WAT     H260306   7.407   4.551   1.967
20022WAT      O60307   0.501   8.921   9.008
20022WAT     H160308   0.419   8.872   9.036
20022WAT     H260309   0.582   8.867   9.031
20023WAT      O60310   9.268   6.788   0.340
20023WAT     H160311   9.294   6.763   0.433
20023WAT     H260312   9.213   6.714   0.299
20024WAT      O60313   4.018   8.998   3.699
20024WAT     H160314   3.946   9.058   3.665
20024WAT     H260315   4.070   9.045   3.770
20025WAT      O60316   6.793   7.970   3.836
20025WAT     H160317   6.876   7.964   3.892
20025WAT     H260318   6.713   7.976   3.896
20026WAT      O60319   8.748   1.007   2.576
20026WAT     H160320   8.832   0.965   2.543
20026WAT     H260321   8.771   1.088   2.631
20027WAT      O60322   1.300   0.922   2.724
20027WAT     H160323   1.206   0.954   2.717
20027WAT     H260324   1.309   0.861   2.803
20028WAT      O60325   6.828   0.611   8.093
20028WAT     H160326   6.889   0.642   8.165
20028WAT     H260327   6.881   0.567   8.020
20029WAT      O60328   0.560   8.245   1.675
20029WAT     H160329   0.591   8.312   1.607
20029WAT     H260330   0.638   8.188   1.704
20030WAT      O60331   4.071   2.551   8.836
20030WAT     H160332   4.166   2.522   8.825
20030WAT     H260333   4.067   2.639   8.882
20031WAT      O60334   6.815   2.325   7.381
20031WAT     H160335   6.826   2.246   7.442
20031WAT     H260336   6.851   2.407   7.425
20032WAT      O60337   8.822   1.451   6.983
20032WAT     H160338   8.806   1.368   7.036
20032WAT     H260339   8.920   1.459   6.963
20033WAT      O60340   0.597   9.772   7.545
20033WAT     H160341   0.661   9.695   7.546
20033WAT     H260342   0.523   9.754   7.611
20034WAT      O60343   9.229   9.652   1.679
20034WAT     H160344   9.256   9.697   1.594
20034WAT     H260345   9.304   9.660   1.746
20035WAT      O60346   6.929   4.415   2.369
20035WAT     H160347   6.959   4.327   2.404
20035WAT     H260348   6.914   4.478   2.446
20036WAT      O60349   5.747   2.999   6.120
20036WAT     H160350   5.823   2.954   6.073
20036WAT     H260351   5.710   2.939   6.190
20037WAT      O60352   1.891   0.217   7.032
20037WAT     H160353   1.892   0.317   7.033
20037WAT     H260354   1.799   0.186   7.011
20038WAT      O60355   4.013   5.356   1.598
20038WAT     H160356   4.071   5.274   1.589
20038WAT     H260357   3.917   5.329   1.589
20039WAT      O60358   5.527   1.350   2.660
20039WAT     H160359   5.519   1.450   2.661
20039WAT     H260360   5.495   1.315   2.572
20040WAT      O60361   1.023   6.747   3.583
20040WAT     H160362   1.118   6.742   3.552
20040WAT     H260363   0.963   6.710   3.512
20041WAT      O60364   2.767   3.145   4.573
20041WAT     H160365   2.703   3.208   4.530
20041WAT     H260366   2.743   3.051   4.548
20042WAT      O60367   6.659   7.247   9.471
20042WAT     H160368   6.698   7.178   9.410
20042WAT     H260369   6.723   7.323   9.482
20043WAT      O60370   5.338   8.764   4.199
20043WAT     H160371   5.282   8.844   4.179
20043WAT     H260372   5.424   8.770   4.148
20044WAT      O60373   2.273   7.458   0.548
20044WAT     H160374   2.262   7.534   0.612
20044WAT     H260375   2.329   7.488   0.471
20045WAT      O60376   4.787   8.543   7.366
20045WAT     H160377   4.772   8.578   7.274
20045WAT     H260378   4.825   8.616   7.423
20046WAT      O60379   5.439   9.070   8.091
20046WAT     H160380   5.493   9.010   8.032
20046WAT     H260381   5.488   9.156   8.106
20047WAT      O60382   9.603   6.897   7.585
20047WAT     H160383   9.566   6.810   7.616
20047WAT     H260384   9.701   6.888   7.568
20048WAT      O60385   5.123   9.618   1.318
20048WAT     H160386   5.130   9.717   1.322
20048WAT     H260387   5.027   9.591   1.316
20049WAT      O60388   8.906   2.915   5.255
20049WAT     H160389   8.883   2.965   5.339
20049WAT     H260390   8.998   2.940   5.225
20050WAT      O60391   7.371   5.182   5.511
20050WAT     H160392   7.444   5.248   5.494
20050WAT     H260393   7.314   5.173   5.430
20051WAT      O60394   5.483   9.027   1.638
20051WAT     H160395   5.534   9.072   1.565
20051WAT     H260396   5.503   8.929   1.637
20052WAT      O60397   8.988   6.748   5.932
20052WAT     H160398   8.926   6.695   5.989
20052WAT     H260399   8.936   6.789   5.856
20053WAT      O60400   3.119   9.614   1.949
20053WAT     H160401   3.045   9.667   1.907
20053WAT     H260402   3.200   9.672   1.960
20054WAT      O60403   5.911   1.547   5.829
20054WAT     H160404   5.977   1.497   5.885
20054WAT     H260405   5.874   1.487   5.759
20055WAT      O60406   8.340   6.215   6.000
20055WAT     H160407   8.269   6.146   5.991
20055WAT     H260408   8.314   6.281   6.070
20056WAT      O60409   8.149   5.891   7.167
20056WAT     H160410   8.244   5.920   7.177
20056WAT     H260411   8.140   5.795   7.192
20057WAT      O60412   3.576   6.216   4.493
20057WAT     H160413   3.597   6.169   4.579
20057WAT     H260414   3.479   6.236   4.489
20058WAT      O60415   8.654   9.439   7.930
20058WAT     H160416   8.594   9.475   7.859
20058WAT     H260417   8.736   9.495   7.935
20059WAT      O60418   6.192   3.886   4.447
20059WAT     H160419   6.271   3.832   4.474
20059WAT     H260420   6.193   3.901   4.348
20060WAT      O60421   5.920   3.518   8.127
20060WAT     H160422   5.904   3.429   8.083
20060WAT     H260423   5.836   3.548   8.173
20061WAT      O60424   7.843   4.112   8.603
20061WAT     H160425   7.830   4.063   8.517
20061WAT     H260426   7.757   4.113   8.655
20062WAT      O60427   2.381   8.311   2.160
20062WAT     H160428   2.319   8.235   2.181
20062WAT     H260429   2.410   8.304   2.065
20063WAT      O60430   9.750   2.909   3.824
20063WAT     H160431   9.776   2.841   3.892
20063WAT     H260432   9.660   2.885   3.785
20064WAT      O60433   5.350   3.509   6.488
20064WAT     H160434   5.251   3.494   6.492
20064WAT     H260435   5.383   3.491   6.395
20065WAT      O60436   5.858   0.364   3.308
20065WAT     H160437   5.909   0.321   3.234
20065WAT     H260438   5.919   0.381   3.386
20066WAT      O60439   5.471   3.580   7.032
20066WAT     H160440   5.563   3.571   6.995
20066WAT     H260441   5.409   3.615   6.961
20067WAT      O60442   6.480   8.308   3.585
20067WAT     H160443   6.457   8.222   3.539
20067WAT     H260444   6.498   8.290   3.682
20068WAT      O60445   5.164   2.391   0.594
20068WAT     H160446   5.257   2.389   0.557
20068WAT     H260447   5.141   2.302   0.631
20069WAT      O60448   6.550   2.043   3.412
20069WAT     H160449   6.520   2.075   3.502
20069WAT     H260450   6.604   2.115   3.368
20070WAT      O60451   9.667   3.313   3.337
20070WAT     H160452   9.723   3.257   3.276
20070WAT     H260453   9.629   3.390   3.287
20071WAT      O60454   9.155   1.481   2.317
20071WAT     H160455   9.065   1.503   2.354
20071WAT     H260456   9.153   1.489   2.218
20072WAT      O60457   1.357   4.166   3.567
20072WAT     H160458   1.446   4.124   3.578
20072WAT     H260459   1.307   4.121   3.494
20073WAT      O60460   5.761   2.604   4.876
20073WAT     H160461   5.662   2.597   4.867
20073WAT     H260462   5.792   2.691   4.836
20074WAT      O60463   9.126   2.094   6.797
20074WAT     H160464   9.061   2.019   6.799
20074WAT     H260465   9.102   2.157   6.722
20075WAT      O60466   0.493   3.283   7.029
20075WAT     H160467   0.451   3.199   6.994
20075WAT     H260468   0.421   3.350   7.049
20076WAT      O60469   6.544   8.108   7.492
20076WAT     H160470   6.531   8.193   7.440
20076WAT     H260471   6.559   8.032   7.429
20077WAT      O60472   0.670   3.157   5.931
20077WAT     H160473   0.722   3.096   5.872
20077WAT     H260474   0.595   3.106   5.974
20078WAT      O60475   9.777   8.473   9.033
20078WAT     H160476   9.745   8.516   9.118
20078WAT     H260477   9.853   8.412   9.054
20079WAT      O60478   3.405   0.093   5.639
20079WAT     H160479   3.468   0.167   5.614
20079WAT     H260480   3.364   0.114   5.728
20080WAT      O60481   5.029   3.892   3.326
20080WAT     H160482   5.037   3.960   3.399
20080WAT     H260483   5.030   3.800   3.366
20081WAT      O60484   7.799   2.184   3.193
20081WAT     H160485   7.700   2.199   3.192
20081WAT     H260486   7.819   2.095   3.152
20082WAT      O60487   2.490   0.990   5.502
20082WAT     H160488   2.539   1.034   5.577
20082WAT     H260489   2.553   0.930   5.452
20083WAT      O60490   8.849   9.032   1.141
20083WAT     H160491   8.916   9.106   1.149
20083WAT     H260492   8.822   9.001   1.232
20084WAT      O60493   8.986   9.642   3.211
20084WAT     H160494   8.941   9.711   3.154
20084WAT     H260495   9.016   9.684   3.297
20085WAT      O60496   9.315   7.230   1.668
20085WAT     H160497   9.224   7.222   1.627
20085WAT     H260498   9.331   7.324   1.696
20086WAT      O60499   8.878   0.054   7.780
20086WAT     H160500   8.813   0.093   7.714
20086WAT     H260501   8.967   0.044   7.736
20087WAT      O60502   4.007   3.433   1.992
20087WAT     H160503   4.069   3.512   1.986
20087WAT     H260504   4.051   3.360   2.043
20088WAT      O60505   0.872   8.360   8.759
20088WAT     H160506   0.816   8.428   8.713
20088WAT     H260507   0.947   8.405   8.808
20089WAT      O60508   4.282   3.846   7.179
20089WAT     H160509   4.376   3.831   7.149
20089WAT     H260510   4.273   3.819   7.275
20090WAT      O60511   4.012   8.747   3.619
20090WAT     H160512   4.002   8.687   3.698
20090WAT     H260513   4.006   8.843   3.648
20091WAT      O60514   8.455   9.648   3.078
20091WAT     H160515   8.521   9.685   3.144
20091WAT     H260516   8.363   9.678   3.103
20092WAT      O60517   7.612   9.235   9.076
20092WAT     H160518   7.627   9.186   9.162
20092WAT     H260519   7.687   9.300   9.061
20093WAT      O60520   5.749   9.416   1.356
20093WAT     H160521   5.660   9.438   1.396
20093WAT     H260522   5.818   9.477   1.395
20094WAT      O60523   2.900   0.392   1.329
20094WAT     H160524   2.804   0.387   1.302
20094WAT     H260525   2.944   0.469   1.283
20095WAT      O60526   9.861   0.789   1.814
20095WAT     H160527   9.771   0.781   1.856
20095WAT     H260528   9.922   0.839   1.874
20096WAT      O60529   1.275   9.502   7.667
20096WAT     H160530   1.275   9.597   7.634
20096WAT     H260531   1.370   9.473   7.683
20097WAT      O60532   4.870   6.580   8.800
20097WAT     H160533   4.880   6.556   8.703
20097WAT     H260534   4.951   6.630   8.830
20098WAT      O60535   1.306   7.909   6.776
20098WAT     H160536   1.384   7.847   6.781
20098WAT     H260537   1.235   7.869   6.718
20099WAT      O60538   7.868   6.509   5.729
20099WAT     H160539   7.923   6.441   5.682
20099WAT     H260540   7.860   6.485   5.826
20100WAT      O60541   5.261   3.322   9.299
20100WAT     H160542   5.236   3.258   9.372
20100WAT     H260543   5.291   3.271   9.219
20101WAT      O60544   6.328   2.900   0.532
20101WAT     H160545   6.333   2.975   0.466
20101WAT     H260546   6.296   2.817   0.485
20102WAT      O60547   4.197   7.001   8.589
20102WAT     H160548   4.224   6.913   8.628
20102WAT     H260549   4.134   6.986   8.513
20103WAT      O60550   6.186   6.976   6.199
20103WAT     H160551   6.117   6.903   6.206
20103WAT     H260552   6.197   7.001   6.103
20104WAT      O60553   1.795   5.783   3.638
20104WAT     H160554   1.796   5.881   3.658
20104WAT     H260555   1.769   5.769   3.542
20105WAT      O60556   1.968   7.139   0.111
20105WAT     H160557   2.011   7.210   0.167
20105WAT     H260558   1.875   7.123   0.144
20106WAT      O60559   1.031   9.685   4.389
20106WAT     H160560   0.953   9.631   4.420
20106WAT     H260561   0.999   9.768   4.344
20107WAT      O60562   1.899   7.019   4.377
20107WAT     H160563   1.818   7.073   4.400
20107WAT     H260564   1.876   6.922   4.379
20108WAT      O60565   1.769   8.934   2.862
20108WAT     H160566   1.752   9.014   2.919
20108WAT     H260567   1.686   8.879   2.854
20109WAT      O60568   8.150   2.851   3.417
20109WAT     H160569   8.231   2.910   3.426
20109WAT     H260570   8.179   2.756   3.404
20110WAT      O60571   6.197   6.306   7.625
20110WAT     H160572   6.175   6.400   7.598
20110WAT     H260573   6.142   6.243   7.570
20111WAT      O60574   1.619   2.022   1.883
20111WAT     H160575   1.684   1.958   1.923
20111WAT     H260576   1.655   2.058   1.797
20112WAT      O60577   8.661   6.693   8.651
20112WAT     H160578   8.597   6.638   8.703
20112WAT     H260579   8.721   6.743   8.714
20113WAT      O60580   5.652   2.883   6.356
20113WAT     H160581   5.686   2.789   6.362
20113WAT     H260582   5.622   2.913   6.447
20114WAT      O60583   1.003   5.230   2.357
20114WAT     H160584   1.020   5.326   2.381
20114WAT     H260585   1.071   5.200   2.291
20115WAT      O60586   9.795   9.213   2.881
20115WAT     H160587   9.761   9.123   2.909
20115WAT     H260588   9.719   9.277   2.874
20116WAT      O60589   2.687   0.055   1.799
20116WAT     H160590   2.643   0.108   1.871
20116WAT     H260591   2.631   0.057   1.717
20117WAT      O60592   9.179   0.887   2.016
20117WAT     H160593   9.141   0.807   1.971
20117WAT     H260594   9.271   0.904   1.982
20118WAT      O60595   2.254   0.477   4.922
20118WAT     H160596   2.338   0.459   4.871
20118WAT     H260597   2.196   0.396   4.919
20119WAT      O60598   1.588   4.669   7.260
20119WAT     H160599   1.626   4.669   7.167
20119WAT     H260600   1.661   4.686   7.326
20120WAT      O60601   6.868   9.550   1.551
20120WAT     H160602   6.874   9.584   1.645
20120WAT     H260603   6.956   9.565   1.505
20121WAT      O60604   9.614   5.691   1.169
20121WAT     H160605   9.577   5.606   1.133
20121WAT     H260606   9.641   5.679   1.265
20122WAT      O60607   5.747   7.099   7.011
20122WAT     H160608   5.654   7.120   7.040
20122WAT     H260609   5.810   7.168   7.049
20123WAT      O60610   6.209   0.442   2.746
20123WAT     H160611   6.155   0.447   2.663
20123WAT     H260612   6.227   0.535   2.780
20124WAT      O60613   0.624   8.527   3.294
20124WAT     H160614   0.634   8.612   3.242
20124WAT     H260615   0.579   8.459   3.238
20125WAT      O60616   2.486   1.186   1.009
20125WAT     H160617   2.576   1.144   1.025
20125WAT     H260618   2.473   1.263   1.072
20126WAT      O60619   3.237   3.280   4.911
20126WAT     H160620   3.314   3.278   4.975
20126WAT     H260621   3.153   3.256   4.960
20127WAT      O60622   1.572   4.750   6.749
20127WAT     H160623   1.501   4.818   6.769
20127WAT     H260624   1.605   4.709   6.834
20128WAT      O60625   4.937   7.480   7.468
20128WAT     H160626   5.010   7.539   7.435
20128WAT     H260627   4.886   7.443   7.390
20129WAT      O60628   4.947   8.890   5.358
20129WAT     H160629   4.847   8.884   5.359
20129WAT     H260630   4.979   8.937   5.440
20130WAT      O60631   8.267   8.362   4.183
20130WAT     H160632   8.242   8.303   4.259
20130WAT     H260633   8.199   8.352   4.110
20131WAT      O60634   1.184   5.036   5.918
20131WAT     H160635   1.251   5.073   5.854
20131WAT     H260636   1.231   4.990   5.993
20132WAT      O60637   4.421   0.009   9.125
20132WAT     H160638   4.470  -0.034   9.201
20132WAT     H260639   4.326   0.025   9.152
20133WAT      O60640   2.422   6.263   5.276
20133WAT     H160641   2.500   6.255   5.214
20133WAT     H260642   2.452   6.305   5.362
20134WAT      O60643   5.431   3.667   3.291
20134WAT     H160644   5.498   3.638   3.358
20134WAT     H260645   5.339   3.659   3.330
20135WAT      O60646   7.189   3.941   8.187
20135WAT     H160647   7.222   3.911   8.277
20135WAT     H260648   7.094   3.971   8.195
20136WAT      O60649   8.915   5.512   1.266
20136WAT     H160650   8.884   5.417   1.275
20136WAT     H260651   8.949   5.526   1.173
20137WAT      O60652   3.547   5.635   3.910
20137WAT     H160653   3.585   5.696   3.980
20137WAT     H260654   3.465   5.677   3.870
20138WAT      O60655   0.642   2.973   4.039
20138WAT     H160656   0.582   2.921   3.978
20138WAT     H260657   0.683   3.049   3.988
20139WAT      O60658   4.791   8.444   2.314
20139WAT     H160659   4.834   8.484   2.394
20139WAT     H260660   4.723   8.377   2.342
20140WAT      O60661   7.227   7.991   4.135
20140WAT     H160662   7.249   8.055   4.062
20140WAT     H260663   7.277   8.017   4.218
20141WAT      O60664   9.149   7.880   8.878
20141WAT     H160665   9.061   7.928   8.882
20141WAT     H260666   9.173   7.846   8.969
20142WAT      O60667   4.894   9.123   0.029
20142WAT     H160668   4.882   9.134  -0.069
20142WAT     H260669   4.866   9.031   0.056
20143WAT      O60670   3.201   3.536   4.419
20143WAT     H160671   3.134   3.501   4.485
20143WAT     H260672   3.154   3.585   4.346
20144WAT      O60673   4.509   1.283   5.613
20144WAT     H160674   4.473   1.260   5.704
20144WAT     H260675   4.437   1.327   5.559
20145WAT      O60676   9.626   2.596   8.910
20145WAT     H160677   9.706   2.558   8.957
20145WAT     H260678   9.639   2.694   8.897
20146WAT      O60679   6.420   3.345   9.790
20146WAT     H160680   6.437   3.265   9.732
20146WAT     H260681   6.504   3.398   9.798
20147WAT      O60682   9.537   3.307   7.739
20147WAT     H160683   9.443   3.311   7.774
20147WAT     H260684   9.597   3.358   7.801
20148WAT      O60685   7.594   9.661   6.396
20148WAT     H160686   7.509   9.689   6.353
20148WAT     H260687   7.670   9.715   6.359
20149WAT      O60688   0.684   7.255   7.815
20149WAT     H160689   0.732   7.215   7.737
20149WAT     H260690   0.722   7.218   7.900
20150WAT      O60691   8.647   1.284   1.327
20150WAT     H160692   8.680   1.255   1.417
20150WAT     H260693   8.656   1.208   1.263
20151WAT      O60694   3.056   0.337   6.909
20151WAT     H160695   3.041   0.357   7.006
20151WAT     H260696   3.143   0.377   6.880
20152WAT      O60697   9.767   3.409   8.818
20152WAT     H160698   9.833   3.370   8.883
20152WAT     H260699   9.751   3.505   8.841
20153WAT      O60700   6.932   0.286   3.868
20153WAT     H160701   6.948   0.312   3.773
20153WAT     H260702   6.869   0.209   3.871
20154WAT      O60703   0.776   8.519   5.326
20154WAT     H160704   0.777   8.502   5.228
20154WAT     H260705   0.774   8.617   5.344
20155WAT      O60706   1.388   9.618   1.270
20155WAT     H160707   1.404   9.540   1.209
20155WAT     H260708   1.475   9.649   1.307
20156WAT      O60709   9.047   5.742   8.719
20156WAT     H160710   8.956   5.782   8.721
20156WAT     H260711   9.062   5.689   8.802
20157WAT      O60712   0.732   5.362   6.827
20157WAT     H160713   0.699   5.275   6.791
20157WAT     H260714   0.656   5.425   6.835
20158WAT      O60715   3.273   4.006   7.941
20158WAT     H160716   3.269   4.069   8.018
20158WAT     H260717   3.314   4.051   7.862
20159WAT      O60718   7.959   3.124   4.847
20159WAT     H160719   7.923   3.147   4.937
20159WAT     H260720   7.898   3.057   4.803
20160WAT      O60721   6.589   8.235   5.570
20160WAT     H160722   6.608   8.185   5.486
20160WAT     H260723   6.620   8.182   5.649
20161WAT      O60724   1.603   4.185   6.776
20161WAT     H160725   1.662   4.109   6.747
20161WAT     H260726   1.581   4.175   6.873
20162WAT      O60727   7.298   6.654   1.435
20162WAT     H160728   7.384   6.648   1.485
20162WAT     H260729   7.232   6.590   1.473
20163WAT      O60730   6.199   7.677   6.411
20163WAT     H160731   6.161   7.628   6.333
20163WAT     H260732   6.125   7.701   6.474
20164WAT      O60733   0.017   2.567   8.578
20164WAT     H160734  -0.018   2.579   8.485
20164WAT     H260735  -0.012   2.478   8.614
20165WAT      O60736   2.634   7.817   1.276
20165WAT     H160737   2.667   7.903   1.313
20165WAT     H260738   2.552   7.834   1.220
20166WAT      O60739   0.381   6.209   1.061
20166WAT     H160740   0.461   6.268   1.052
20166WAT     H260741   0.410   6.113   1.064
20167WAT      O60742   7.833   6.595   1.952
20167WAT     H160743   7.827   6.694   1.941
20167WAT     H260744   7.792   6.569   2.039
20168WAT      O60745   3.471   7.350   4.780
20168WAT     H160746   3.408   7.337   4.704
20168WAT     H260747   3.441   7.428   4.835
20169WAT      O60748   2.194   1.491   5.956
20169WAT     H160749   2.100   1.506   5.928
20169WAT     H260750   2.198   1.414   6.019
20170WAT      O60751   6.793   1.376   5.932
20170WAT     H160752   6.709   1.372   5.878
20170WAT     H260753   6.858   1.438   5.888
20171WAT      O60754   8.344   7.435   5.542
20171WAT     H160755   8.256   7.401   5.509
20171WAT     H260756   8.338   7.449   5.641
20172WAT      O60757   6.085   1.711   4.256
20172WAT     H160758   6.079   1.687   4.353
20172WAT     H260759   6.167   1.766   4.240
20173WAT      O60760   2.490   4.420   1.020
20173WAT     H160761   2.539   4.351   1.073
20173WAT     H260762   2.538   4.436   0.934
20174WAT      O60763   3.656   8.857   5.322
20174WAT     H160764   3.710   8.938   5.302
20174WAT     H260765   3.572   8.858   5.267
20175WAT      O60766   6.941   4.714   7.342
20175WAT     H160767   6.973   4.778   7.412
20175WAT     H260768   6.848   4.739   7.314
20176WAT      O60769   1.327   1.137   4.190
20176WAT     H160770   1.339   1.181   4.101
20176WAT     H260771   1.279   1.050   4.178
20177WAT      O60772   4.175   0.216   5.642
20177WAT     H160773   4.213   0.273   5.716
20177WAT     H260774   4.165   0.271   5.559
20178WAT      O60775   5.629   5.936   1.443
20178WAT     H160776   5.570   5.951   1.523
20178WAT     H260777   5.576   5.893   1.370
20179WAT      O60778   6.026   0.948   2.171
20179WAT     H160779   6.042   0.853   2.197
20179WAT     H260780   6.106   0.984   2.124
20180WAT      O60781   1.807   6.208   4.923
20180WAT     H160782   1.819   6.141   4.850
20180WAT     H260783   1.864   6.288   4.906
20181WAT      O60784   2.063   5.126   3.536
20181WAT     H160785   2.144   5.092   3.583
20181WAT     H260786   2.029   5.207   3.582
20182WAT      O60787   0.664   0.725   8.548
20182WAT     H160788   0.709   0.658   8.489
20182WAT     H260789   0.733   0.786   8.588
20183WAT      O60790   5.661   6.601   4.211
20183WAT     H160791   5.726   6.576   4.140
20183WAT     H260792   5.616   6.688   4.188
20184WAT      O60793   0.710   0.176   7.958
20184WAT     H160794   0.715   0.188   7.859
20184WAT     H260795   0.771   0.241   8.003
20185WAT      O60796   1.958   7.019   2.015
20185WAT     H160797   2.016   6.942   2.040
20185WAT     H260798   1.876   7.019   2.073
20186WAT      O60799   2.267   0.416   7.653
20186WAT     H160800   2.199   0.367   7.709
20186WAT     H260801   2.239   0.512   7.644
20187WAT      O60802   4.577   4.254   7.088
20187WAT     H160803   4.654   4.190   7.097
20187WAT     H260804   4.508   4.214   7.028
20188WAT      O60805   4.853   0.597   6.690
20188WAT     H160806   4.854   0.534   6.613
20188WAT     H260807   4.764   0.641   6.696
20189WAT      O60808   7.311   4.270   4.200
20189WAT     H160809   7.308   4.184   4.149
20189WAT     H260810   7.403   4.284   4.237
20190WAT      O60811   5.026   0.029   8.583
20190WAT     H160812   5.009   0.123   8.612
20190WAT     H260813   4.947  -0.028   8.608
20191WAT      O60814   0.675   3.390   7.740
20191WAT     H160815   0.749   3.348   7.687
20191WAT     H260816   0.624   3.453   7.682
20192WAT      O60817   3.775   6.560   3.890
20192WAT     H160818   3.760   6.490   3.960
20192WAT     H260819   3.694   6.568   3.832
20193WAT      O60820   7.071   6.103   4.721
20193WAT     H160821   6.988   6.109   4.778
20193WAT     H260822   7.122   6.188   4.729
20194WAT      O60823   7.650   4.625   3.697
20194WAT     H160824   7.570   4.639   3.755
20194WAT     H260825   7.633   4.663   3.606
20195WAT      O60826   7.132   1.830   5.048
20195WAT     H160827   7.075   1.874   4.979
20195WAT     H260828   7.116   1.731   5.046
20196WAT      O60829   2.448   3.439   2.953
20196WAT     H160830   2.444   3.391   3.040
20196WAT     H260831   2.518   3.510   2.957
20197WAT      O60832   6.048   2.104   7.656
20197WAT     H160833   6.095   2.182   7.615
20197WAT     H260834   5.950   2.109   7.634
20198WAT      O60835   6.970   0.145   1.465
20198WAT     H160836   6.929   0.199   1.538
20198WAT     H260837   6.900   0.119   1.399
20199WAT      O60838   6.994   0.741   0.884
20199WAT     H160839   7.039   0.779   0.803
20199WAT     H260840   7.037   0.779   0.966
20200WAT      O60841   3.199   4.623   9.544
20200WAT     H160842   3.275   4.615   9.608
20200WAT     H260843   3.141   4.700   9.570
20201WAT      O60844   9.341   7.609   4.188
20201WAT     H160845   9.378   7.594   4.096
20201WAT     H260846   9.280   7.688   4.187
20202WAT      O60847   5.557   1.145   0.535
20202WAT     H160848   5.522   1.071   0.477
20202WAT     H260849   5.584   1.107   0.624
20203WAT      O60850   1.995   1.792   6.073
20203WAT     H160851   1.973   1.767   6.167
20203WAT     H260852   2.094   1.808   6.066
20204WAT      O60853   6.130   5.634   8.533
20204WAT     H160854   6.094   5.632   8.440
20204WAT     H260855   6.134   5.728   8.566
20205WAT      O60856   5.976   2.784   5.511
20205WAT     H160857   6.038   2.785   5.433
20205WAT     H260858   5.973   2.692   5.550
20206WAT      O60859   8.373   2.786   4.045
20206WAT     H160860   8.391   2.865   3.986
20206WAT     H260861   8.380   2.702   3.991
20207WAT      O60862   7.803   4.905   2.311
20207WAT     H160863   7.768   4.920   2.403
20207WAT     H260864   7.848   4.988   2.278
20208WAT      O60865   3.606   8.629   6.882
20208WAT     H160866   3.564   8.703   6.828
20208WAT     H260867   3.694   8.605   6.843
20209WAT      O60868   9.494   4.435   1.646
20209WAT     H160869   9.584   4.471   1.621
20209WAT     H260870   9.450   4.395   1.565
20210WAT      O60871   4.262   8.033   1.323
20210WAT     H160872   4.267   8.058   1.420
20210WAT     H260873   4.238   7.936   1.315
20211WAT      O60874   9.544   2.542   3.767
20211WAT     H160875   9.491   2.457   3.770
20211WAT     H260876   9.634   2.523   3.727
20212WAT      O60877   7.269   9.122   8.214
20212WAT     H160878   7.339   9.106   8.283
20212WAT     H260879   7.231   9.035   8.184
20213WAT      O60880   5.972   8.130   6.071
20213WAT     H160881   6.003   8.086   6.155
20213WAT     H260882   5.902   8.198   6.092
20214WAT      O60883   2.251   5.525   6.264
20214WAT     H160884   2.342   5.565   6.275
20214WAT     H260885   2.186   5.597   6.238
20215WAT      O60886   6.402   8.192   9.745
20215WAT     H160887   6.314   8.181   9.699
20215WAT     H260888   6.390   8.248   9.827
20216WAT      O60889   1.314   5.599   9.404
20216WAT     H160890   1.374   5.521   9.421
20216WAT     H260891   1.277   5.593   9.311
20217WAT      O60892   5.382   3.304   8.246
20217WAT     H160893   5.378   3.402   8.224
20217WAT     H260894   5.293   3.262   8.228
20218WAT      O60895   3.630   7.312   7.812
20218WAT     H160896   3.578   7.396   7.830
20218WAT     H260897   3.618   7.249   7.888
20219WAT      O60898   7.800   6.358   3.933
20219WAT     H160899   7.828   6.275   3.981
20219WAT     H260900   7.880   6.403   3.894
20220WAT      O60901   4.703   4.564   0.838
20220WAT     H160902   4.631   4.520   0.785
20220WAT     H260903   4.684   4.662   0.846
20221WAT      O60904   5.391   2.692   0.095
20221WAT     H160905   5.419   2.715   0.188
20221WAT     H260906   5.291   2.685   0.091
20222WAT      O60907   3.011   5.602   4.828
20222WAT     H160908   3.099   5.624   4.787
20222WAT     H260909   3.022   5.528   4.895
20223WAT      O60910   6.002   8.670   3.168
20223WAT     H160911   5.910   8.704   3.188
20223WAT     H260912   6.067   8.711   3.232
20224WAT      O60913   8.869   4.282   2.327
20224WAT     H160914   8.928   4.310   2.252
20224WAT     H260915   8.922   4.278   2.412
20225WAT      O60916   3.346   7.362   5.812
20225WAT     H160917   3.369   7.380   5.716
20225WAT     H260918   3.430   7.358   5.866
20226WAT      O60919   7.794   5.828   4.691
20226WAT     H160920   7.799   5.745   4.637
20226WAT     H260921   7.886   5.863   4.708
20227WAT      O60922   5.262   5.421   8.971
20227WAT     H160923   5.328   5.400   9.043
20227WAT     H260924   5.311   5.447   8.888
20228WAT      O60925   1.405   8.892   1.081
20228WAT     H160926   1.483   8.846   1.039
20228WAT     H260927   1.363   8.831   1.149
20229WAT      O60928   3.228   1.056   2.028
20229WAT     H160929   3.238   1.058   1.929
20229WAT     H260930   3.260   0.969   2.063
20230WAT      O60931   4.096   8.951   8.194
20230WAT     H160932   4.033   8.980   8.122
20230WAT     H260933   4.044   8.933   8.278
20231WAT      O60934   0.248   3.911   5.723
20231WAT     H160935   0.201   3.898   5.810
20231WAT     H260936   0.326   3.848   5.718
20232WAT      O60937   9.370   2.779   6.649
20232WAT     H160938   9.310   2.790   6.729
20232WAT     H260939   9.465   2.793   6.676
20233WAT      O60940   5.283   0.152   8.463
20233WAT     H160941   5.218   0.096   8.412
20233WAT     H260942   5.376   0.126   8.438
20234WAT      O60943   5.534   5.209   8.859
20234WAT     H160944   5.517   5.140   8.789
20234WAT     H260945   5.505   5.299   8.825
20235WAT      O60946   1.951   1.294   2.641
20235WAT     H160947   1.926   1.206   2.603
20235WAT     H260948   1.996   1.281   2.729
20236WAT      O60949   6.303   1.993   5.500
20236WAT     H160950   6.368   1.919   5.520
20236WAT     H260951   6.233   1.996   5.572
20237WAT      O60952   6.973   6.845   5.624
20237WAT     H160953   7.062   6.801   5.631
20237WAT     H260954   6.982   6.942   5.650
20238WAT      O60955   6.952   7.030   3.467
20238WAT     H160956   6.870   6.988   3.428
20238WAT     H260957   6.982   6.977   3.546
20239WAT      O60958   6.122   2.838   1.635
20239WAT     H160959   6.105   2.810   1.540
20239WAT     H260960   6.116   2.758   1.694
20240WAT      O60961   6.124   2.364   4.594
20240WAT     H160962   6.080   2.403   4.675
20240WAT     H260963   6.136   2.435   4.525
20241WAT      O60964   3.769   5.958   1.294
20241WAT     H160965   3.834   5.946   1.369
20241WAT     H260966   3.676   5.940   1.327
20242WAT      O60967   9.259   9.722   0.222
20242WAT     H160968   9.240   9.740   0.318
20242WAT     H260969   9.214   9.636   0.195
20243WAT      O60970   3.397   0.201   7.642
20243WAT     H160971   3.429   0.215   7.736
20243WAT     H260972   3.311   0.250   7.628
20244WAT      O60973   2.449   6.280   4.647
20244WAT     H160974   2.494   6.344   4.710
20244WAT     H260975   2.351   6.275   4.669
20245WAT      O60976   9.216   4.220   2.279
20245WAT     H160977   9.278   4.202   2.355
20245WAT     H260978   9.146   4.149   2.276
20246WAT      O60979   4.010   3.592   3.054
20246WAT     H160980   4.000   3.655   3.131
20246WAT     H260981   4.066   3.514   3.081
20247WAT      O60982   2.132   1.426   7.854
20247WAT     H160983   2.137   1.526   7.859
20247WAT     H260984   2.127   1.388   7.947
20248WAT      O60985   0.812   8.075   2.222
20248WAT     H160986   0.746   8.049   2.293
20248WAT     H260987   0.830   7.996   2.163
20249WAT      O60988   7.769   2.939   9.109
20249WAT     H160989   7.847   2.879   9.122
20249WAT     H260990   7.722   2.916   9.024
20250WAT      O60991   2.036   5.295   4.486
20250WAT     H160992   2.106   5.337   4.544
20250WAT     H260993   2.079   5.257   4.404
20251WAT      O60994   4.467   3.535   0.777
20251WAT     H160995   4.495   3.448   0.817
20251WAT     H260996   4.535   3.605   0.798
20252WAT      O60997   3.150   3.177   5.166
20252WAT     H160998   3.154   3.248   5.236
20252WAT     H260999   3.070   3.119   5.182
20253WAT      O61000   2.015   4.817   5.030
20253WAT     H161001   1.918   4.805   5.053
20253WAT     H261002   2.025   4.898   4.971
20254WAT      O61003   8.889   2.641   8.664
20254WAT     H161004   8.980   2.654   8.624
20254WAT     H261005   8.848   2.557   8.627
20255WAT      O61006   1.020   6.885   6.064
20255WAT     H161007   0.927   6.872   6.029
20255WAT     H261008   1.015   6.921   6.157
20256WAT      O61009   0.197   5.562   1.115
20256WAT     H161010   0.215   5.582   1.019
20256WAT     H261011   0.159   5.470   1.124
20257WAT      O61012   7.038   1.190   7.769
20257WAT     H161013   6.968   1.206   7.838
20257WAT     H261014   6.996   1.184   7.678
20258WAT      O61015   8.619   9.782   9.259
20258WAT     H161016   8.612   9.841   9.178
20258WAT     H261017   8.704   9.730   9.255
20259WAT      O61018   3.482   9.052   2.363
20259WAT     H161019   3.456   8.965   2.404
20259WAT     H261020   3.564   9.040   2.307
20260WAT      O61021   9.616   7.457   6.306
20260WAT     H161022   9.607   7.531   6.238
20260WAT     H261023   9.712   7.428   6.310
20261WAT      O61024   5.570   4.109   8.529
20261WAT     H161025   5.579   4.090   8.431
20261WAT     H261026   5.592   4.204   8.547
20262WAT      O61027   7.883   5.304   5.357
20262WAT     H161028   7.890   5.364   5.277
20262WAT     H261029   7.967   5.310   5.411
20263WAT      O61030   4.996   3.772   5.817
20263WAT     H161031   5.054   3.696   5.849
20263WAT     H261032   5.021   3.856   5.865
20264WAT      O61033   6.372   2.328   4.932
20264WAT     H161034   6.405   2.422   4.942
20264WAT     H261035   6.365   2.305   4.835
20265WAT      O61036   1.085   0.824   9.277
20265WAT     H161037   1.049   0.916   9.295
20265WAT     H261038   1.177   0.817   9.314
20266WAT      O61039   9.854   0.873   5.127
20266WAT     H161040   9.800   0.796   5.162
20266WAT     H261041   9.887   0.927   5.204
20267WAT      O61042   8.658   8.155   7.442
20267WAT     H161043   8.665   8.223   7.514
20267WAT     H261044   8.656   8.200   7.353
20268WAT      O61045   5.287   5.530   0.147
20268WAT     H161046   5.369   5.543   0.202
20268WAT     H261047   5.268   5.614   0.095
20269WAT      O61048   3.904   7.316   8.862
20269WAT     H161049   3.858   7.373   8.794
20269WAT     H261050   3.912   7.223   8.828
20270WAT      O61051   8.546   6.991   3.248
20270WAT     H161052   8.544   7.032   3.339
20270WAT     H261053   8.588   6.900   3.254
20271WAT      O61054   8.551   4.408   3.226
20271WAT     H161055   8.451   4.407   3.216
20271WAT     H261056   8.592   4.350   3.156
20272WAT      O61057   1.559   1.914   2.698
20272WAT     H161058   1.638   1.856   2.718
20272WAT     H261059   1.585   1.986   2.634
20273WAT      O61060   0.329   8.063   2.498
20273WAT     H161061   0.368   7.992   2.556
20273WAT     H261062   0.310   8.144   2.553
20274WAT      O61063   2.821   9.597   7.813
20274WAT     H161064   2.880   9.632   7.885
20274WAT     H261065   2.726   9.599   7.843
20275WAT      O61066   5.965   0.549   7.223
20275WAT     H161067   5.879   0.520   7.264
20275WAT     H261068   6.018   0.468   7.196
20276WAT      O61069   4.190   7.234   2.935
20276WAT     H161070   4.208   7.247   3.033
20276WAT     H261071   4.110   7.289   2.909
20277WAT      O61072   1.977   0.813   2.761
20277WAT     H161073   2.042   0.775   2.827
20277WAT     H261074   2.023   0.825   2.673
20278WAT      O61075   2.704   2.853   0.380
20278WAT     H161076   2.738   2.938   0.420
20278WAT     H261077   2.720   2.853   0.282
20279WAT      O61078   6.969   0.597   0.328
20279WAT     H161079   6.995   0.517   0.382
20279WAT     H261080   6.892   0.643   0.373
20280WAT      O61081   6.994   4.278   4.889
20280WAT     H161082   6.984   4.354   4.825
20280WAT     H261083   6.944   4.299   4.973
20281WAT      O61084   7.756   3.499   2.997
20281WAT     H161085   7.746   3.440   3.076
20281WAT     H261086   7.672   3.497   2.943
20282WAT      O61087   6.484   2.303   7.991
20282WAT     H161088   6.457   2.278   8.084
20282WAT     H261089   6.453   2.396   7.972
20283WAT      O61090   4.265   2.821   7.482
20283WAT     H161091   4.286   2.826   7.580
20283WAT     H261092   4.215   2.737   7.462
20284WAT      O61093   2.775   2.393   4.689
20284WAT     H161094   2.817   2.482   4.710
20284WAT     H261095   2.677   2.405   4.676
20285WAT      O61096   5.873   5.440   7.417
20285WAT     H161097   5.905   5.468   7.507
20285WAT     H261098   5.911   5.501   7.348
20286WAT      O61099   4.611   6.502   5.702
20286WAT     H161100   4.566   6.469   5.785
20286WAT     H261101   4.628   6.425   5.641
20287WAT      O61102   7.214   3.504   6.912
20287WAT     H161103   7.272   3.485   6.991
20287WAT     H261104   7.138   3.438   6.909
20288WAT      O61105   8.516   4.651   8.821
20288WAT     H161106   8.441   4.708   8.853
20288WAT     H261107   8.541   4.585   8.891
20289WAT      O61108   8.642   6.149   1.605
20289WAT     H161109   8.695   6.065   1.591
20289WAT     H261110   8.587   6.168   1.524
20290WAT      O61111   6.812   5.156   9.408
20290WAT     H161112   6.884   5.095   9.375
20290WAT     H261113   6.830   5.249   9.378
20291WAT      O61114   6.738   1.415   6.916
20291WAT     H161115   6.791   1.459   6.988
20291WAT     H261116   6.765   1.451   6.827
20292WAT      O61117   3.436   3.487   4.265
20292WAT     H161118   3.512   3.545   4.294
20292WAT     H261119   3.356   3.505   4.322
20293WAT      O61120   0.999   4.945   2.003
20293WAT     H161121   0.910   4.991   1.997
20293WAT     H261122   1.069   5.012   2.026
20294WAT      O61123   7.295   7.568   2.086
20294WAT     H161124   7.280   7.662   2.054
20294WAT     H261125   7.231   7.506   2.041
20295WAT      O61126   4.625   9.636   8.118
20295WAT     H161127   4.710   9.637   8.064
20295WAT     H261128   4.547   9.646   8.057
20296WAT      O61129   1.757   0.980   0.957
20296WAT     H161130   1.779   1.014   0.865
20296WAT     H261131   1.692   1.042   1.000
20297WAT      O61132   8.150   5.820   4.506
20297WAT     H161133   8.128   5.915   4.481
20297WAT     H261134   8.157   5.813   4.606
20298WAT      O61135   4.040   6.923   7.313
20298WAT     H161136   4.133   6.911   7.278
20298WAT     H261137   3.992   6.835   7.308
20299WAT      O61138   6.556   7.973   8.046
20299WAT     H161139   6.552   7.927   8.134
20299WAT     H261140   6.553   8.072   8.060
20300WAT      O61141   3.907   5.132   2.596
20300WAT     H161142   3.839   5.142   2.524
20300WAT     H261143   3.997   5.118   2.556
20301WAT      O61144   0.800   1.988   2.184
20301WAT     H161145   0.815   1.952   2.092
20301WAT     H261146   0.746   1.923   2.237
20302WAT      O61147   6.337   7.802   9.752
20302WAT     H161148   6.286   7.748   9.685
20302WAT     H261149   6.273   7.846   9.815
20303WAT      O61150   0.182   8.671   7.820
20303WAT     H161151   0.182   8.674   7.720
20303WAT     H261152   0.133   8.750   7.855
20304WAT      O61153   4.041   8.972   9.223
20304WAT     H161154   4.129   8.977   9.176
20304WAT     H261155   4.012   9.064   9.250
20305WAT      O61156   5.051   1.348   4.282
20305WAT     H161157   5.063   1.436   4.237
20305WAT     H261158   4.953   1.328   4.292
20306WAT      O61159   8.222   7.446   8.344
20306WAT     H161160   8.183   7.415   8.431
20306WAT     H261161   8.170   7.406   8.268
20307WAT      O61162   5.667   0.657   5.289
20307WAT     H161163   5.662   0.635   5.386
20307WAT     H261164   5.718   0.743   5.277
20308WAT      O61165   7.688   1.204   3.805
20308WAT     H161166   7.741   1.120   3.797
20308WAT     H261167   7.707   1.247   3.893
20309WAT      O61168   5.077   5.650   7.396
20309WAT     H161169   5.023   5.578   7.439
20309WAT     H261170   5.024   5.692   7.322
20310WAT      O61171   7.627   2.568   8.936
20310WAT     H161172   7.548   2.545   8.992
20310WAT     H261173   7.604   2.556   8.839
20311WAT      O61174   2.584   4.136   0.256
20311WAT     H161175   2.639   4.206   0.210
20311WAT     H261176   2.541   4.077   0.188
20312WAT      O61177   2.847   3.654   5.693
20312WAT     H161178   2.846   3.556   5.673
20312WAT     H261179   2.818   3.705   5.613
20313WAT      O61180   1.291   4.405   9.628
20313WAT     H161181   1.376   4.372   9.588
20313WAT     H261182   1.238   4.453   9.559
20314WAT      O61183   5.685   5.016   2.206
20314WAT     H161184   5.781   5.019   2.234
20314WAT     H261185   5.679   4.980   2.113
20315WAT      O61186   4.826   3.514   8.250
20315WAT     H161187   4.895   3.481   8.314
20315WAT     H261188   4.853   3.491   8.157
20316WAT      O61189   7.085   1.993   7.714
20316WAT     H161190   7.103   1.908   7.665
20316WAT     H261191   7.025   1.975   7.792
20317WAT      O61192   6.654   1.340   4.562
20317WAT     H161193   6.742   1.377   4.593
20317WAT     H261194   6.666   1.245   4.534
20318WAT      O61195   8.562   7.348   0.284
20318WAT     H161196   8.660   7.368   0.274
20318WAT     H261197   8.550   7.251   0.303
20319WAT      O61198   3.919   9.131   5.175
20319WAT     H161199   3.822   9.109   5.160
20319WAT     H261200   3.976   9.064   5.126
20320WAT      O61201   4.184   3.603   3.665
20320WAT     H161202   4.153   3.526   3.721
20320WAT     H261203   4.246   3.660   3.718
20321WAT      O61204   7.541   7.249   5.595
20321WAT     H161205   7.546   7.314   5.519
20321WAT     H261206   7.609   7.274   5.664
20322WAT      O61207   5.508   1.978   0.018
20322WAT     H161208   5.513   1.886  -0.019
20322WAT     H261209   5.544   2.043  -0.049
20323WAT      O61210   0.650   9.407   0.525
20323WAT     H161211   0.624   9.366   0.612
20323WAT     H261212   0.680   9.336   0.462
20324WAT      O61213   2.383   7.640   6.928
20324WAT     H161214   2.370   7.656   7.026
20324WAT     H261215   2.479   7.614   6.911
20325WAT      O61216   6.325   1.580   3.725
20325WAT     H161217   6.348   1.671   3.691
20325WAT     H261218   6.334   1.514   3.651
20326WAT      O61219   3.129   2.945   3.917
20326WAT     H161220   3.212   2.889   3.910
20326WAT     H261221   3.147   3.024   3.975
20327WAT      O61222   1.180   2.219   8.678
20327WAT     H161223   1.227   2.232   8.591
20327WAT     H261224   1.193   2.125   8.710
20328WAT      O61225   2.678   6.148   6.204
20328WAT     H161226   2.684   6.210   6.282
20328WAT     H261227   2.603   6.176   6.144
20329WAT      O61228   7.376   8.863   7.010
20329WAT     H161229   7.305   8.827   6.950
20329WAT     H261230   7.445   8.912   6.957
20330WAT      O61231   1.972   6.767   7.236
20330WAT     H161232   2.010   6.774   7.144
20330WAT     H261233   2.032   6.711   7.293
20331WAT      O61234   5.833   6.050   2.786
20331WAT     H161235   5.906   5.996   2.745
20331WAT     H261236   5.764   6.071   2.716
20332WAT      O61237   9.162   8.568   4.055
20332WAT     H161238   9.182   8.663   4.029
20332WAT     H261239   9.151   8.562   4.154
20333WAT      O61240   3.805   7.260   3.719
20333WAT     H161241   3.846   7.312   3.793
20333WAT     H261242   3.720   7.304   3.690
20334WAT      O61243   9.841   2.325   8.672
20334WAT     H161244   9.806   2.275   8.593
20334WAT     H261245   9.918   2.275   8.712
20335WAT      O61246   9.683   8.422   3.645
20335WAT     H161247   9.654   8.423   3.741
20335WAT     H261248   9.655   8.336   3.603
20336WAT      O61249   7.692   2.568   9.859
20336WAT     H161250   7.606   2.545   9.812
20336WAT     H261251   7.687   2.662   9.894
20337WAT      O61252   4.446   0.612   5.395
20337WAT     H161253   4.353   0.576   5.380
20337WAT     H261254   4.497   0.610   5.309
20338WAT      O61255   8.686   0.443   0.709
20338WAT     H161256   8.734   0.528   0.686
20338WAT     H261257   8.699   0.376   0.636
20339WAT      O61258   4.135   6.477   0.606
20339WAT     H161259   4.126   6.438   0.514
20339WAT     H261260   4.128   6.577   0.601
20340WAT      O61261   5.569   3.502   1.160
20340WAT     H161262   5.668   3.495   1.152
20340WAT     H261263   5.537   3.584   1.113
20341WAT      O61264   2.596   1.675   1.996
20341WAT     H161265   2.677   1.697   2.051
20341WAT     H261266   2.514   1.709   2.042
20342WAT      O61267   9.453   6.454   9.330
20342WAT     H161268   9.537   6.507   9.320
20342WAT     H261269   9.423   6.457   9.425
20343WAT      O61270   5.442   7.104   4.858
20343WAT     H161271   5.523   7.048   4.838
20343WAT     H261272   5.459   7.198   4.827
20344WAT      O61273   0.064   8.335   8.594
20344WAT     H161274   0.023   8.292   8.674
20344WAT     H261275  -0.008   8.375   8.537
20345WAT      O61276   9.688   6.096   0.300
20345WAT     H161277   9.740   6.035   0.240
20345WAT     H261278   9.675   6.052   0.389
20346WAT      O61279   1.172   8.123   7.538
20346WAT     H161280   1.155   8.162   7.628
20346WAT     H261281   1.236   8.046   7.546
20347WAT      O61282   9.172   1.964   3.996
20347WAT     H161283   9.175   2.063   4.009
20347WAT     H261284   9.265   1.927   3.996
20348WAT      O61285   0.129   7.697   0.196
20348WAT     H161286   0.218   7.743   0.206
20348WAT     H261287   0.074   7.713   0.278
20349WAT      O61288   0.468   0.245   2.659
20349WAT     H161289   0.368   0.237   2.658
20349WAT     H261290   0.508   0.158   2.685
20350WAT      O61291   1.095   5.799   8.102
20350WAT     H161292   1.159   5.738   8.056
20350WAT     H261293   1.112   5.893   8.073
20351WAT      O61294   9.227   3.439   2.289
20351WAT     H161295   9.250   3.495   2.209
20351WAT     H261296   9.133   3.407   2.281
20352WAT      O61297   2.642   8.699   7.771
20352WAT     H161298   2.721   8.669   7.825
20352WAT     H261299   2.565   8.637   7.788
20353WAT      O61300   0.499   5.452   7.229
20353WAT     H161301   0.547   5.531   7.189
20353WAT     H261302   0.531   5.439   7.323
20354WAT      O61303   9.617   8.672   4.315
20354WAT     H161304   9.651   8.584   4.282
20354WAT     H261305   9.647   8.685   4.410
20355WAT      O61306   2.425   7.402   4.625
20355WAT     H161307   2.438   7.304   4.639
20355WAT     H261308   2.508   7.441   4.584
20356WAT      O61309   5.977   1.041   0.376
20356WAT     H161310   6.071   1.015   0.396
20356WAT     H261311   5.926   1.052   0.462
20357WAT      O61312   4.434   1.619   5.593
20357WAT     H161313   4.376   1.558   5.539
20357WAT     H261314   4.458   1.699   5.538
20358WAT      O61315   2.667   6.608   3.196
20358WAT     H161316   2.653   6.628   3.099
20358WAT     H261317   2.655   6.510   3.211
20359WAT      O61318   6.005   2.864   9.275
20359WAT     H161319   6.056   2.950   9.276
20359WAT     H261320   5.919   2.876   9.226
20360WAT      O61321   8.728   6.045   9.519
20360WAT     H161322   8.637   6.042   9.480
20360WAT     H261323   8.728   5.998   9.608
20361WAT      O61324   5.781   4.896   7.873
20361WAT     H161325   5.826   4.979   7.907
20361WAT     H261326   5.832   4.860   7.796
20362WAT      O61327   4.654   2.390   9.353
20362WAT     H161328   4.666   2.293   9.330
20362WAT     H261329   4.589   2.431   9.289
20363WAT      O61330   6.347   9.758   7.600
20363WAT     H161331   6.435   9.731   7.559
20363WAT     H261332   6.331   9.704   7.683
20364WAT      O61333   7.410   2.794   9.625
20364WAT     H161334   7.456   2.764   9.541
20364WAT     H261335   7.317   2.757   9.627
20365WAT      O61336   5.838   7.258   5.595
20365WAT     H161337   5.745   7.228   5.619
20365WAT     H261338   5.835   7.306   5.507
20366WAT      O61339   6.197   7.581   9.685
20366WAT     H161340   6.194   7.528   9.769
20366WAT     H261341   6.133   7.543   9.618
20367WAT      O61342   6.531   1.632   9.380
20367WAT     H161343   6.590   1.681   9.316
20367WAT     H261344   6.482   1.698   9.437
20368WAT      O61345   0.902   2.459   7.135
20368WAT     H161346   0.928   2.470   7.039
20368WAT     H261347   0.984   2.460   7.192
20369WAT      O61348   5.120   0.481   8.241
20369WAT     H161349   5.069   0.397   8.222
20369WAT     H261350   5.213   0.457   8.270
20370WAT      O61351   6.921   7.478   5.292
20370WAT     H161352   7.019   7.458   5.288
20370WAT     H261353   6.880   7.460   5.203
20371WAT      O61354   9.092   9.193   3.201
20371WAT     H161355   9.161   9.198   3.273
20371WAT     H261356   9.138   9.180   3.113
20372WAT      O61357   4.145   3.351   3.427
20372WAT     H161358   4.078   3.370   3.498
20372WAT     H261359   4.200   3.272   3.452
20373WAT      O61360   6.722   8.100   0.791
20373WAT     H161361   6.714   8.182   0.847
20373WAT     H261362   6.697   8.019   0.845
20374WAT      O61363   0.520   2.219   5.848
20374WAT     H161364   0.503   2.190   5.753
20374WAT     H261365   0.559   2.311   5.848
20375WAT      O61366   3.263   7.598   5.946
20375WAT     H161367   3.264   7.625   5.850
20375WAT     H261368   3.296   7.504   5.955
20376WAT      O61369   0.444   7.860   8.811
20376WAT     H161370   0.406   7.772   8.782
20376WAT     H261371   0.388   7.934   8.773
20377WAT      O61372   2.414   8.550   9.078
20377WAT     H161373   2.454   8.540   9.169
20377WAT     H261374   2.353   8.473   9.059
20378WAT      O61375   8.882   8.782   5.260
20378WAT     H161376   8.952   8.776   5.189
20378WAT     H261377   8.870   8.878   5.286
20379WAT      O61378   1.831   9.462   3.309
20379WAT     H161379   1.794   9.376   3.345
20379WAT     H261380   1.909   9.491   3.365
20380WAT      O61381   6.237   2.730   5.011
20380WAT     H161382   6.191   2.787   4.943
20380WAT     H261383   6.335   2.729   4.992
20381WAT      O61384   2.448   0.961   8.140
20381WAT     H161385   2.494   0.920   8.061
20381WAT     H261386   2.503   1.037   8.174
20382WAT      O61387   5.810   7.589   2.950
20382WAT     H161388   5.774   7.662   2.892
20382WAT     H261389   5.741   7.565   3.019
20383WAT      O61390   4.716   2.323   6.661
20383WAT     H161391   4.677   2.282   6.744
20383WAT     H261392   4.648   2.322   6.588
20384WAT      O61393   7.020   1.224   4.273
20384WAT     H161394   6.994   1.224   4.176
20384WAT     H261395   6.997   1.135   4.314
20385WAT      O61396   8.109   9.344   3.258
20385WAT     H161397   8.081   9.248   3.255
20385WAT     H261398   8.209   9.348   3.261
20386WAT      O61399   3.302   2.637   7.414
20386WAT     H161400   3.281   2.696   7.492
20386WAT     H261401   3.219   2.588   7.386
20387WAT      O61402   6.595   6.117   4.511
20387WAT     H161403   6.682   6.153   4.544
20387WAT     H261404   6.586   6.021   4.539
20388WAT      O61405   0.899   3.479   2.960
20388WAT     H161406   0.982   3.535   2.967
20388WAT     H261407   0.833   3.525   2.900
20389WAT      O61408   3.120   0.728   5.003
20389WAT     H161409   3.111   0.720   5.102
20389WAT     H261410   3.030   0.748   4.963
20390WAT      O61411   1.938   4.682   8.784
20390WAT     H161412   1.868   4.701   8.716
20390WAT     H261413   1.897   4.636   8.863
20391WAT      O61414   4.547   8.048   1.915
20391WAT     H161415   4.557   8.079   2.010
20391WAT     H261416   4.621   8.088   1.860
20392WAT      O61417   4.672   5.861   5.639
20392WAT     H161418   4.710   5.769   5.641
20392WAT     H261419   4.635   5.884   5.729
20393WAT      O61420   5.801   5.433   4.244
20393WAT     H161421   5.898   5.416   4.228
20393WAT     H261422   5.786   5.460   4.339
20394WAT      O61423   5.730   7.169   6.189
20394WAT     H161424   5.764   7.151   6.097
20394WAT     H261425   5.795   7.132   6.256
20395WAT      O61426   6.459   6.438   0.279
20395WAT     H161427   6.522   6.372   0.320
20395WAT     H261428   6.370   6.395   0.264
20396WAT      O61429   1.545   5.340   7.139
20396WAT     H161430   1.596   5.378   7.061
20396WAT     H261431   1.608   5.289   7.198
20397WAT      O61432   4.163   2.417   8.132
20397WAT     H161433   4.191   2.502   8.176
20397WAT     H261434   4.072   2.428   8.093
20398WAT      O61435   9.886   5.919   7.586
20398WAT     H161436   9.942   5.886   7.663
20398WAT     H261437   9.800   5.869   7.584
20399WAT      O61438   1.606   4.596   6.059
20399WAT     H161439   1.564   4.597   6.150
20399WAT     H261440   1.627   4.502   6.033
20400WAT      O61441   7.422   1.815   0.706
20400WAT     H161442   7.403   1.724   0.669
20400WAT     H261443   7.498   1.856   0.655
20401WAT      O61444   6.725   1.535   4.336
20401WAT     H161445   6.641   1.541   4.282
20401WAT     H261446   6.707   1.483   4.419
20402WAT      O61447   0.612   7.105   6.085
20402WAT     H161448   0.521   7.087   6.049
20402WAT     H261449   0.610   7.186   6.143
20403WAT      O61450   4.731   0.376   3.316
20403WAT     H161451   4.728   0.298   3.253
20403WAT     H261452   4.825   0.409   3.323
20404WAT      O61453   4.851   6.205   0.141
20404WAT     H161454   4.869   6.233   0.046
20404WAT     H261455   4.914   6.132   0.166
20405WAT      O61456   1.175   0.269   6.485
20405WAT     H161457   1.232   0.187   6.494
20405WAT     H261458   1.218   0.345   6.534
20406WAT      O61459   3.476   3.243   1.357
20406WAT     H161460   3.467   3.193   1.443
20406WAT     H261461   3.552   3.204   1.304
20407WAT      O61462   2.223   0.843   8.840
20407WAT     H161463   2.317   0.842   8.806
20407WAT     H261464   2.219   0.794   8.927
20408WAT      O61465   7.885   8.612   0.305
20408WAT     H161466   7.973   8.593   0.348
20408WAT     H261467   7.819   8.543   0.333
20409WAT      O61468   0.789   1.237   5.338
20409WAT     H161469   0.868   1.190   5.300
20409WAT     H261470   0.804   1.258   5.434
20410WAT      O61471   2.075   4.141   9.323
20410WAT     H161472   1.987   4.093   9.327
20410WAT     H261473   2.149   4.074   9.329
20411WAT      O61474   9.611   0.408   0.616
20411WAT     H161475   9.707   0.414   0.588
20411WAT     H261476   9.560   0.483   0.575
20412WAT      O61477   6.054   4.714   0.846
20412WAT     H161478   6.018   4.793   0.796
20412WAT     H261479   6.154   4.714   0.840
20413WAT      O61480   2.041   3.521   0.371
20413WAT     H161481   2.105   3.506   0.296
20413WAT     H261482   1.952   3.547   0.333
20414WAT      O61483   9.436   0.162   8.364
20414WAT     H161484   9.383   0.131   8.443
20414WAT     H261485   9.531   0.133   8.374
20415WAT      O61486   1.152   8.240   8.638
20415WAT     H161487   1.122   8.200   8.725
20415WAT     H261488   1.250   8.258   8.642
20416WAT      O61489   5.372   7.631   8.814
20416WAT     H161490   5.465   7.601   8.794
20416WAT     H261491   5.311   7.552   8.818
20417WAT      O61492   1.010   7.033   7.496
20417WAT     H161493   1.035   7.085   7.414
20417WAT     H261494   1.017   6.935   7.476
20418WAT      O61495   3.696   1.759   5.376
20418WAT     H161496   3.670   1.821   5.450
20418WAT     H261497   3.667   1.666   5.400
20419WAT      O61498   4.850   1.526   1.528
20419WAT     H161499   4.832   1.619   1.560
20419WAT     H261500   4.774   1.466   1.552
20420WAT      O61501   3.713   5.990   3.131
20420WAT     H161502   3.674   6.072   3.173
20420WAT     H261503   3.733   6.009   3.035
20421WAT      O61504   4.058   8.571   1.611
20421WAT     H161505   4.093   8.632   1.539
20421WAT     H261506   4.135   8.528   1.658
20422WAT      O61507   3.013   2.033   5.077
20422WAT     H161508   3.007   1.945   5.029
20422WAT     H261509   2.978   2.105   5.017
20423WAT      O61510   0.810   9.508   5.306
20423WAT     H161511   0.753   9.441   5.259
20423WAT     H261512   0.846   9.573   5.239
20424WAT      O61513   2.722   1.715   9.428
20424WAT     H161514   2.630   1.688   9.456
20424WAT     H261515   2.721   1.811   9.398
20425WAT      O61516   5.380   3.381   8.693
20425WAT     H161517   5.376   3.450   8.766
20425WAT     H261518   5.288   3.345   8.677
20426WAT      O61519   9.057   8.424   7.204
20426WAT     H161520   9.154   8.407   7.191
20426WAT     H261521   9.040   8.450   7.299
20427WAT      O61522   7.106   0.414   9.196
20427WAT     H161523   7.184   0.358   9.168
20427WAT     H261524   7.061   0.371   9.274
20428WAT      O61525   6.996   9.556   1.028
20428WAT     H161526   6.902   9.549   0.995
20428WAT     H261527   7.022   9.471   1.074
20429WAT      O61528   9.117   2.608   9.877
20429WAT     H161529   9.087   2.524   9.922
20429WAT     H261530   9.093   2.687   9.934
20430WAT      O61531   6.364   4.025   1.360
20430WAT     H161532   6.301   4.048   1.434
20430WAT     H261533   6.363   4.097   1.291
20431WAT      O61534   5.061   5.569   0.746
20431WAT     H161535   5.028   5.659   0.718
20431WAT     H261536   5.020   5.499   0.688
20432WAT      O61537   8.972   3.254   9.581
20432WAT     H161538   8.884   3.286   9.545
20432WAT     H261539   9.011   3.325   9.639
20433WAT      O61540   7.526   1.825   7.316
20433WAT     H161541   7.504   1.921   7.333
20433WAT     H261542   7.537   1.778   7.404
20434WAT      O61543   3.392   9.369   1.342
20434WAT     H161544   3.294   9.354   1.336
20434WAT     H261545   3.420   9.370   1.438
20435WAT      O61546   8.719   8.939   5.633
20435WAT     H161547   8.779   8.873   5.589
20435WAT     H261548   8.720   8.924   5.732
20436WAT      O61549   1.922   7.270   9.352
20436WAT     H161550   1.969   7.293   9.436
20436WAT     H261551   1.883   7.178   9.359
20437WAT      O61552   5.768   3.164   9.136
20437WAT     H161553   5.716   3.193   9.056
20437WAT     H261554   5.710   3.167   9.217
20438WAT      O61555   4.640   2.606   4.832
20438WAT     H161556   4.656   2.525   4.776
20438WAT     H261557   4.677   2.687   4.787
20439WAT      O61558   2.986   6.021   7.780
20439WAT     H161559   3.050   6.064   7.843
20439WAT     H261560   2.948   6.091   7.719
20440WAT      O61561   1.635   3.619   3.737
20440WAT     H161562   1.558   3.560   3.761
20440WAT     H261563   1.720   3.567   3.741
20441WAT      O61564   7.506   6.541   9.055
20441WAT     H161565   7.582   6.551   9.120
20441WAT     H261566   7.535   6.486   8.977
20442WAT      O61567   6.907   5.360   4.437
20442WAT     H161568   6.858   5.446   4.426
20442WAT     H261569   6.900   5.330   4.533
20443WAT      O61570   3.125   6.322   6.852
20443WAT     H161571   3.156   6.251   6.915
20443WAT     H261572   3.154   6.301   6.759
20444WAT      O61573   7.142   8.003   2.718
20444WAT     H161574   7.102   7.923   2.673
20444WAT     H261575   7.120   8.085   2.665
20445WAT      O61576   3.484   9.383   2.013
20445WAT     H161577   3.399   9.381   1.960
20445WAT     H261578   3.490   9.302   2.071
20446WAT      O61579   9.144   6.181   9.051
20446WAT     H161580   9.076   6.160   8.981
20446WAT     H261581   9.234   6.146   9.023
20447WAT      O61582   3.534   9.246   2.786
20447WAT     H161583   3.459   9.300   2.748
20447WAT     H261584   3.599   9.306   2.833
20448WAT      O61585   2.521   7.467   2.853
20448WAT     H161586   2.544   7.534   2.782
20448WAT     H261587   2.605   7.426   2.889
20449WAT      O61588   4.270   7.225   2.078
20449WAT     H161589   4.193   7.283   2.101
20449WAT     H261590   4.354   7.262   2.119
20450WAT      O61591   4.730   8.785   1.158
20450WAT     H161592   4.694   8.865   1.207
20450WAT     H261593   4.681   8.774   1.072
20451WAT      O61594   7.105   1.959   4.438
20451WAT     H161595   7.014   1.922   4.455
20451WAT     H261596   7.133   2.015   4.516
20452WAT      O61597   1.291   1.267   7.143
20452WAT     H161598   1.325   1.204   7.074
20452WAT     H261599   1.193   1.255   7.155
20453WAT      O61600   1.857   2.924   3.791
20453WAT     H161601   1.902   3.007   3.827
20453WAT     H261602   1.910   2.844   3.817
20454WAT      O61603   3.874   9.256   6.426
20454WAT     H161604   3.960   9.276   6.473
20454WAT     H261605   3.872   9.160   6.398
20455WAT      O61606   6.422   9.616   1.053
20455WAT     H161607   6.417   9.689   1.121
20455WAT     H261608   6.486   9.642   0.981
20456WAT      O61609   2.000   3.859   3.596
20456WAT     H161610   1.965   3.879   3.504
20456WAT     H261611   2.028   3.763   3.601
20457WAT      O61612   6.119   7.024   2.460
20457WAT     H161613   6.185   6.974   2.516
20457WAT     H261614   6.125   7.121   2.480
20458WAT      O61615   0.736   7.333   2.220
20458WAT     H161616   0.779   7.330   2.130
20458WAT     H261617   0.803   7.306   2.290
20459WAT      O61618   4.037   8.633   4.826
20459WAT     H161619   3.989   8.716   4.854
20459WAT     H261620   4.007   8.557   4.883
20460WAT      O61621   2.079   3.812   2.525
20460WAT     H161622   2.080   3.728   2.472
20460WAT     H261623   2.172   3.833   2.556
20461WAT      O61624   4.804   3.043   8.271
20461WAT     H161625   4.722   3.099   8.281
20461WAT     H261626   4.845   3.060   8.181
20462WAT      O61627   4.977   8.223   5.387
20462WAT     H161628   4.901   8.172   5.425
20462WAT     H261629   5.056   8.217   5.448
20463WAT      O61630   2.385   2.878   4.357
20463WAT     H161631   2.363   2.961   4.305
20463WAT     H261632   2.429   2.812   4.297
20464WAT      O61633   6.706   0.671   1.630
20464WAT     H161634   6.804   0.683   1.647
20464WAT     H261635   6.658   0.757   1.651
20465WAT      O61636   9.743   5.773   1.436
20465WAT     H161637   9.748   5.865   1.475
20465WAT     H261638   9.833   5.745   1.404
20466WAT      O61639   3.313   4.473   7.968
20466WAT     H161640   3.391   4.414   7.987
20466WAT     H261641   3.257   4.482   8.051
20467WAT      O61642   9.261   6.896   6.853
20467WAT     H161643   9.241   6.828   6.923
20467WAT     H261644   9.177   6.920   6.805
20468WAT      O61645   1.835   4.856   0.008
20468WAT     H161646   1.744   4.841   0.047
20468WAT     H261647   1.893   4.777   0.029
20469WAT      O61648   0.327   0.343   6.447
20469WAT     H161649   0.278   0.256   6.451
20469WAT     H261650   0.303   0.391   6.362
20470WAT      O61651   9.599   7.443   5.851
20470WAT     H161652   9.688   7.404   5.876
20470WAT     H261653   9.611   7.508   5.776
20471WAT      O61654   6.289   0.253   1.645
20471WAT     H161655   6.280   0.305   1.730
20471WAT     H261656   6.294   0.155   1.666
20472WAT      O61657   8.769   2.642   1.918
20472WAT     H161658   8.856   2.670   1.958
20472WAT     H261659   8.725   2.576   1.979
20473WAT      O61660   8.634   7.449   2.452
20473WAT     H161661   8.579   7.388   2.395
20473WAT     H261662   8.574   7.503   2.511
20474WAT      O61663   9.672   2.376   5.398
20474WAT     H161664   9.699   2.283   5.376
20474WAT     H261665   9.713   2.404   5.485
20475WAT      O61666   5.449   6.713   2.232
20475WAT     H161667   5.416   6.807   2.222
20475WAT     H261668   5.371   6.652   2.248
20476WAT      O61669   4.512   6.740   4.153
20476WAT     H161670   4.570   6.664   4.123
20476WAT     H261671   4.566   6.824   4.154
20477WAT      O61672   0.900   4.276   9.567
20477WAT     H161673   0.837   4.212   9.611
20477WAT     H261674   0.993   4.240   9.573
20478WAT      O61675   9.030   7.359   0.777
20478WAT     H161676   9.105   7.343   0.842
20478WAT     H261677   8.951   7.396   0.826
20479WAT      O61678   1.141   4.354   4.283
20479WAT     H161679   1.152   4.262   4.245
20479WAT     H261680   1.156   4.422   4.211
20480WAT      O61681   8.514   1.731   6.166
20480WAT     H161682   8.484   1.651   6.115
20480WAT     H261683   8.470   1.732   6.256
20481WAT      O61684   8.646   1.342   9.250
20481WAT     H161685   8.733   1.390   9.237
20481WAT     H261686   8.646   1.258   9.196
20482WAT      O61687   9.170   3.819   7.951
20482WAT     H161688   9.140   3.859   7.864
20482WAT     H261689   9.267   3.798   7.946
20483WAT      O61690   2.502   7.515   0.379
20483WAT     H161691   2.572   7.498   0.448
20483WAT     H261692   2.510   7.610   0.346
20484WAT      O61693   0.122   8.178   6.773
20484WAT     H161694   0.175   8.165   6.857
20484WAT     H261695   0.131   8.273   6.742
20485WAT      O61696   0.217   8.054   7.435
20485WAT     H161697   0.202   8.144   7.476
20485WAT     H261698   0.132   8.003   7.435
20486WAT      O61699   4.325   0.029   8.860
20486WAT     H161700   4.345   0.042   8.957
20486WAT     H261701   4.304  -0.067   8.843
20487WAT      O61702   1.081   3.700   4.235
20487WAT     H161703   1.051   3.630   4.170
20487WAT     H261704   1.010   3.771   4.242
20488WAT      O61705   1.547   3.076   1.821
20488WAT     H161706   1.460   3.045   1.783
20488WAT     H261707   1.621   3.016   1.789
20489WAT      O61708   7.255   0.192   6.825
20489WAT     H161709   7.283   0.262   6.890
20489WAT     H261710   7.158   0.201   6.805
20490WAT      O61711   8.974   2.055   2.799
20490WAT     H161712   8.968   2.102   2.886
20490WAT     H261713   8.891   2.002   2.784
20491WAT      O61714   1.919   6.601   0.734
20491WAT     H161715   1.835   6.639   0.695
20491WAT     H261716   1.901   6.568   0.826
20492WAT      O61717   6.427   7.746   5.722
20492WAT     H161718   6.513   7.786   5.689
20492WAT     H261719   6.419   7.760   5.820
20493WAT      O61720   6.389   2.884   8.435
20493WAT     H161721   6.406   2.867   8.338
20493WAT     H261722   6.416   2.804   8.489
20494WAT      O61723   1.663   2.823   0.998
20494WAT     H161724   1.585   2.772   1.035
20494WAT     H261725   1.661   2.820   0.898
20495WAT      O61726   9.517   1.704   8.137
20495WAT     H161727   9.455   1.682   8.212
20495WAT     H261728   9.505   1.637   8.064
20496WAT      O61729   7.102   2.314   8.656
20496WAT     H161730   7.032   2.264   8.604
20496WAT     H261731   7.161   2.249   8.704
20497WAT      O61732   3.133   9.704   3.278
20497WAT     H161733   3.169   9.767   3.346
20497WAT     H261734   3.103   9.755   3.197
20498WAT      O61735   0.316   2.582   7.009
20498WAT     H161736   0.354   2.673   6.988
20498WAT     H261737   0.241   2.562   6.947
20499WAT      O61738   4.205   7.987   7.436
20499WAT     H161739   4.301   8.016   7.435
20499WAT     H261740   4.153   8.043   7.500
20500WAT      O61741   2.087   4.791   5.289
20500WAT     H161742   2.056   4.793   5.194
20500WAT     H261743   2.144   4.710   5.304
20501WAT      O61744   5.644   9.650   0.779
20501WAT     H161745   5.662   9.747   0.763
20501WAT     H261746   5.657   9.599   0.694
20502WAT      O61747   8.612   9.702   0.576
20502WAT     H161748   8.694   9.704   0.519
20502WAT     H261749   8.635   9.728   0.669
20503WAT      O61750   0.267   8.849   3.427
20503WAT     H161751   0.205   8.774   3.449
20503WAT     H261752   0.346   8.845   3.489
20504WAT      O61753   1.861   5.063   3.058
20504WAT     H161754   1.816   5.076   2.970
20504WAT     H261755   1.806   5.004   3.116
20505WAT      O61756   3.172   3.338   5.389
20505WAT     H161757   3.216   3.347   5.478
20505WAT     H261758   3.072   3.340   5.402
20506WAT      O61759   1.277   0.289   7.769
20506WAT     H161760   1.347   0.218   7.777
20506WAT     H261761   1.188   0.247   7.751
20507WAT      O61762   8.828   0.320   2.213
20507WAT     H161763   8.787   0.253   2.274
20507WAT     H261764   8.908   0.280   2.168
20508WAT      O61765   2.275   2.715   7.396
20508WAT     H161766   2.218   2.634   7.408
20508WAT     H261767   2.343   2.698   7.325
20509WAT      O61768   6.071   2.723   2.629
20509WAT     H161769   6.097   2.627   2.616
20509WAT     H261770   6.027   2.757   2.546
20510WAT      O61771   6.419   6.124   3.662
20510WAT     H161772   6.447   6.053   3.727
20510WAT     H261773   6.341   6.091   3.609
20511WAT      O61774   4.965   5.317   5.091
20511WAT     H161775   4.935   5.253   5.020
20511WAT     H261776   5.059   5.345   5.074
20512WAT      O61777   5.554   9.111   7.421
20512WAT     H161778   5.479   9.055   7.386
20512WAT     H261779   5.543   9.122   7.520
20513WAT      O61780   8.010   3.944   5.175
20513WAT     H161781   8.028   3.853   5.211
20513WAT     H261782   8.008   4.010   5.251
20514WAT      O61783   5.095   4.930   4.026
20514WAT     H161784   5.053   5.013   4.063
20514WAT     H261785   5.194   4.933   4.042
20515WAT      O61786   0.635   0.147   5.270
20515WAT     H161787   0.580   0.215   5.318
20515WAT     H261788   0.730   0.176   5.268
20516WAT      O61789   1.373   7.933   7.556
20516WAT     H161790   1.441   7.934   7.482
20516WAT     H261791   1.414   7.895   7.639
20517WAT      O61792   6.406   6.386   2.396
20517WAT     H161793   6.466   6.465   2.411
20517WAT     H261794   6.312   6.411   2.419
20518WAT      O61795   6.821   0.833   9.873
20518WAT     H161796   6.870   0.757   9.914
20518WAT     H261797   6.826   0.826   9.773
20519WAT      O61798   2.710   4.414   4.932
20519WAT     H161799   2.738   4.390   4.839
20519WAT     H261800   2.614   4.387   4.946
20520WAT      O61801   3.355   3.113   6.344
20520WAT     H161802   3.258   3.095   6.330
20520WAT     H261803   3.392   3.166   6.268
20521WAT      O61804   1.722   1.284   0.810
20521WAT     H161805   1.724   1.195   0.765
20521WAT     H261806   1.713   1.356   0.741
20522WAT      O61807   4.327   1.743   4.156
20522WAT     H161808   4.391   1.820   4.153
20522WAT     H261809   4.273   1.749   4.240
20523WAT      O61810   7.939   5.062   8.390
20523WAT     H161811   8.021   5.098   8.435
20523WAT     H261812   7.863   5.125   8.407
20524WAT      O61813   3.271   3.595   8.512
20524WAT     H161814   3.329   3.676   8.525
20524WAT     H261815   3.285   3.558   8.421
20525WAT      O61816   3.099   5.459   1.748
20525WAT     H161817   3.122   5.401   1.669
20525WAT     H261818   3.166   5.533   1.755
20526WAT      O61819   5.872   6.150   9.568
20526WAT     H161820   5.893   6.059   9.601
20526WAT     H261821   5.957   6.196   9.540
20527WAT      O61822   9.338   1.939   6.679
20527WAT     H161823   9.310   2.007   6.747
20527WAT     H261824   9.320   1.975   6.587
20528WAT      O61825   2.005   8.657   6.816
20528WAT     H161826   1.991   8.566   6.777
20528WAT     H261827   1.944   8.722   6.770
20529WAT      O61828   4.769   3.025   4.195
20529WAT     H161829   4.861   3.012   4.232
20529WAT     H261830   4.746   2.948   4.135
20530WAT      O61831   4.089   4.913   0.481
20530WAT     H161832   4.094   4.840   0.413
20530WAT     H261833   4.181   4.950   0.496
20531WAT      O61834   5.851   4.488   1.303
20531WAT     H161835   5.873   4.494   1.400
20531WAT     H261836   5.928   4.448   1.254
20532WAT      O61837   0.591   5.350   0.570
20532WAT     H161838   0.673   5.322   0.520
20532WAT     H261839   0.512   5.346   0.508
20533WAT      O61840   9.817   8.135   2.383
20533WAT     H161841   9.774   8.187   2.456
20533WAT     H261842   9.853   8.049   2.419
20534WAT      O61843   7.725   1.015   0.535
20534WAT     H161844   7.673   0.996   0.619
20534WAT     H261845   7.808   0.958   0.534
20535WAT      O61846   5.547  -0.004   5.480
20535WAT     H161847   5.468  -0.001   5.540
20535WAT     H261848   5.581   0.090   5.465
20536WAT      O61849   7.335   7.415   2.979
20536WAT     H161850   7.239   7.405   3.004
20536WAT     H261851   7.376   7.489   3.031
20537WAT      O61852   5.400   6.957   3.278
20537WAT     H161853   5.443   7.016   3.347
20537WAT     H261854   5.340   6.892   3.324
20538WAT      O61855   3.037   1.476   8.684
20538WAT     H161856   3.076   1.564   8.657
20538WAT     H261857   3.017   1.476   8.782
20539WAT      O61858   8.505   3.976   2.090
20539WAT     H161859   8.406   3.970   2.096
20539WAT     H261860   8.532   4.069   2.067
20540WAT      O61861   8.376   0.262   1.037
20540WAT     H161862   8.332   0.274   1.126
20540WAT     H261863   8.321   0.307   0.966
20541WAT      O61864   0.011   6.664   4.823
20541WAT     H161865  -0.013   6.758   4.801
20541WAT     H261866  -0.039   6.635   4.905
20542WAT      O61867   4.511   3.157   9.373
20542WAT     H161868   4.573   3.108   9.312
20542WAT     H261869   4.429   3.101   9.389
20543WAT      O61870   2.916   6.192   9.349
20543WAT     H161871   2.892   6.143   9.265
20543WAT     H261872   2.874   6.283   9.348
20544WAT      O61873   8.412   2.162   9.882
20544WAT     H161874   8.407   2.117   9.971
20544WAT     H261875   8.321   2.194   9.856
20545WAT      O61876   1.405   2.247   7.520
20545WAT     H161877   1.487   2.198   7.490
20545WAT     H261878   1.339   2.182   7.557
20546WAT      O61879   0.714   6.156   0.085
20546WAT     H161880   0.696   6.169   0.182
20546WAT     H261881   0.673   6.230   0.033
20547WAT      O61882   2.045   1.055   5.521
20547WAT     H161883   2.036   1.121   5.446
20547WAT     H261884   1.955   1.035   5.558
20548WAT      O61885   3.495   9.546   8.996
20548WAT     H161886   3.464   9.582   8.909
20548WAT     H261887   3.514   9.623   9.058
20549WAT      O61888   1.158   1.288   3.091
20549WAT     H161889   1.178   1.302   3.188
20549WAT     H261890   1.234   1.321   3.035
20550WAT      O61891   6.655   7.132   4.352
20550WAT     H161892   6.590   7.112   4.425
20550WAT     H261893   6.692   7.224   4.365
20551WAT      O61894   3.236   6.217   0.507
20551WAT     H161895   3.260   6.121   0.526
20551WAT     H261896   3.169   6.248   0.574
20552WAT      O61897   6.107   0.125   0.250
20552WAT     H161898   6.149   0.100   0.163
20552WAT     H261899   6.035   0.059   0.272
20553WAT      O61900   9.886   4.594   5.232
20553WAT     H161901   9.847   4.542   5.308
20553WAT     H261902   9.847   4.686   5.232
20554WAT      O61903   2.317   8.474   6.670
20554WAT     H161904   2.343   8.495   6.764
20554WAT     H261905   2.286   8.379   6.664
20555WAT      O61906   5.051   5.250   7.855
20555WAT     H161907   4.976   5.184   7.843
20555WAT     H261908   5.027   5.315   7.927
20556WAT      O61909   0.486   0.670   3.797
20556WAT     H161910   0.517   0.620   3.877
20556WAT     H261911   0.388   0.692   3.806
20557WAT      O61912   1.314   7.615   0.669
20557WAT     H161913   1.314   7.714   0.686
20557WAT     H261914   1.235   7.590   0.613
20558WAT      O61915   8.750   1.786   8.779
20558WAT     H161916   8.830   1.735   8.812
20558WAT     H261917   8.696   1.727   8.719
20559WAT      O61918   9.167   9.560   4.924
20559WAT     H161919   9.094   9.492   4.924
20559WAT     H261920   9.199   9.576   5.017
20560WAT      O61921   1.722   9.640   6.604
20560WAT     H161922   1.775   9.717   6.571
20560WAT     H261923   1.783   9.572   6.645
20561WAT      O61924   5.314   5.771   2.211
20561WAT     H161925   5.291   5.797   2.305
20561WAT     H261926   5.248   5.704   2.178
20562WAT      O61927   5.822   8.673   2.365
20562WAT     H161928   5.855   8.719   2.447
20562WAT     H261929   5.735   8.714   2.337
20563WAT      O61930   6.518   0.142   3.417
20563WAT     H161931   6.460   0.219   3.443
20563WAT     H261932   6.610   0.155   3.453
20564WAT      O61933   5.768   9.049   8.884
20564WAT     H161934   5.802   8.955   8.891
20564WAT     H261935   5.684   9.050   8.830
20565WAT      O61936   5.709   1.371   3.514
20565WAT     H161937   5.662   1.300   3.461
20565WAT     H261938   5.658   1.457   3.505
20566WAT      O61939   0.293   7.485   6.582
20566WAT     H161940   0.193   7.481   6.583
20566WAT     H261941   0.330   7.397   6.613
20567WAT      O61942   0.510   5.416   1.503
20567WAT     H161943   0.590   5.435   1.446
20567WAT     H261944   0.427   5.442   1.453
20568WAT      O61945   7.283   2.881   1.491
20568WAT     H161946   7.260   2.830   1.408
20568WAT     H261947   7.207   2.877   1.555
20569WAT      O61948   5.270   4.133   3.103
20569WAT     H161949   5.226   4.186   3.176
20569WAT     H261950   5.366   4.162   3.094
20570WAT      O61951   2.535   0.246   6.407
20570WAT     H161952   2.533   0.286   6.315
20570WAT     H261953   2.559   0.149   6.401
20571WAT      O61954   0.455   6.426   0.086
20571WAT     H161955   0.369   6.397   0.129
20571WAT     H261956   0.468   6.378  -0.001
20572WAT      O61957   5.849   1.800   4.684
20572WAT     H161958   5.821   1.889   4.720
20572WAT     H261959   5.874   1.810   4.587
20573WAT      O61960   0.346   9.769   6.504
20573WAT     H161961   0.382   9.720   6.425
20573WAT     H261962   0.286   9.843   6.473
20574WAT      O61963   1.563   9.690   5.141
20574WAT     H161964   1.643   9.638   5.110
20574WAT     H261965   1.525   9.647   5.223
20575WAT      O61966   7.132   1.506   8.892
20575WAT     H161967   7.232   1.506   8.894
20575WAT     H261968   7.100   1.532   8.801
20576WAT      O61969   0.816   1.294   7.239
20576WAT     H161970   0.793   1.391   7.229
20576WAT     H261971   0.733   1.239   7.231
20577WAT      O61972   5.215   5.689   1.118
20577WAT     H161973   5.286   5.639   1.068
20577WAT     H261974   5.125   5.652   1.092
20578WAT      O61975   1.657   4.710   3.860
20578WAT     H161976   1.684   4.701   3.764
20578WAT     H261977   1.606   4.795   3.872
20579WAT      O61978   5.921   1.821   2.157
20579WAT     H161979   5.881   1.819   2.249
20579WAT     H261980   6.017   1.848   2.164
20580WAT      O61981   5.312   1.899   6.092
20580WAT     H161982   5.285   1.943   6.178
20580WAT     H261983   5.355   1.966   6.032
20581WAT      O61984   4.505   0.802   7.059
20581WAT     H161985   4.540   0.887   7.019
20581WAT     H261986   4.563   0.726   7.030
20582WAT      O61987   1.519   6.624   5.359
20582WAT     H161988   1.443   6.674   5.401
20582WAT     H261989   1.483   6.562   5.289
20583WAT      O61990   5.224   6.316   3.633
20583WAT     H161991   5.192   6.401   3.675
20583WAT     H261992   5.323   6.310   3.642
20584WAT      O61993   1.682   5.184   7.973
20584WAT     H161994   1.652   5.107   8.028
20584WAT     H261995   1.775   5.211   7.999
20585WAT      O61996   3.107   1.646   4.038
20585WAT     H161997   3.020   1.614   4.001
20585WAT     H261998   3.177   1.576   4.024
20586WAT      O61999   0.653   5.178   4.940
20586WAT     H162000   0.566   5.170   4.989
20586WAT     H262001   0.708   5.096   4.957
20587WAT      O62002   5.340   8.319   6.545
20587WAT     H162003   5.404   8.242   6.545
20587WAT     H262004   5.269   8.303   6.614
20588WAT      O62005   2.549   0.743   9.121
20588WAT     H162006   2.634   0.795   9.111
20588WAT     H262007   2.550   0.695   9.209
20589WAT      O62008   9.600   9.682   7.033
20589WAT     H162009   9.581   9.584   7.019
20589WAT     H262010   9.699   9.697   7.037
20590WAT      O62011   6.949   8.816   0.085
20590WAT     H162012   6.868   8.774   0.044
20590WAT     H262013   7.031   8.776   0.043
20591WAT      O62014   7.782   8.747   7.732
20591WAT     H162015   7.878   8.730   7.710
20591WAT     H262016   7.768   8.845   7.746
20592WAT      O62017   2.782   4.297   6.001
20592WAT     H162018   2.694   4.344   6.006
20592WAT     H262019   2.766   4.198   5.997
20593WAT      O62020   7.854   9.367   2.299
20593WAT     H162021   7.838   9.270   2.282
20593WAT     H262022   7.882   9.411   2.213
20594WAT      O62023   5.895   6.680   7.363
20594WAT     H162024   5.843   6.765   7.353
20594WAT     H262025   5.847   6.606   7.317
20595WAT      O62026   7.327   6.570   0.385
20595WAT     H162027   7.291   6.640   0.447
20595WAT     H262028   7.390   6.613   0.320
20596WAT      O62029   4.066   9.482   7.633
20596WAT     H162030   3.983   9.535   7.652
20596WAT     H262031   4.138   9.508   7.697
20597WAT      O62032   9.235   6.989   7.486
20597WAT     H162033   9.287   7.064   7.448
20597WAT     H262034   9.283   6.952   7.566
20598WAT      O62035   3.165   5.502   7.281
20598WAT     H162036   3.080   5.492   7.229
20598WAT     H262037   3.243   5.483   7.221
20599WAT      O62038   4.550   5.762   0.232
20599WAT     H162039   4.522   5.821   0.156
20599WAT     H262040   4.481   5.691   0.246
20600WAT      O62041   3.909   7.324   4.007
20600WAT     H162042   3.986   7.280   4.053
20600WAT     H262043   3.909   7.422   4.029
20601WAT      O62044   9.814   4.450   1.558
20601WAT     H162045   9.912   4.448   1.541
20601WAT     H262046   9.769   4.378   1.505
20602WAT      O62047   9.875   2.683   7.716
20602WAT     H162048   9.957   2.693   7.659
20602WAT     H262049   9.899   2.699   7.812
20603WAT      O62050   1.168   7.018   9.583
20603WAT     H162051   1.149   7.094   9.522
20603WAT     H262052   1.090   7.003   9.643
20604WAT      O62053   3.467   2.735   5.160
20604WAT     H162054   3.427   2.817   5.118
20604WAT     H262055   3.548   2.761   5.212
20605WAT      O62056   9.766   9.624   2.393
20605WAT     H162057   9.842   9.574   2.350
20605WAT     H262058   9.698   9.647   2.323
20606WAT      O62059   9.519   0.109   9.167
20606WAT     H162060   9.511   0.187   9.229
20606WAT     H262061   9.521   0.141   9.072
20607WAT      O62062   9.702   8.207   6.631
20607WAT     H162063   9.751   8.127   6.666
20607WAT     H262064   9.622   8.176   6.579
20608WAT      O62065   9.149   9.339   9.404
20608WAT     H162066   9.202   9.271   9.354
20608WAT     H262067   9.118   9.301   9.491
20609WAT      O62068   8.718   8.859   0.030
20609WAT     H162069   8.705   8.767   0.067
20609WAT     H262070   8.653   8.922   0.074
20610WAT      O62071   6.500   6.451   4.326
20610WAT     H162072   6.537   6.497   4.245
20610WAT     H262073   6.463   6.519   4.389
20611WAT      O62074   9.725   4.525   9.244
20611WAT     H162075   9.650   4.490   9.301
20611WAT     H262076   9.760   4.610   9.284
20612WAT      O62077   6.050   8.550   6.713
20612WAT     H162078   6.086   8.641   6.690
20612WAT     H262079   6.124   8.483   6.711
20613WAT      O62080   4.859   0.942   4.986
20613WAT     H162081   4.898   0.981   5.070
20613WAT     H262082   4.867   0.843   4.989
20614WAT      O62083   3.160   1.304   0.517
20614WAT     H162084   3.143   1.221   0.464
20614WAT     H262085   3.202   1.374   0.458
20615WAT      O62086   7.815   7.216   8.748
20615WAT     H162087   7.819   7.205   8.847
20615WAT     H262088   7.762   7.141   8.708
20616WAT      O62089   8.279   4.566   7.499
20616WAT     H162090   8.195   4.619   7.491
20616WAT     H262091   8.273   4.506   7.579
20617WAT      O62092   6.510   7.041   6.213
20617WAT     H162093   6.521   7.038   6.312
20617WAT     H262094   6.446   7.113   6.188
20618WAT      O62095   8.462   3.608   1.631
20618WAT     H162096   8.507   3.685   1.676
20618WAT     H262097   8.364   3.626   1.624
20619WAT      O62098   3.226   0.321   0.935
20619WAT     H162099   3.151   0.272   0.981
20619WAT     H262100   3.313   0.280   0.962
20620WAT      O62101   0.821   0.629   0.442
20620WAT     H162102   0.827   0.643   0.541
20620WAT     H262103   0.741   0.677   0.406
20621WAT      O62104   0.575   7.540   5.832
20621WAT     H162105   0.657   7.591   5.807
20621WAT     H262106   0.519   7.525   5.750
20622WAT      O62107   2.677   2.929   1.653
20622WAT     H162108   2.724   2.982   1.724
20622WAT     H262109   2.608   2.871   1.696
20623WAT      O62110   6.485   2.414   1.493
20623WAT     H162111   6.389   2.401   1.518
20623WAT     H262112   6.492   2.431   1.395
20624WAT      O62113   4.900   9.801   6.746
20624WAT     H162114   4.883   9.760   6.656
20624WAT     H262115   4.899   9.900   6.738
20625WAT      O62116   3.000   7.798   2.576
20625WAT     H162117   2.921   7.838   2.529
20625WAT     H262118   2.970   7.760   2.664
20626WAT      O62119   8.140   9.295   5.173
20626WAT     H162120   8.109   9.326   5.084
20626WAT     H262121   8.070   9.237   5.215
20627WAT      O62122   2.491   1.961   3.518
20627WAT     H162123   2.401   2.003   3.532
20627WAT     H262124   2.552   1.988   3.593
20628WAT      O62125   5.220   0.868   4.476
20628WAT     H162126   5.257   0.872   4.383
20628WAT     H262127   5.235   0.777   4.514
20629WAT      O62128   0.129   4.546   3.074
20629WAT     H162129   0.096   4.597   3.152
20629WAT     H262130   0.190   4.604   3.019
20630WAT      O62131   8.547   6.031   5.481
20630WAT     H162132   8.565   6.078   5.567
20630WAT     H262133   8.608   6.067   5.410
20631WAT      O62134   1.288   2.912   6.147
20631WAT     H162135   1.276   2.828   6.201
20631WAT     H262136   1.300   2.990   6.208
20632WAT      O62137   1.789   2.700   1.553
20632WAT     H162138   1.881   2.670   1.578
20632WAT     H262139   1.763   2.779   1.608
20633WAT      O62140   1.483   4.176   5.008
20633WAT     H162141   1.471   4.095   5.066
20633WAT     H262142   1.566   4.165   4.954
20634WAT      O62143   3.161   6.196   1.290
20634WAT     H162144   3.153   6.263   1.364
20634WAT     H262145   3.140   6.105   1.326
20635WAT      O62146   4.470   6.260   2.363
20635WAT     H162147   4.373   6.268   2.386
20635WAT     H262148   4.522   6.331   2.411
20636WAT      O62149   2.353   5.393   1.340
20636WAT     H162150   2.296   5.431   1.268
20636WAT     H262151   2.388   5.304   1.310
20637WAT      O62152   0.070   3.512   6.602
20637WAT     H162153   0.035   3.550   6.516
20637WAT     H262154   0.170   3.510   6.599
20638WAT      O62155   1.451   7.116   0.578
20638WAT     H162156   1.541   7.073   0.572
20638WAT     H262157   1.462   7.212   0.602
20639WAT      O62158   3.370   2.831   4.343
20639WAT     H162159   3.284   2.847   4.392
20639WAT     H262160   3.350   2.804   4.249
20640WAT      O62161   0.560   0.594   4.895
20640WAT     H162162   0.512   0.682   4.901
20640WAT     H262163   0.535   0.537   4.974
20641WAT      O62164   1.745   8.848   6.206
20641WAT     H162165   1.666   8.798   6.240
20641WAT     H262166   1.800   8.880   6.283
20642WAT      O62167   3.898   1.951   2.948
20642WAT     H162168   3.877   2.038   2.994
20642WAT     H262169   3.988   1.958   2.906
20643WAT      O62170   4.851   9.513   0.339
20643WAT     H162171   4.752   9.520   0.332
20643WAT     H262172   4.892   9.602   0.317
20644WAT      O62173   5.875   0.571   1.742
20644WAT     H162174   5.854   0.498   1.677
20644WAT     H262175   5.837   0.658   1.709
20645WAT      O62176   8.540   3.020   8.316
20645WAT     H162177   8.487   2.950   8.268
20645WAT     H262178   8.567   3.092   8.252
20646WAT      O62179   8.282   9.721   0.367
20646WAT     H162180   8.198   9.673   0.391
20646WAT     H262181   8.272   9.818   0.389
20647WAT      O62182   3.634   2.753   9.739
20647WAT     H162183   3.629   2.717   9.832
20647WAT     H262184   3.644   2.853   9.742
20648WAT      O62185   3.185   4.703   8.800
20648WAT     H162186   3.142   4.630   8.854
20648WAT     H262187   3.275   4.724   8.839
20649WAT      O62188   3.101   1.075   3.048
20649WAT     H162189   3.014   1.028   3.065
20649WAT     H262190   3.111   1.091   2.950
20650WAT      O62191   0.887   5.341   5.873
20650WAT     H162192   0.899   5.283   5.793
20650WAT     H262193   0.944   5.308   5.948
20651WAT      O62194   8.547   6.364   7.341
20651WAT     H162195   8.586   6.406   7.260
20651WAT     H262196   8.584   6.272   7.353
20652WAT      O62197   4.364   6.474   5.126
20652WAT     H162198   4.448   6.428   5.153
20652WAT     H262199   4.386   6.551   5.066
20653WAT      O62200   3.608   4.835   7.596
20653WAT     H162201   3.644   4.912   7.647
20653WAT     H262202   3.634   4.750   7.641
20654WAT      O62203   9.412   4.408   6.699
20654WAT     H162204   9.352   4.487   6.683
20654WAT     H262205   9.476   4.429   6.773
20655WAT      O62206   5.946   3.524   8.499
20655WAT     H162207   5.888   3.606   8.493
20655WAT     H262208   5.900   3.454   8.554
20656WAT      O62209   1.204   7.343   9.779
20656WAT     H162210   1.269   7.272   9.751
20656WAT     H262211   1.148   7.309   9.855
20657WAT      O62212   8.633   7.480   1.526
20657WAT     H162213   8.542   7.497   1.488
20657WAT     H262214   8.625   7.452   1.622
20658WAT      O62215   3.683   5.087   8.858
20658WAT     H162216   3.599   5.076   8.912
20658WAT     H262217   3.681   5.176   8.811
20659WAT      O62218   5.836   1.281   1.061
20659WAT     H162219   5.820   1.301   1.158
20659WAT     H262220   5.933   1.264   1.046
20660WAT      O62221   7.002   5.394   0.166
20660WAT     H162222   7.019   5.387   0.067
20660WAT     H262223   7.062   5.331   0.215
20661WAT      O62224   7.143   5.055   4.911
20661WAT     H162225   7.153   4.961   4.942
20661WAT     H262226   7.205   5.072   4.834
20662WAT      O62227   0.587   0.000   0.726
20662WAT     H162228   0.683   0.023   0.711
20662WAT     H262229   0.538   0.002   0.638
20663WAT      O62230   5.302   5.907   4.681
20663WAT     H162231   5.319   5.947   4.591
20663WAT     H262232   5.374   5.935   4.744
20664WAT      O62233   0.780   8.089   7.731
20664WAT     H162234   0.869   8.044   7.740
20664WAT     H262235   0.770   8.127   7.639
20665WAT      O62236   5.906   6.825   5.606
20665WAT     H162237   5.980   6.779   5.657
20665WAT     H262238   5.831   6.761   5.593
20666WAT      O62239   9.399   1.095   2.251
20666WAT     H162240   9.385   1.192   2.231
20666WAT     H262241   9.477   1.061   2.199
20667WAT      O62242   4.565   2.042   6.371
20667WAT     H162243   4.542   1.976   6.442
20667WAT     H262244   4.665   2.053   6.367
20668WAT      O62245   7.215   1.486   1.880
20668WAT     H162246   7.241   1.427   1.956
20668WAT     H262247   7.287   1.486   1.811
20669WAT      O62248   3.586   1.241   4.249
20669WAT     H162249   3.650   1.168   4.223
20669WAT     H262250   3.585   1.251   4.349
20670WAT      O62251   7.001   4.043   3.337
20670WAT     H162252   6.961   3.980   3.271
20670WAT     H262253   6.952   4.131   3.333
20671WAT      O62254   7.635   6.754   9.379
20671WAT     H162255   7.603   6.681   9.439
20671WAT     H262256   7.572   6.831   9.384
20672WAT      O62257   1.516   8.137   2.057
20672WAT     H162258   1.462   8.209   2.103
20672WAT     H262259   1.575   8.179   1.988
20673WAT      O62260   8.999   7.955   1.586
20673WAT     H162261   9.002   7.983   1.682
20673WAT     H262262   8.925   8.004   1.540
20674WAT      O62263   4.256   2.250   5.639
20674WAT     H162264   4.243   2.313   5.562
20674WAT     H262265   4.333   2.189   5.618
20675WAT      O62266   5.642   9.585   5.373
20675WAT     H162267   5.569   9.525   5.340
20675WAT     H262268   5.603   9.672   5.402
20676WAT      O62269   7.800   5.889   1.074
20676WAT     H162270   7.869   5.817   1.077
20676WAT     H262271   7.840   5.976   1.103
20677WAT      O62272   0.982   4.713   2.703
20677WAT     H162273   1.048   4.756   2.642
20677WAT     H262274   0.953   4.778   2.772
20678WAT      O62275   5.847   0.319   6.968
20678WAT     H162276   5.930   0.322   7.024
20678WAT     H262277   5.796   0.405   6.979
20679WAT      O62278   4.690   3.536   1.478
20679WAT     H162279   4.630   3.456   1.475
20679WAT     H262280   4.636   3.619   1.488
20680WAT      O62281   5.383   5.711   2.964
20680WAT     H162282   5.430   5.710   3.052
20680WAT     H262283   5.437   5.762   2.897
20681WAT      O62284   3.390   9.592   5.446
20681WAT     H162285   3.301   9.615   5.486
20681WAT     H262286   3.433   9.520   5.500
20682WAT      O62287   1.153   2.198   3.767
20682WAT     H162288   1.116   2.277   3.816
20682WAT     H262289   1.120   2.198   3.673
20683WAT      O62290   4.444   3.702   1.236
20683WAT     H162291   4.362   3.747   1.201
20683WAT     H262292   4.515   3.704   1.165
20684WAT      O62293   7.319   7.219   4.355
20684WAT     H162294   7.411   7.191   4.382
20684WAT     H262295   7.321   7.314   4.323
20685WAT      O62296   6.937   9.245   4.689
20685WAT     H162297   7.032   9.267   4.710
20685WAT     H262298   6.893   9.204   4.769
20686WAT      O62299   2.628   3.193   6.827
20686WAT     H162300   2.552   3.145   6.783
20686WAT     H262301   2.636   3.284   6.788
20687WAT      O62302   6.992   6.035   2.940
20687WAT     H162303   6.978   6.132   2.921
20687WAT     H262304   7.090   6.015   2.947
20688WAT      O62305   1.297   1.381   9.677
20688WAT     H162306   1.249   1.321   9.613
20688WAT     H262307   1.395   1.379   9.657
20689WAT      O62308   4.078   8.249   5.794
20689WAT     H162309   3.979   8.243   5.783
20689WAT     H262310   4.100   8.292   5.882
20690WAT      O62311   0.981   5.778   1.164
20690WAT     H162312   1.001   5.705   1.229
20690WAT     H262313   1.064   5.832   1.149
20691WAT      O62314   7.234   9.687   7.504
20691WAT     H162315   7.292   9.703   7.584
20691WAT     H262316   7.282   9.629   7.439
20692WAT      O62317   0.232   2.742   7.599
20692WAT     H162318   0.302   2.706   7.537
20692WAT     H262319   0.215   2.838   7.578
20693WAT      O62320   9.026   5.657   7.643
20693WAT     H162321   9.116   5.629   7.609
20693WAT     H262322   9.013   5.621   7.736
20694WAT      O62323   8.716   0.335   8.098
20694WAT     H162324   8.669   0.414   8.138
20694WAT     H262325   8.784   0.301   8.162
20695WAT      O62326   0.924   2.726   6.500
20695WAT     H162327   0.985   2.662   6.546
20695WAT     H262328   0.901   2.691   6.409
20696WAT      O62329   2.174   8.133   2.157
20696WAT     H162330   2.132   8.093   2.239
20696WAT     H262331   2.166   8.068   2.081
20697WAT      O62332   4.649   0.360   3.588
20697WAT     H162333   4.739   0.360   3.631
20697WAT     H262334   4.656   0.396   3.495
20698WAT      O62335   7.721   6.533   1.229
20698WAT     H162336   7.746   6.491   1.316
20698WAT     H262337   7.633   6.495   1.198
20699WAT      O62338   3.876   5.089   0.433
20699WAT     H162339   3.803   5.023   0.417
20699WAT     H262340   3.956   5.042   0.472
20700WAT      O62341   5.485   2.507   6.417
20700WAT     H162342   5.503   2.444   6.341
20700WAT     H262343   5.479   2.456   6.502
20701WAT      O62344   5.053   1.819   2.603
20701WAT     H162345   5.139   1.843   2.558
20701WAT     H262346   5.000   1.903   2.621
20702WAT      O62347   3.484   0.645   1.804
20702WAT     H162348   3.479   0.564   1.746
20702WAT     H262349   3.566   0.697   1.781
20703WAT      O62350   3.215   0.389   8.524
20703WAT     H162351   3.119   0.406   8.504
20703WAT     H262352   3.235   0.292   8.512
20704WAT      O62353   4.111   6.074   2.248
20704WAT     H162354   4.184   6.054   2.182
20704WAT     H262355   4.150   6.084   2.339
20705WAT      O62356   1.687   0.121   6.879
20705WAT     H162357   1.741   0.083   6.803
20705WAT     H262358   1.603   0.161   6.843
20706WAT      O62359   0.098   8.298   9.124
20706WAT     H162360   0.158   8.272   9.048
20706WAT     H262361   0.067   8.216   9.171
20707WAT      O62362   4.607   1.519   4.919
20707WAT     H162363   4.571   1.435   4.959
20707WAT     H262364   4.679   1.497   4.853
20708WAT      O62365   1.925   1.957   1.619
20708WAT     H162366   1.893   1.864   1.639
20708WAT     H262367   1.992   1.985   1.688
20709WAT      O62368   5.802   2.125   7.584
20709WAT     H162369   5.790   2.082   7.495
20709WAT     H262370   5.760   2.068   7.655
20710WAT      O62371   7.985   3.214   3.013
20710WAT     H162372   7.923   3.136   3.008
20710WAT     H262373   7.955   3.276   3.085
20711WAT      O62374   5.996   6.093   9.857
20711WAT     H162375   6.065   6.082   9.928
20711WAT     H262376   5.906   6.072   9.894
20712WAT      O62377   9.513   5.846   5.537
20712WAT     H162378   9.607   5.880   5.530
20712WAT     H262379   9.514   5.746   5.537
20713WAT      O62380   1.294   8.574   2.367
20713WAT     H162381   1.394   8.566   2.364
20713WAT     H262382   1.266   8.660   2.324
20714WAT      O62383   4.983   1.406   8.978
20714WAT     H162384   5.026   1.347   9.046
20714WAT     H262385   4.918   1.353   8.923
20715WAT      O62386   3.619   7.204   4.481
20715WAT     H162387   3.568   7.133   4.433
20715WAT     H262388   3.554   7.263   4.530
20716WAT      O62389   2.105   0.508   6.580
20716WAT     H162390   2.175   0.508   6.508
20716WAT     H262391   2.148   0.513   6.669
20717WAT      O62392   0.701   1.106   2.933
20717WAT     H162393   0.625   1.054   2.892
20717WAT     H262394   0.787   1.060   2.912
20718WAT      O62395   8.832   8.389   1.374
20718WAT     H162396   8.844   8.393   1.275
20718WAT     H262397   8.782   8.470   1.404
20719WAT      O62398   5.178   9.830   7.003
20719WAT     H162399   5.210   9.923   7.021
20719WAT     H262400   5.199   9.772   7.082
20720WAT      O62401   7.748   7.214   7.925
20720WAT     H162402   7.652   7.225   7.949
20720WAT     H262403   7.755   7.194   7.827
20721WAT      O62404   4.599   6.983   4.113
20721WAT     H162405   4.603   7.062   4.174
20721WAT     H262406   4.548   7.006   4.031
20722WAT      O62407   6.052   6.285   4.734
20722WAT     H162408   6.080   6.358   4.671
20722WAT     H262409   5.987   6.225   4.687
20723WAT      O62410   1.755   6.608   4.060
20723WAT     H162411   1.761   6.516   4.099
20723WAT     H262412   1.816   6.614   3.980
20724WAT      O62413   6.237   6.899   8.655
20724WAT     H162414   6.224   6.833   8.581
20724WAT     H262415   6.325   6.945   8.644
20725WAT      O62416   0.980   1.929   7.568
20725WAT     H162417   0.977   1.981   7.483
20725WAT     H262418   0.925   1.976   7.638
20726WAT      O62419   7.711   0.029   7.251
20726WAT     H162420   7.638   0.010   7.184
20726WAT     H262421   7.707   0.124   7.279
20727WAT      O62422   2.118   4.633   2.767
20727WAT     H162423   2.100   4.595   2.677
20727WAT     H262424   2.205   4.683   2.766
20728WAT      O62425   7.146   0.461   6.448
20728WAT     H162426   7.236   0.426   6.473
20728WAT     H262427   7.085   0.460   6.527
20729WAT      O62428   1.512   5.222   8.465
20729WAT     H162429   1.438   5.243   8.529
20729WAT     H262430   1.479   5.233   8.372
20730WAT      O62431   9.490   5.650   1.950
20730WAT     H162432   9.527   5.580   1.890
20730WAT     H262433   9.414   5.612   2.004
20731WAT      O62434   0.345   1.954   4.560
20731WAT     H162435   0.392   1.963   4.472
20731WAT     H262436   0.376   1.871   4.606
20732WAT      O62437   0.670   2.611   7.202
20732WAT     H162438   0.707   2.702   7.220
20732WAT     H262439   0.745   2.549   7.177
20733WAT      O62440   2.780   8.072   9.598
20733WAT     H162441   2.834   8.047   9.517
20733WAT     H262442   2.775   7.994   9.660
20734WAT      O62443   6.785   5.882   5.281
20734WAT     H162444   6.818   5.792   5.252
20734WAT     H262445   6.711   5.911   5.220
20735WAT      O62446   5.662   1.806   2.648
20735WAT     H162447   5.637   1.713   2.672
20735WAT     H262448   5.686   1.857   2.730
20736WAT      O62449   6.869   4.360   0.965
20736WAT     H162450   6.863   4.447   0.917
20736WAT     H262451   6.778   4.319   0.973
20737WAT      O62452   1.900   5.343   5.662
20737WAT     H162453   1.981   5.334   5.605
20737WAT     H262454   1.864   5.436   5.655
20738WAT      O62455   7.705   8.278   6.156
20738WAT     H162456   7.685   8.208   6.088
20738WAT     H262457   7.622   8.302   6.205
20739WAT      O62458   6.640   7.161   2.447
20739WAT     H162459   6.625   7.115   2.535
20739WAT     H262460   6.559   7.151   2.390
20740WAT      O62461   2.658   3.471   3.532
20740WAT     H162462   2.740   3.414   3.525
20740WAT     H262463   2.680   3.554   3.583
20741WAT      O62464   2.402   9.605   8.838
20741WAT     H162465   2.374   9.605   8.742
20741WAT     H262466   2.483   9.662   8.850
20742WAT      O62467   4.954   1.647   7.092
20742WAT     H162468   4.946   1.583   7.169
20742WAT     H262469   5.047   1.645   7.056
20743WAT      O62470   0.493   6.431   7.048
20743WAT     H162471   0.410   6.461   7.000
20743WAT     H262472   0.509   6.489   7.127
20744WAT      O62473   2.076   2.555   1.023
20744WAT     H162474   2.121   2.494   1.089
20744WAT     H262475   2.034   2.631   1.071
20745WAT      O62476   5.270   8.215   8.151
20745WAT     H162477   5.278   8.290   8.086
20745WAT     H262478   5.210   8.144   8.114
20746WAT      O62479   4.081   5.494   7.993
20746WAT     H162480   4.139   5.440   7.931
20746WAT     H262481   4.112   5.480   8.087
20747WAT      O62482   5.415   6.589   3.622
20747WAT     H162483   5.398   6.587   3.523
20747WAT     H262484   5.329   6.605   3.670
20748WAT      O62485   0.048   8.347   2.999
20748WAT     H162486   0.116   8.310   2.936
20748WAT     H262487   0.033   8.282   3.074
20749WAT      O62488   7.759   1.767   3.848
20749WAT     H162489   7.794   1.860   3.852
20749WAT     H262490   7.663   1.768   3.818
20750WAT      O62491   0.074   0.700   2.734
20750WAT     H162492  -0.013   0.697   2.684
20750WAT     H262493   0.088   0.792   2.769
20751WAT      O62494   8.759   5.951   4.279
20751WAT     H162495   8.839   6.008   4.295
20751WAT     H262496   8.781   5.879   4.214
20752WAT      O62497   5.814   8.673   8.325
20752WAT     H162498   5.859   8.635   8.406
20752WAT     H262499   5.769   8.600   8.274
20753WAT      O62500   7.252   5.106   8.847
20753WAT     H162501   7.312   5.035   8.884
20753WAT     H262502   7.249   5.099   8.747
20754WAT      O62503   1.744   8.448   9.106
20754WAT     H162504   1.728   8.389   9.185
20754WAT     H262505   1.832   8.424   9.064
20755WAT      O62506   5.520   0.615   8.252
20755WAT     H162507   5.544   0.711   8.240
20755WAT     H262508   5.428   0.600   8.217
20756WAT      O62509   2.708   4.675   6.819
20756WAT     H162510   2.670   4.647   6.906
20756WAT     H262511   2.808   4.677   6.825
20757WAT      O62512   6.045   7.532   3.068
20757WAT     H162513   6.056   7.568   3.161
20757WAT     H262514   5.950   7.544   3.039
20758WAT      O62515   7.582   8.153   0.505
20758WAT     H162516   7.482   8.150   0.507
20758WAT     H262517   7.616   8.095   0.431
20759WAT      O62518   6.642   4.242   1.055
20759WAT     H162519   6.564   4.243   1.117
20759WAT     H262520   6.650   4.152   1.012
20760WAT      O62521   1.003   1.430   2.850
20760WAT     H162522   1.012   1.353   2.787
20760WAT     H262523   0.943   1.404   2.926
20761WAT      O62524   6.324   5.323   8.485
20761WAT     H162525   6.269   5.406   8.481
20761WAT     H262526   6.269   5.246   8.452
20762WAT      O62527   8.752   7.310   2.917
20762WAT     H162528   8.667   7.308   2.865
20762WAT     H262529   8.732   7.314   3.015
20763WAT      O62530   9.276   4.908   1.968
20763WAT     H162531   9.196   4.849   1.958
20763WAT     H262532   9.328   4.908   1.882
20764WAT      O62533   4.299   1.208   7.108
20764WAT     H162534   4.316   1.305   7.126
20764WAT     H262535   4.336   1.183   7.018
20765WAT      O62536   9.665   4.986   1.921
20765WAT     H162537   9.670   4.931   1.837
20765WAT     H262538   9.757   5.003   1.956
20766WAT      O62539   1.351   8.547   4.412
20766WAT     H162540   1.436   8.579   4.370
20766WAT     H262541   1.373   8.487   4.489
20767WAT      O62542   4.387   1.443   3.776
20767WAT     H162543   4.313   1.420   3.711
20767WAT     H262544   4.405   1.541   3.773
20768WAT      O62545   4.506   3.696   5.152
20768WAT     H162546   4.471   3.678   5.060
20768WAT     H262547   4.606   3.696   5.151
20769WAT      O62548   9.734   0.324   3.735
20769WAT     H162549   9.659   0.378   3.773
20769WAT     H262550   9.714   0.227   3.746
20770WAT      O62551   0.682   8.439   1.510
20770WAT     H162552   0.769   8.487   1.525
20770WAT     H262553   0.618   8.500   1.463
20771WAT      O62554   3.511   5.690   0.114
20771WAT     H162555   3.538   5.605   0.069
20771WAT     H262556   3.519   5.765   0.048
20772WAT      O62557   8.806   5.693   0.686
20772WAT     H162558   8.778   5.705   0.590
20772WAT     H262559   8.902   5.717   0.695
20773WAT      O62560   6.762   9.557   3.071
20773WAT     H162561   6.663   9.568   3.077
20773WAT     H262562   6.798   9.613   2.996
20774WAT      O62563   3.118   1.918   1.841
20774WAT     H162564   3.021   1.906   1.822
20774WAT     H262565   3.137   2.015   1.857
20775WAT      O62566   1.902   1.598   5.558
20775WAT     H162567   1.966   1.655   5.506
20775WAT     H262568   1.820   1.651   5.578
20776WAT      O62569   5.119   6.668   6.128
20776WAT     H162570   5.057   6.643   6.202
20776WAT     H262571   5.185   6.735   6.161
20777WAT      O62572   7.214   0.448   2.632
20777WAT     H162573   7.276   0.513   2.589
20777WAT     H262574   7.130   0.495   2.660
20778WAT      O62575   5.084   2.530   5.214
20778WAT     H162576   5.178   2.496   5.209
20778WAT     H262577   5.020   2.454   5.198
20779WAT      O62578   7.659   5.030   9.650
20779WAT     H162579   7.625   5.080   9.571
20779WAT     H262580   7.610   5.060   9.732
20780WAT      O62581   0.947   1.611   4.385
20780WAT     H162582   1.046   1.603   4.402
20780WAT     H262583   0.902   1.648   4.466
20781WAT      O62584   3.733   8.129   2.451
20781WAT     H162585   3.776   8.046   2.486
20781WAT     H262586   3.640   8.136   2.486
20782WAT      O62587   7.878   3.394   6.992
20782WAT     H162588   7.961   3.441   6.961
20782WAT     H262589   7.840   3.339   6.918
20783WAT      O62590   2.621   6.929   6.096
20783WAT     H162591   2.699   6.869   6.113
20783WAT     H262592   2.631   7.013   6.150
20784WAT      O62593   7.829   3.947   0.289
20784WAT     H162594   7.760   3.954   0.217
20784WAT     H262595   7.796   3.885   0.361
20785WAT      O62596   2.799   2.273   4.275
20785WAT     H162597   2.818   2.176   4.288
20785WAT     H262598   2.812   2.297   4.179
20786WAT      O62599   5.697   4.520   2.997
20786WAT     H162600   5.745   4.518   2.910
20786WAT     H262601   5.606   4.479   2.987
20787WAT      O62602   5.686   1.922   6.040
20787WAT     H162603   5.637   1.863   6.105
20787WAT     H262604   5.782   1.893   6.034
20788WAT      O62605   3.840   9.582   8.850
20788WAT     H162606   3.813   9.555   8.757
20788WAT     H262607   3.799   9.671   8.872
20789WAT      O62608   8.220   2.975   1.562
20789WAT     H162609   8.265   3.024   1.487
20789WAT     H262610   8.285   2.964   1.638
20790WAT      O62611   6.053   7.605   3.318
20790WAT     H162612   5.966   7.566   3.346
20790WAT     H262613   6.120   7.595   3.392
20791WAT      O62614   7.847   9.135   0.224
20791WAT     H162615   7.845   9.229   0.256
20791WAT     H262616   7.817   9.074   0.298
20792WAT      O62617   8.787   2.111   7.905
20792WAT     H162618   8.844   2.184   7.867
20792WAT     H262619   8.842   2.028   7.913
20793WAT      O62620   1.500   5.848   0.379
20793WAT     H162621   1.547   5.876   0.295
20793WAT     H262622   1.401   5.847   0.363
20794WAT      O62623   7.389   4.306   6.930
20794WAT     H162624   7.346   4.387   6.889
20794WAT     H262625   7.344   4.224   6.898
20795WAT      O62626   7.310   5.381   0.324
20795WAT     H162627   7.357   5.293   0.334
20795WAT     H262628   7.346   5.429   0.244
20796WAT      O62629   7.480   7.388   3.551
20796WAT     H162630   7.522   7.455   3.490
20796WAT     H262631   7.454   7.307   3.499
20797WAT      O62632   9.097   4.582   2.697
20797WAT     H162633   9.117   4.545   2.606
20797WAT     H262634   9.159   4.542   2.764
20798WAT      O62635   1.792   6.965   1.000
20798WAT     H162636   1.771   6.868   1.015
20798WAT     H262637   1.801   7.012   1.087
20799WAT      O62638   5.535   2.461   1.640
20799WAT     H162639   5.556   2.480   1.544
20799WAT     H262640   5.553   2.542   1.695
20800WAT      O62641   2.977   2.621   2.195
20800WAT     H162642   3.025   2.573   2.122
20800WAT     H262643   2.998   2.578   2.283
20801WAT      O62644   7.038   0.458   6.696
20801WAT     H162645   7.001   0.370   6.728
20801WAT     H262646   6.981   0.532   6.731
20802WAT      O62647   3.223   4.279   1.438
20802WAT     H162648   3.305   4.277   1.381
20802WAT     H262649   3.198   4.374   1.457
20803WAT      O62650   5.489   0.695   9.152
20803WAT     H162651   5.520   0.790   9.149
20803WAT     H262652   5.392   0.691   9.129
20804WAT      O62653   5.484   5.473   0.362
20804WAT     H162654   5.568   5.514   0.326
20804WAT     H262655   5.491   5.374   0.357
20805WAT      O62656   6.504   3.449   2.111
20805WAT     H162657   6.530   3.418   2.202
20805WAT     H262658   6.556   3.399   2.042
20806WAT      O62659   8.089   4.291   1.434
20806WAT     H162660   8.017   4.312   1.501
20806WAT     H262661   8.130   4.376   1.401
20807WAT      O62662   3.473   7.220   0.612
20807WAT     H162663   3.478   7.275   0.528
20807WAT     H262664   3.504   7.127   0.592
20808WAT      O62665   7.038   4.172   8.462
20808WAT     H162666   7.095   4.234   8.409
20808WAT     H262667   7.030   4.084   8.414
20809WAT      O62668   0.108   0.754   6.447
20809WAT     H162669   0.187   0.767   6.507
20809WAT     H262670   0.066   0.666   6.466
20810WAT      O62671   9.482   1.225   7.261
20810WAT     H162672   9.468   1.283   7.181
20810WAT     H262673   9.522   1.138   7.232
20811WAT      O62674   6.556   4.881   6.389
20811WAT     H162675   6.508   4.952   6.337
20811WAT     H262676   6.637   4.921   6.433
20812WAT      O62677   2.340   2.232   3.614
20812WAT     H162678   2.259   2.188   3.576
20812WAT     H262679   2.372   2.302   3.551
20813WAT      O62680   4.220   9.271   9.011
20813WAT     H162681   4.311   9.240   9.036
20813WAT     H262682   4.177   9.204   8.950
20814WAT      O62683   3.603   7.210   4.037
20814WAT     H162684   3.696   7.245   4.048
20814WAT     H262685   3.543   7.285   4.009
20815WAT      O62686   0.092   9.304   5.845
20815WAT     H162687   0.087   9.373   5.917
20815WAT     H262688   0.046   9.339   5.762
20816WAT      O62689   6.443   2.147   0.639
20816WAT     H162690   6.542   2.141   0.635
20816WAT     H262691   6.411   2.214   0.572
20817WAT      O62692   8.176   7.010   4.273
20817WAT     H162693   8.183   6.961   4.186
20817WAT     H262694   8.148   6.946   4.344
20818WAT      O62695   6.776   9.656   3.907
20818WAT     H162696   6.837   9.657   3.986
20818WAT     H262697   6.768   9.562   3.872
20819WAT      O62698   6.039   8.010   8.680
20819WAT     H162699   6.001   7.919   8.663
20819WAT     H262700   6.124   8.021   8.628
20820WAT      O62701   5.414   6.491   5.472
20820WAT     H162702   5.328   6.484   5.423
20820WAT     H262703   5.487   6.449   5.418
20821WAT      O62704   4.699   0.061   6.927
20821WAT     H162705   4.605   0.050   6.894
20821WAT     H262706   4.762   0.020   6.862
20822WAT      O62707   8.786   1.495   6.708
20822WAT     H162708   8.696   1.484   6.666
20822WAT     H262709   8.777   1.486   6.808
20823WAT      O62710   7.989   0.048   1.751
20823WAT     H162711   7.893   0.063   1.772
20823WAT     H262712   8.037   0.015   1.832
20824WAT      O62713   4.637   4.203   9.570
20824WAT     H162714   4.636   4.299   9.542
20824WAT     H262715   4.699   4.151   9.511
20825WAT      O62716   8.964   1.079   3.114
20825WAT     H162717   8.883   1.032   3.148
20825WAT     H262718   9.023   1.106   3.191
20826WAT      O62719   0.093   5.317   1.148
20826WAT     H162720   0.053   5.274   1.229
20826WAT     H262721   0.154   5.253   1.102
20827WAT      O62722   3.087   2.700   0.299
20827WAT     H162723   3.018   2.661   0.239
20827WAT     H262724   3.101   2.639   0.377
20828WAT      O62725   4.003   0.802   1.645
20828WAT     H162726   4.099   0.775   1.635
20828WAT     H262727   3.997   0.879   1.709
20829WAT      O62728   8.926   3.283   0.090
20829WAT     H162729   8.842   3.233   0.066
20829WAT     H262730   8.957   3.335   0.010
20830WAT      O62731   8.854   1.964   8.619
20830WAT     H162732   8.945   1.924   8.609
20830WAT     H262733   8.798   1.906   8.679
20831WAT      O62734   8.489   7.298   6.022
20831WAT     H162735   8.397   7.314   6.056
20831WAT     H262736   8.542   7.249   6.091
20832WAT      O62737   8.758   9.671   7.284
20832WAT     H162738   8.727   9.749   7.230
20832WAT     H262739   8.857   9.674   7.294
20833WAT      O62740   1.349   2.737   7.041
20833WAT     H162741   1.334   2.652   6.990
20833WAT     H262742   1.262   2.769   7.079
20834WAT      O62743   6.932   1.541   5.492
20834WAT     H162744   6.900   1.631   5.461
20834WAT     H262745   6.854   1.484   5.516
20835WAT      O62746   7.451   8.047   6.653
20835WAT     H162747   7.541   8.008   6.631
20835WAT     H262748   7.446   8.140   6.617
20836WAT      O62749   8.693   1.279   1.615
20836WAT     H162750   8.664   1.235   1.699
20836WAT     H262751   8.657   1.373   1.612
20837WAT      O62752   2.979   8.119   5.621
20837WAT     H162753   2.985   8.148   5.526
20837WAT     H262754   2.945   8.025   5.625
20838WAT      O62755   8.704   4.392   7.337
20838WAT     H162756   8.748   4.475   7.370
20838WAT     H262757   8.605   4.402   7.342
20839WAT      O62758   8.534   8.579   6.460
20839WAT     H162759   8.605   8.638   6.422
20839WAT     H262760   8.490   8.624   6.538
20840WAT      O62761   0.333   7.308   6.334
20840WAT     H162762   0.362   7.302   6.430
20840WAT     H262763   0.268   7.383   6.323
20841WAT      O62764   4.195   0.386   2.515
20841WAT     H162765   4.227   0.292   2.503
20841WAT     H262766   4.170   0.423   2.426
20842WAT      O62767   0.524   4.359   6.167
20842WAT     H162768   0.618   4.374   6.198
20842WAT     H262769   0.523   4.356   6.067
20843WAT      O62770   7.758   2.073   4.529
20843WAT     H162771   7.802   1.983   4.521
20843WAT     H262772   7.763   2.104   4.623
20844WAT      O62773   4.612   3.523   9.191
20844WAT     H162774   4.564   3.574   9.263
20844WAT     H262775   4.588   3.426   9.197
20845WAT      O62776   2.722   5.326   4.917
20845WAT     H162777   2.763   5.315   4.826
20845WAT     H262778   2.652   5.256   4.930
20846WAT      O62779   7.258   1.945   2.963
20846WAT     H162780   7.332   1.886   2.931
20846WAT     H262781   7.217   1.904   3.045
20847WAT      O62782   2.594   1.531   6.886
20847WAT     H162783   2.585   1.622   6.926
20847WAT     H262784   2.665   1.479   6.934
20848WAT      O62785   5.999   6.486   3.633
20848WAT     H162786   6.080   6.508   3.579
20848WAT     H262787   5.965   6.395   3.608
20849WAT      O62788   2.636   6.066   1.240
20849WAT     H162789   2.583   6.079   1.156
20849WAT     H262790   2.602   6.129   1.310
20850WAT      O62791   5.852   6.265   3.170
20850WAT     H162792   5.926   6.289   3.232
20850WAT     H262793   5.878   6.290   3.076
20851WAT      O62794   5.761   1.240   9.685
20851WAT     H162795   5.700   1.249   9.606
20851WAT     H262796   5.800   1.148   9.685
20852WAT      O62797   8.675   5.893   2.430
20852WAT     H162798   8.648   5.944   2.349
20852WAT     H262799   8.746   5.944   2.480
20853WAT      O62800   5.242   7.841   3.817
20853WAT     H162801   5.178   7.867   3.889
20853WAT     H262802   5.222   7.892   3.734
20854WAT      O62803   1.502   9.424   1.961
20854WAT     H162804   1.508   9.412   1.862
20854WAT     H262805   1.563   9.359   2.006
20855WAT      O62806   6.827   4.443   2.123
20855WAT     H162807   6.779   4.359   2.095
20855WAT     H262808   6.871   4.428   2.212
20856WAT      O62809   4.621   2.373   7.998
20856WAT     H162810   4.692   2.353   8.066
20856WAT     H262811   4.663   2.383   7.908
20857WAT      O62812   0.242   0.529   6.251
20857WAT     H162813   0.279   0.619   6.227
20857WAT     H262814   0.152   0.541   6.295
20858WAT      O62815   7.242   3.880   8.466
20858WAT     H162816   7.194   3.808   8.516
20858WAT     H262817   7.322   3.909   8.518
20859WAT      O62818   5.488   7.381   5.061
20859WAT     H162819   5.549   7.456   5.087
20859WAT     H262820   5.474   7.320   5.139
20860WAT      O62821   0.397   2.732   2.115
20860WAT     H162822   0.335   2.810   2.126
20860WAT     H262823   0.416   2.693   2.205
20861WAT      O62824   7.286   8.232   3.068
20861WAT     H162825   7.351   8.219   2.994
20861WAT     H262826   7.329   8.284   3.142
20862WAT      O62827   6.423   9.053   2.700
20862WAT     H162828   6.509   9.029   2.746
20862WAT     H262829   6.443   9.088   2.609
20863WAT      O62830   4.519   3.824   7.096
20863WAT     H162831   4.514   3.872   7.008
20863WAT     H262832   4.600   3.856   7.146
20864WAT      O62833   1.721   5.663   5.084
20864WAT     H162834   1.697   5.630   5.175
20864WAT     H262835   1.782   5.741   5.093
20865WAT      O62836   1.801   1.068   7.148
20865WAT     H162837   1.753   1.066   7.236
20865WAT     H262838   1.864   0.991   7.142
20866WAT      O62839   0.014   3.622   8.291
20866WAT     H162840   0.010   3.599   8.388
20866WAT     H262841   0.030   3.720   8.281
20867WAT      O62842   4.675   9.181   7.825
20867WAT     H162843   4.731   9.252   7.868
20867WAT     H262844   4.727   9.096   7.820
20868WAT      O62845   2.540   1.684   0.818
20868WAT     H162846   2.609   1.613   0.831
20868WAT     H262847   2.508   1.683   0.723
20869WAT      O62848   0.571   9.706   5.328
20869WAT     H162849   0.643   9.637   5.334
20869WAT     H262850   0.612   9.793   5.301
20870WAT      O62851   3.002   8.473   0.546
20870WAT     H162852   3.063   8.545   0.512
20870WAT     H262853   2.924   8.464   0.484
20871WAT      O62854   6.695   7.701   1.594
20871WAT     H162855   6.661   7.607   1.583
20871WAT     H262856   6.695   7.725   1.690
20872WAT      O62857   9.327   9.112   4.962
20872WAT     H162858   9.375   9.179   5.018
20872WAT     H262859   9.317   9.148   4.869
20873WAT      O62860   6.991   6.376   3.072
20873WAT     H162861   7.081   6.333   3.068
20873WAT     H262862   6.973   6.408   3.165
20874WAT      O62863   4.642   2.640   0.634
20874WAT     H162864   4.651   2.542   0.650
20874WAT     H262865   4.569   2.656   0.568
20875WAT      O62866   5.134   7.919   4.052
20875WAT     H162867   5.095   7.850   4.113
20875WAT     H262868   5.082   8.004   4.060
20876WAT      O62869   0.889   6.423   9.448
20876WAT     H162870   0.873   6.503   9.391
20876WAT     H262871   0.807   6.365   9.447
20877WAT      O62872   0.225   4.916   4.588
20877WAT     H162873   0.324   4.911   4.576
20877WAT     H262874   0.183   4.832   4.554
20878WAT      O62875   8.035   2.980   2.612
20878WAT     H162876   8.114   2.935   2.654
20878WAT     H262877   8.067   3.044   2.542
20879WAT      O62878   2.471   2.230   8.912
20879WAT     H162879   2.499   2.307   8.854
20879WAT     H262880   2.373   2.235   8.928
20880WAT      O62881   7.512   7.218   2.987
20880WAT     H162882   7.440   7.285   2.977
20880WAT     H262883   7.554   7.200   2.897
20881WAT      O62884   2.656   4.678   4.932
20881WAT     H162885   2.692   4.585   4.932
20881WAT     H262886   2.608   4.695   5.018
20882WAT      O62887   2.759   1.746   8.857
20882WAT     H162888   2.712   1.658   8.849
20882WAT     H262889   2.742   1.785   8.948
20883WAT      O62890   8.878   5.199   8.518
20883WAT     H162891   8.885   5.259   8.598
20883WAT     H262892   8.895   5.252   8.435
20884WAT      O62893   4.503   2.750   6.545
20884WAT     H162894   4.423   2.690   6.545
20884WAT     H262895   4.504   2.805   6.629
20885WAT      O62896   7.675   6.376   5.432
20885WAT     H162897   7.624   6.443   5.379
20885WAT     H262898   7.770   6.407   5.443
20886WAT      O62899   3.918   0.982   3.792
20886WAT     H162900   3.934   0.917   3.717
20886WAT     H262901   3.958   1.071   3.768
20887WAT      O62902   8.536   2.500   7.654
20887WAT     H162903   8.513   2.471   7.561
20887WAT     H262904   8.532   2.600   7.659
20888WAT      O62905   3.315   4.282   2.117
20888WAT     H162906   3.370   4.345   2.062
20888WAT     H262907   3.242   4.333   2.163
20889WAT      O62908   9.607   6.636   6.625
20889WAT     H162909   9.571   6.722   6.661
20889WAT     H262910   9.537   6.593   6.568
20890WAT      O62911   2.211   9.043   4.679
20890WAT     H162912   2.249   9.010   4.765
20890WAT     H262913   2.148   9.119   4.698
20891WAT      O62914   5.353   1.660   2.410
20891WAT     H162915   5.393   1.741   2.366
20891WAT     H262916   5.254   1.657   2.390
20892WAT      O62917   4.080   0.681   1.281
20892WAT     H162918   4.119   0.633   1.360
20892WAT     H262919   4.001   0.630   1.247
20893WAT      O62920   8.762   4.757   9.309
20893WAT     H162921   8.679   4.801   9.341
20893WAT     H262922   8.820   4.824   9.263
20894WAT      O62923   4.744   3.409   0.459
20894WAT     H162924   4.721   3.377   0.551
20894WAT     H262925   4.842   3.398   0.443
20895WAT      O62926   7.280   0.847   1.906
20895WAT     H162927   7.363   0.883   1.865
20895WAT     H262928   7.206   0.914   1.895
20896WAT      O62929   1.097   0.606   3.799
20896WAT     H162930   1.072   0.516   3.765
20896WAT     H262931   1.113   0.668   3.722
20897WAT      O62932   8.837   3.972   5.016
20897WAT     H162933   8.836   3.894   5.079
20897WAT     H262934   8.820   4.056   5.066
20898WAT      O62935   1.899   2.857   2.112
20898WAT     H162936   1.834   2.819   2.046
20898WAT     H262937   1.860   2.852   2.204
20899WAT      O62938   8.657   6.931   5.300
20899WAT     H162939   8.581   6.867   5.288
20899WAT     H262940   8.742   6.880   5.311
20900WAT      O62941   7.664   3.174   0.874
20900WAT     H162942   7.585   3.235   0.863
20900WAT     H262943   7.686   3.132   0.786
20901WAT      O62944   2.490   0.075   0.478
20901WAT     H162945   2.493   0.054   0.576
20901WAT     H262946   2.583   0.090   0.444
20902WAT      O62947   8.815   2.518   6.905
20902WAT     H162948   8.871   2.489   6.827
20902WAT     H262949   8.782   2.437   6.953
20903WAT      O62950   7.248   0.800   2.727
20903WAT     H162951   7.276   0.864   2.798
20903WAT     H262952   7.318   0.731   2.713
20904WAT      O62953   8.317   7.591   7.143
20904WAT     H162954   8.243   7.526   7.163
20904WAT     H262955   8.325   7.656   7.219
20905WAT      O62956   9.841   8.461   6.204
20905WAT     H162957   9.770   8.480   6.137
20905WAT     H262958   9.842   8.533   6.273
20906WAT      O62959   8.983   0.923   4.144
20906WAT     H162960   8.987   0.939   4.242
20906WAT     H262961   8.934   0.838   4.125
20907WAT      O62962   6.917   9.839   6.591
20907WAT     H162963   6.826   9.800   6.574
20907WAT     H262964   6.979   9.765   6.618
20908WAT      O62965   8.268   7.146   0.559
20908WAT     H162966   8.286   7.171   0.654
20908WAT     H262967   8.254   7.229   0.505
20909WAT      O62968   7.284   4.793   5.872
20909WAT     H162969   7.331   4.870   5.827
20909WAT     H262970   7.190   4.819   5.891
20910WAT      O62971   7.582   1.862   4.377
20910WAT     H162972   7.592   1.923   4.455
20910WAT     H262973   7.525   1.784   4.403
20911WAT      O62974   3.946   0.586   6.599
20911WAT     H162975   3.862   0.622   6.560
20911WAT     H262976   4.025   0.622   6.550
20912WAT      O62977   5.261   2.102   6.858
20912WAT     H162978   5.280   2.138   6.950
20912WAT     H262979   5.215   2.173   6.804
20913WAT      O62980   1.732   1.454   9.134
20913WAT     H162981   1.659   1.387   9.117
20913WAT     H262982   1.761   1.447   9.230
20914WAT      O62983   5.280   6.421   6.771
20914WAT     H162984   5.236   6.375   6.694
20914WAT     H262985   5.325   6.505   6.739
20915WAT      O62986   1.213   4.520   4.072
20915WAT     H162987   1.167   4.573   4.000
20915WAT     H262988   1.230   4.427   4.039
20916WAT      O62989   3.558   9.785   2.280
20916WAT     H162990   3.593   9.873   2.313
20916WAT     H262991   3.458   9.788   2.278
20917WAT      O62992   8.116   8.752   6.919
20917WAT     H162993   8.167   8.690   6.859
20917WAT     H262994   8.071   8.699   6.991
20918WAT      O62995   2.720   0.968   3.686
20918WAT     H162996   2.645   0.983   3.621
20918WAT     H262997   2.743   1.055   3.729
20919WAT      O62998   5.847   5.256   6.544
20919WAT     H162999   5.817   5.325   6.478
20919WAT     H263000   5.830   5.289   6.637
20920WAT      O63001   5.218   9.191   3.999
20920WAT     H163002   5.146   9.145   3.947
20920WAT     H263003   5.276   9.243   3.937
20921WAT      O63004   3.881   5.238   2.851
20921WAT     H163005   3.793   5.284   2.845
20921WAT     H263006   3.904   5.198   2.762
20922WAT      O63007   8.731   3.303   5.050
20922WAT     H163008   8.728   3.379   4.985
20922WAT     H263009   8.752   3.218   5.002
20923WAT      O63010   0.358   8.431   0.199
20923WAT     H163011   0.375   8.491   0.121
20923WAT     H263012   0.443   8.385   0.225
20924WAT      O63013   4.383   5.639   2.127
20924WAT     H163014   4.315   5.712   2.125
20924WAT     H263015   4.473   5.678   2.144
20925WAT      O63016   6.172   8.919   9.378
20925WAT     H163017   6.176   9.001   9.321
20925WAT     H263018   6.261   8.874   9.378
20926WAT      O63019   6.911   6.442   1.632
20926WAT     H163020   6.964   6.408   1.555
20926WAT     H263021   6.868   6.529   1.607
20927WAT      O63022   4.348   3.356   4.786
20927WAT     H163023   4.282   3.412   4.736
20927WAT     H263024   4.299   3.285   4.838
20928WAT      O63025   3.025   5.723   2.693
20928WAT     H163026   3.033   5.627   2.667
20928WAT     H263027   3.077   5.780   2.630
20929WAT      O63028   7.190   0.683   8.606
20929WAT     H163029   7.184   0.755   8.675
20929WAT     H263030   7.248   0.712   8.531
20930WAT      O63031   8.723   8.952   8.332
20930WAT     H163032   8.806   9.003   8.309
20930WAT     H263033   8.721   8.867   8.280
20931WAT      O63034   6.951   5.244   1.129
20931WAT     H163035   6.898   5.161   1.148
20931WAT     H263036   7.035   5.219   1.080
20932WAT      O63037   2.151   1.279   3.917
20932WAT     H163038   2.085   1.354   3.926
20932WAT     H263039   2.243   1.317   3.907
20933WAT      O63040   5.727   3.853   2.864
20933WAT     H163041   5.693   3.813   2.778
20933WAT     H263042   5.665   3.829   2.939
20934WAT      O63043   4.217   5.460   3.580
20934WAT     H163044   4.245   5.364   3.579
20934WAT     H263045   4.252   5.504   3.663
20935WAT      O63046   9.536   4.057   0.311
20935WAT     H163047   9.542   4.137   0.251
20935WAT     H263048   9.626   4.039   0.351
20936WAT      O63049   1.259   6.513   8.414
20936WAT     H163050   1.238   6.610   8.408
20936WAT     H263051   1.299   6.493   8.504
20937WAT      O63052   9.767   0.620   2.557
20937WAT     H163053   9.772   0.580   2.465
20937WAT     H263054   9.693   0.687   2.559
20938WAT      O63055   5.995   5.046   7.177
20938WAT     H163056   5.958   4.954   7.165
20938WAT     H263057   6.093   5.045   7.158
20939WAT      O63058   0.400   2.854   2.999
20939WAT     H163059   0.319   2.863   3.056
20939WAT     H263060   0.482   2.877   3.053
20940WAT      O63061   2.845   7.905   2.386
20940WAT     H163062   2.766   7.856   2.350
20940WAT     H263063   2.889   7.956   2.313
20941WAT      O63064   8.656   1.711   1.085
20941WAT     H163065   8.716   1.790   1.074
20941WAT     H263066   8.707   1.627   1.066
20942WAT      O63067   2.714   9.782   7.624
20942WAT     H163068   2.732   9.701   7.680
20942WAT     H263069   2.626   9.773   7.579
20943WAT      O63070   7.005   0.703   3.732
20943WAT     H163071   7.001   0.634   3.804
20943WAT     H263072   6.965   0.666   3.648
20944WAT      O63073   0.705   4.510   4.877
20944WAT     H163074   0.782   4.446   4.869
20944WAT     H263075   0.693   4.537   4.972
20945WAT      O63076   5.520   3.881   5.664
20945WAT     H163077   5.618   3.861   5.664
20945WAT     H263078   5.505   3.977   5.639
20946WAT      O63079   6.182   5.304   4.793
20946WAT     H163080   6.265   5.251   4.812
20946WAT     H263081   6.181   5.386   4.851
20947WAT      O63082   3.163   2.127   8.222
20947WAT     H163083   3.225   2.098   8.149
20947WAT     H263084   3.161   2.227   8.226
20948WAT      O63085   6.318   8.792   1.710
20948WAT     H163086   6.388   8.766   1.644
20948WAT     H263087   6.353   8.776   1.803
20949WAT      O63088   4.627   6.986   1.498
20949WAT     H163089   4.625   7.076   1.454
20949WAT     H263090   4.537   6.966   1.536
20950WAT      O63091   3.390   7.777   1.473
20950WAT     H163092   3.455   7.708   1.440
20950WAT     H263093   3.387   7.775   1.573
20951WAT      O63094   0.967   4.284   6.068
20951WAT     H163095   0.961   4.274   5.968
20951WAT     H263096   0.897   4.349   6.099
20952WAT      O63097   9.097   1.943   7.099
20952WAT     H163098   8.999   1.925   7.086
20952WAT     H263099   9.111   1.983   7.189
20953WAT      O63100   0.964   7.227   9.084
20953WAT     H163101   0.981   7.132   9.057
20953WAT     H263102   1.034   7.286   9.044
20954WAT      O63103   3.289   7.960   1.263
20954WAT     H163104   3.328   7.935   1.352
20954WAT     H263105   3.302   7.884   1.199
20955WAT      O63106   4.707   2.998   3.737
20955WAT     H163107   4.735   2.968   3.645
20955WAT     H263108   4.703   2.919   3.798
20956WAT      O63109   5.343   3.392   9.690
20956WAT     H163110   5.425   3.411   9.637
20956WAT     H263111   5.273   3.460   9.670
20957WAT      O63112   0.523   0.457   5.125
20957WAT     H163113   0.448   0.478   5.188
20957WAT     H263114   0.590   0.399   5.171
20958WAT      O63115   2.173   4.217   3.057
20958WAT     H163116   2.186   4.176   2.967
20958WAT     H263117   2.160   4.144   3.125
20959WAT      O63118   0.063   4.497   4.652
20959WAT     H163119   0.076   4.568   4.582
20959WAT     H263120  -0.034   4.491   4.675
20960WAT      O63121   3.626   1.720   6.608
20960WAT     H163122   3.604   1.684   6.699
20960WAT     H263123   3.671   1.808   6.617
20961WAT      O63124   3.467   0.442   3.489
20961WAT     H163125   3.391   0.471   3.547
20961WAT     H263126   3.519   0.522   3.459
20962WAT      O63127   8.074   2.493   5.161
20962WAT     H163128   8.045   2.536   5.075
20962WAT     H263129   8.157   2.537   5.195
20963WAT      O63130   6.626   8.759   2.879
20963WAT     H163131   6.659   8.852   2.862
20963WAT     H263132   6.700   8.704   2.917
20964WAT      O63133   4.837   0.415   4.416
20964WAT     H163134   4.926   0.370   4.410
20964WAT     H263135   4.797   0.400   4.506
20965WAT      O63136   1.306   1.393   9.130
20965WAT     H163137   1.300   1.487   9.098
20965WAT     H263138   1.222   1.344   9.105
20966WAT      O63139   9.842   5.231   7.669
20966WAT     H163140   9.811   5.238   7.764
20966WAT     H263141   9.935   5.266   7.662
20967WAT      O63142   6.381   0.267   8.730
20967WAT     H163143   6.421   0.298   8.816
20967WAT     H263144   6.436   0.301   8.653
20968WAT      O63145   5.183   7.990   9.138
20968WAT     H163146   5.182   7.912   9.076
20968WAT     H263147   5.257   7.980   9.204
20969WAT      O63148   5.295   1.705   8.184
20969WAT     H163149   5.347   1.760   8.249
20969WAT     H263150   5.208   1.750   8.165
20970WAT      O63151   3.992   0.075   4.290
20970WAT     H163152   3.973  -0.023   4.299
20970WAT     H263153   4.083   0.088   4.249
20971WAT      O63154   9.648   0.879   6.240
20971WAT     H163155   9.596   0.945   6.184
20971WAT     H263156   9.720   0.927   6.289
20972WAT      O63157   9.861   4.330   6.678
20972WAT     H163158   9.841   4.428   6.689
20972WAT     H263159   9.910   4.315   6.593
20973WAT      O63160   6.116   1.511   9.671
20973WAT     H163161   6.025   1.549   9.685
20973WAT     H263162   6.164   1.507   9.758
20974WAT      O63163   2.635   2.203   7.620
20974WAT     H163164   2.548   2.168   7.585
20974WAT     H263165   2.621   2.242   7.711
20975WAT      O63166   6.112   8.722   4.056
20975WAT     H163167   6.032   8.741   4.113
20975WAT     H263168   6.107   8.629   4.021
20976WAT      O63169   3.903   0.401   0.599
20976WAT     H163170   3.967   0.476   0.608
20976WAT     H263171   3.810   0.437   0.588
20977WAT      O63172   5.574   2.422   7.625
20977WAT     H163173   5.506   2.400   7.554
20977WAT     H263174   5.542   2.501   7.677
20978WAT      O63175   3.459   8.405   0.868
20978WAT     H163176   3.491   8.436   0.958
20978WAT     H263177   3.383   8.462   0.838
20979WAT      O63178   0.527   3.767   2.342
20979WAT     H163179   0.598   3.753   2.274
20979WAT     H263180   0.524   3.688   2.405
20980WAT      O63181   1.702   9.255   8.756
20980WAT     H163182   1.773   9.256   8.686
20980WAT     H263183   1.638   9.180   8.738
20981WAT      O63184   0.463   5.156   1.999
20981WAT     H163185   0.364   5.151   2.003
20981WAT     H263186   0.491   5.252   1.986
20982WAT      O63187   9.217   5.729   7.019
20982WAT     H163188   9.126   5.703   7.052
20982WAT     H263189   9.220   5.828   7.004
20983WAT      O63190   9.668   3.020   0.538
20983WAT     H163191   9.583   2.976   0.509
20983WAT     H263192   9.647   3.092   0.605
20984WAT      O63193   8.584   6.181   8.694
20984WAT     H163194   8.574   6.169   8.793
20984WAT     H263195   8.496   6.163   8.649
20985WAT      O63196   3.367   0.423   2.067
20985WAT     H163197   3.462   0.456   2.063
20985WAT     H263198   3.368   0.324   2.084
20986WAT      O63199   1.533   7.489   0.383
20986WAT     H163200   1.457   7.432   0.352
20986WAT     H263201   1.507   7.585   0.378
20987WAT      O63202   4.435   0.295   9.702
20987WAT     H163203   4.398   0.383   9.673
20987WAT     H263204   4.368   0.223   9.685
20988WAT      O63205   5.904   0.309   8.593
20988WAT     H163206   5.922   0.213   8.569
20988WAT     H263207   5.839   0.313   8.669
20989WAT      O63208   7.073   0.820   1.141
20989WAT     H163209   7.007   0.783   1.207
20989WAT     H263210   7.164   0.823   1.183
20990WAT      O63211   3.232   1.669   8.623
20990WAT     H163212   3.161   1.676   8.554
20990WAT     H263213   3.302   1.605   8.593
20991WAT      O63214   0.258   2.557   6.575
20991WAT     H163215   0.247   2.598   6.484
20991WAT     H263216   0.271   2.458   6.565
20992WAT      O63217   6.191   9.234   5.997
20992WAT     H163218   6.247   9.247   6.079
20992WAT     H263219   6.247   9.197   5.923
20993WAT      O63220   9.488   4.614   2.907
20993WAT     H163221   9.471   4.640   3.002
20993WAT     H263222   9.417   4.654   2.848
20994WAT      O63223   4.424   8.835   8.923
20994WAT     H163224   4.438   8.896   8.845
20994WAT     H263225   4.358   8.764   8.898
20995WAT      O63226   7.293   4.136   5.896
20995WAT     H163227   7.338   4.051   5.921
20995WAT     H263228   7.199   4.135   5.929
20996WAT      O63229   3.129   8.037   4.147
20996WAT     H163230   3.134   8.112   4.213
20996WAT     H263231   3.172   7.956   4.186
20997WAT      O63232   5.025   7.379   8.825
20997WAT     H163233   4.927   7.389   8.806
20997WAT     H263234   5.050   7.436   8.904
20998WAT      O63235   6.194   6.518   1.437
20998WAT     H163236   6.108   6.468   1.442
20998WAT     H263237   6.259   6.467   1.380
20999WAT      O63238   5.932   5.225   8.299
20999WAT     H163239   6.000   5.289   8.264
20999WAT     H263240   5.872   5.195   8.225
21000WAT      O63241   8.915   7.261   7.855
21000WAT     H163242   8.996   7.242   7.799
21000WAT     H263243   8.932   7.233   7.949
21001WAT      O63244   2.172   8.419   5.724
21001WAT     H163245   2.098   8.373   5.773
21001WAT     H263246   2.165   8.398   5.626
21002WAT      O63247   1.828   5.477   8.224
21002WAT     H163248   1.884   5.402   8.189
21002WAT     H263249   1.886   5.556   8.244
21003WAT      O63250   9.509   5.352   7.549
21003WAT     H163251   9.419   5.363   7.507
21003WAT     H263252   9.519   5.258   7.583
21004WAT      O63253   2.351   7.983   3.728
21004WAT     H163254   2.410   8.037   3.668
21004WAT     H263255   2.273   8.038   3.756
21005WAT      O63256   4.551   3.069   4.391
21005WAT     H163257   4.458   3.033   4.379
21005WAT     H263258   4.606   3.047   4.310
21006WAT      O63259   6.449   4.497   9.752
21006WAT     H163260   6.406   4.480   9.663
21006WAT     H263261   6.445   4.413   9.807
21007WAT      O63262   4.180   3.569   4.620
21007WAT     H163263   4.139   3.606   4.537
21007WAT     H263264   4.110   3.526   4.677
21008WAT      O63265   9.767   7.114   4.140
21008WAT     H163266   9.804   7.116   4.233
21008WAT     H263267   9.836   7.151   4.076
21009WAT      O63268   3.285   4.057   2.829
21009WAT     H163269   3.276   3.958   2.816
21009WAT     H263270   3.195   4.099   2.824
21010WAT      O63271   3.834   0.648   2.412
21010WAT     H163272   3.813   0.715   2.484
21010WAT     H263273   3.794   0.679   2.326
21011WAT      O63274   8.165   5.121   5.023
21011WAT     H163275   8.236   5.051   5.019
21011WAT     H263276   8.116   5.114   5.109
21012WAT      O63277   6.061   6.669   0.497
21012WAT     H163278   6.122   6.706   0.567
21012WAT     H263279   5.982   6.625   0.540
21013WAT      O63280   8.305   0.783   4.955
21013WAT     H163281   8.289   0.688   4.978
21013WAT     H263282   8.278   0.800   4.860
21014WAT      O63283   3.448   9.548   7.593
21014WAT     H163284   3.518   9.618   7.605
21014WAT     H263285   3.358   9.591   7.595
21015WAT      O63286   6.294   4.521   3.617
21015WAT     H163287   6.375   4.462   3.620
21015WAT     H263288   6.309   4.601   3.673
21016WAT      O63289   7.288   9.578   5.634
21016WAT     H163290   7.302   9.479   5.633
21016WAT     H263291   7.376   9.624   5.628
21017WAT      O63292   3.033   3.686   3.589
21017WAT     H163293   3.095   3.614   3.556
21017WAT     H263294   3.086   3.764   3.621
21018WAT      O63295   4.776   4.320   8.825
21018WAT     H163296   4.777   4.222   8.845
21018WAT     H263297   4.764   4.334   8.727
21019WAT      O63298   0.229   0.843   8.012
21019WAT     H163299   0.255   0.847   8.108
21019WAT     H263300   0.138   0.803   8.004
21020WAT      O63301   7.071   3.649   5.122
21020WAT     H163302   7.045   3.662   5.217
21020WAT     H263303   7.133   3.571   5.115
21021WAT      O63304   5.717   1.473   7.657
21021WAT     H163305   5.698   1.548   7.594
21021WAT     H263306   5.816   1.459   7.664
21022WAT      O63307   4.896   4.531   0.643
21022WAT     H163308   4.899   4.629   0.626
21022WAT     H263309   4.839   4.512   0.723
21023WAT      O63310   9.378   0.673   6.765
21023WAT     H163311   9.440   0.623   6.704
21023WAT     H263312   9.355   0.615   6.843
21024WAT      O63313   7.356   0.545   4.934
21024WAT     H163314   7.265   0.569   4.968
21024WAT     H263315   7.350   0.515   4.839
21025WAT      O63316   5.108   1.584   0.413
21025WAT     H163317   5.053   1.538   0.483
21025WAT     H263318   5.185   1.525   0.388
21026WAT      O63319   4.122   3.190   2.138
21026WAT     H163320   4.119   3.101   2.092
21026WAT     H263321   4.212   3.205   2.177
21027WAT      O63322   6.907   5.923   0.863
21027WAT     H163323   6.991   5.892   0.820
21027WAT     H263324   6.915   6.020   0.887
21028WAT      O63325   8.111   6.613   4.773
21028WAT     H163326   8.126   6.711   4.760
21028WAT     H263327   8.018   6.590   4.746
21029WAT      O63328   4.548   9.366   4.660
21029WAT     H163329   4.454   9.380   4.629
21029WAT     H263330   4.582   9.279   4.623
21030WAT      O63331   5.854   1.618   1.488
21030WAT     H163332   5.852   1.552   1.413
21030WAT     H263333   5.764   1.659   1.499
21031WAT      O63334   1.990   0.479   9.085
21031WAT     H163335   2.060   0.417   9.119
21031WAT     H263336   1.960   0.450   8.994
21032WAT      O63337   2.470   0.481   8.938
21032WAT     H163338   2.403   0.428   8.887
21032WAT     H263339   2.438   0.575   8.949
21033WAT      O63340   6.537   9.088   7.769
21033WAT     H163341   6.627   9.072   7.811
21033WAT     H263342   6.533   9.182   7.735
21034WAT      O63343   8.249   2.593   7.335
21034WAT     H163344   8.297   2.553   7.257
21034WAT     H263345   8.163   2.634   7.305
21035WAT      O63346   3.908   8.619   1.823
21035WAT     H163347   3.965   8.580   1.750
21035WAT     H263348   3.960   8.624   1.907
21036WAT      O63349   1.721   4.844   9.063
21036WAT     H163350   1.644   4.785   9.090
21036WAT     H263351   1.702   4.884   8.974
21037WAT      O63352   0.127   7.737   4.425
21037WAT     H163353   0.192   7.730   4.500
21037WAT     H263354   0.173   7.715   4.339
21038WAT      O63355   3.815   2.582   2.444
21038WAT     H163356   3.729   2.533   2.427
21038WAT     H263357   3.892   2.519   2.436
21039WAT      O63358   1.513   8.077   4.037
21039WAT     H163359   1.455   8.153   4.068
21039WAT     H263360   1.608   8.094   4.065
21040WAT      O63361   9.031   6.654   0.287
21040WAT     H163362   9.016   6.721   0.214
21040WAT     H263363   9.014   6.562   0.252
21041WAT      O63364   0.668   0.665   1.711
21041WAT     H163365   0.658   0.606   1.790
21041WAT     H263366   0.700   0.755   1.741
21042WAT      O63367   0.831   1.466   7.590
21042WAT     H163368   0.898   1.536   7.566
21042WAT     H263369   0.743   1.489   7.549
21043WAT      O63370   3.133   8.715   2.302
21043WAT     H163371   3.058   8.711   2.236
21043WAT     H263372   3.120   8.793   2.363
21044WAT      O63373   0.736   9.775   8.075
21044WAT     H163374   0.656   9.762   8.133
21044WAT     H263375   0.735   9.868   8.037
21045WAT      O63376   8.569   7.555   6.042
21045WAT     H163377   8.636   7.582   5.973
21045WAT     H263378   8.541   7.461   6.027
21046WAT      O63379   4.701   6.369   9.164
21046WAT     H163380   4.639   6.291   9.168
21046WAT     H263381   4.714   6.407   9.255
21047WAT      O63382   5.784   8.096   8.255
21047WAT     H163383   5.806   8.141   8.342
21047WAT     H263384   5.688   8.113   8.233
21048WAT      O63385   8.172   0.353   7.377
21048WAT     H163386   8.123   0.431   7.338
21048WAT     H263387   8.248   0.384   7.433
21049WAT      O63388   1.746   2.495   1.780
21049WAT     H163389   1.653   2.477   1.748
21049WAT     H263390   1.806   2.511   1.701
21050WAT      O63391   2.025   3.049   9.785
21050WAT     H163392   2.059   2.956   9.776
21050WAT     H263393   2.086   3.112   9.736
21051WAT      O63394   5.327   2.413   5.179
21051WAT     H163395   5.392   2.445   5.249
21051WAT     H263396   5.318   2.313   5.186
21052WAT      O63397   6.825   2.668   3.319
21052WAT     H163398   6.802   2.764   3.301
21052WAT     H263399   6.914   2.662   3.365
21053WAT      O63400   1.837   5.893   8.656
21053WAT     H163401   1.927   5.928   8.683
21053WAT     H263402   1.847   5.801   8.618
21054WAT      O63403   7.156   5.876   0.771
21054WAT     H163404   7.233   5.818   0.797
21054WAT     H263405   7.181   5.972   0.781
21055WAT      O63406   9.748   0.067   0.230
21055WAT     H163407   9.775   0.163   0.242
21055WAT     H263408   9.716   0.031   0.318
21056WAT      O63409   0.648   2.594   5.532
21056WAT     H163410   0.643   2.605   5.631
21056WAT     H263411   0.597   2.668   5.487
21057WAT      O63412   3.419   3.675   8.929
21057WAT     H163413   3.426   3.639   8.836
21057WAT     H263414   3.358   3.754   8.929
21058WAT      O63415   9.298   5.065   5.355
21058WAT     H163416   9.272   5.018   5.440
21058WAT     H263417   9.221   5.063   5.291
21059WAT      O63418   1.099   4.134   7.013
21059WAT     H163419   1.135   4.225   6.994
21059WAT     H263420   1.016   4.141   7.067
21060WAT      O63421   0.695   0.097   2.369
21060WAT     H163422   0.703  -0.003   2.365
21060WAT     H263423   0.699   0.127   2.464
21061WAT      O63424   1.124   6.036   2.896
21061WAT     H163425   1.191   6.044   2.969
21061WAT     H263426   1.073   6.122   2.887
21062WAT      O63427   4.388   6.105   7.764
21062WAT     H163428   4.377   6.204   7.772
21062WAT     H263429   4.484   6.083   7.745
21063WAT      O63430   4.470   4.938   2.989
21063WAT     H163431   4.400   4.988   2.938
21063WAT     H263432   4.426   4.880   3.057
21064WAT      O63433   4.579   7.302   6.816
21064WAT     H163434   4.675   7.283   6.834
21064WAT     H263435   4.533   7.327   6.902
21065WAT      O63436   9.751   4.358   5.365
21065WAT     H163437   9.683   4.344   5.438
21065WAT     H263438   9.832   4.303   5.385
21066WAT      O63439   6.997   6.621   2.010
21066WAT     H163440   7.033   6.591   2.098
21066WAT     H263441   6.907   6.579   1.996
21067WAT      O63442   3.756   1.704   9.026
21067WAT     H163443   3.834   1.766   9.030
21067WAT     H263444   3.684   1.745   8.970
21068WAT      O63445   8.787   4.719   9.578
21068WAT     H163446   8.801   4.726   9.479
21068WAT     H263447   8.745   4.804   9.611
21069WAT      O63448   3.411   6.535   7.816
21069WAT     H163449   3.435   6.614   7.759
21069WAT     H263450   3.454   6.544   7.905
21070WAT      O63451   4.391   1.649   9.791
21070WAT     H163452   4.475   1.620   9.837
21070WAT     H263453   4.314   1.640   9.855
21071WAT      O63454   1.787   5.671   2.323
21071WAT     H163455   1.854   5.599   2.339
21071WAT     H263456   1.825   5.737   2.258
21072WAT      O63457   2.148   5.630   5.565
21072WAT     H163458   2.184   5.582   5.485
21072WAT     H263459   2.219   5.689   5.603
21073WAT      O63460   1.351   6.908   1.235
21073WAT     H163461   1.347   6.811   1.210
21073WAT     H263462   1.319   6.963   1.158
21074WAT      O63463   2.001   4.203   8.356
21074WAT     H163464   2.059   4.283   8.342
21074WAT     H263465   1.905   4.229   8.343
21075WAT      O63466   9.049   5.509   3.725
21075WAT     H163467   9.115   5.479   3.656
21075WAT     H263468   8.956   5.498   3.690
21076WAT      O63469   8.095   8.594   7.319
21076WAT     H163470   8.120   8.690   7.324
21076WAT     H263471   8.035   8.579   7.240
21077WAT      O63472   4.686   0.900   1.270
21077WAT     H163473   4.731   0.988   1.286
21077WAT     H263474   4.686   0.880   1.172
21078WAT      O63475   9.112   7.159   0.619
21078WAT     H163476   9.059   7.229   0.667
21078WAT     H263477   9.094   7.166   0.521
21079WAT      O63478   7.126   3.362   8.336
21079WAT     H163479   7.084   3.337   8.423
21079WAT     H263480   7.111   3.459   8.318
21080WAT      O63481   6.293   2.150   9.135
21080WAT     H163482   6.353   2.202   9.075
21080WAT     H263483   6.204   2.195   9.140
21081WAT      O63484   9.109   2.371   0.098
21081WAT     H163485   9.065   2.332   0.179
21081WAT     H263486   9.123   2.299   0.030
21082WAT      O63487   7.820   9.439   8.466
21082WAT     H163488   7.889   9.402   8.403
21082WAT     H263489   7.749   9.370   8.481
21083WAT      O63490   5.832   7.147   1.332
21083WAT     H163491   5.885   7.180   1.254
21083WAT     H263492   5.879   7.070   1.374
21084WAT      O63493   2.573   3.884   6.908
21084WAT     H163494   2.537   3.837   6.989
21084WAT     H263495   2.584   3.981   6.928
21085WAT      O63496   7.800   3.129   7.604
21085WAT     H163497   7.868   3.189   7.647
21085WAT     H263498   7.833   3.101   7.513
21086WAT      O63499   1.156   5.560   5.855
21086WAT     H163500   1.123   5.653   5.838
21086WAT     H263501   1.254   5.555   5.837
21087WAT      O63502   6.137   4.209   5.846
21087WAT     H163503   6.095   4.244   5.761
21087WAT     H263504   6.110   4.114   5.860
21088WAT      O63505   5.441   6.429   9.078
21088WAT     H163506   5.378   6.496   9.116
21088WAT     H263507   5.505   6.399   9.149
21089WAT      O63508   4.597   1.489   0.344
21089WAT     H163509   4.618   1.406   0.395
21089WAT     H263510   4.505   1.520   0.365
21090WAT      O63511   2.532   1.286   0.763
21090WAT     H163512   2.481   1.237   0.834
21090WAT     H263513   2.471   1.352   0.719
21091WAT      O63514   6.288   3.312   4.413
21091WAT     H163515   6.347   3.245   4.460
21091WAT     H263516   6.345   3.381   4.369
21092WAT      O63517   6.801   3.517   7.855
21092WAT     H163518   6.748   3.433   7.865
21092WAT     H263519   6.748   3.594   7.889
21093WAT      O63520   7.908   2.477   9.720
21093WAT     H163521   7.983   2.499   9.782
21093WAT     H263522   7.824   2.466   9.772
21094WAT      O63523   6.090   5.548   6.388
21094WAT     H163524   6.029   5.600   6.446
21094WAT     H263525   6.140   5.610   6.328
21095WAT      O63526   5.372   2.956   5.157
21095WAT     H163527   5.420   3.029   5.108
21095WAT     H263528   5.437   2.905   5.213
21096WAT      O63529   9.241   8.523   5.630
21096WAT     H163530   9.292   8.607   5.615
21096WAT     H263531   9.270   8.454   5.563
21097WAT      O63532   6.662   1.750   5.724
21097WAT     H163533   6.753   1.776   5.694
21097WAT     H263534   6.648   1.779   5.819
21098WAT      O63535   1.478   5.252   7.770
21098WAT     H163536   1.381   5.245   7.797
21098WAT     H263537   1.535   5.246   7.851
21099WAT      O63538   5.913   6.930   6.888
21099WAT     H163539   5.849   6.969   6.954
21099WAT     H263540   5.914   6.830   6.897
21100WAT      O63541   9.041   2.420   7.523
21100WAT     H163542   9.063   2.324   7.542
21100WAT     H263543   8.966   2.424   7.457
21101WAT      O63544   7.990   2.286   7.185
21101WAT     H163545   7.892   2.278   7.167
21101WAT     H263546   8.029   2.357   7.126
21102WAT      O63547   8.875   6.848   7.850
21102WAT     H163548   8.849   6.867   7.945
21102WAT     H263549   8.878   6.934   7.799
21103WAT      O63550   5.159   2.103   0.059
21103WAT     H163551   5.177   2.033  -0.010
21103WAT     H263552   5.166   2.194   0.018
21104WAT      O63553   8.162   7.651   8.051
21104WAT     H163554   8.197   7.740   8.080
21104WAT     H263555   8.136   7.597   8.131
21105WAT      O63556   0.426   2.018   8.791
21105WAT     H163557   0.425   2.098   8.731
21105WAT     H263558   0.408   1.935   8.738
21106WAT      O63559   4.665   2.941   9.309
21106WAT     H163560   4.659   2.858   9.364
21106WAT     H263561   4.706   2.920   9.220
21107WAT      O63562   2.717   0.397   6.566
21107WAT     H163563   2.653   0.326   6.535
21107WAT     H263564   2.666   0.475   6.601
21108WAT      O63565   8.810   6.079   1.082
21108WAT     H163566   8.831   6.175   1.062
21108WAT     H263567   8.817   6.063   1.181
21109WAT      O63568   1.609   7.282   9.847
21109WAT     H163569   1.673   7.222   9.798
21109WAT     H263570   1.655   7.322   9.926
21110WAT      O63571   1.368   9.452   8.581
21110WAT     H163572   1.277   9.450   8.540
21110WAT     H263573   1.418   9.369   8.554
21111WAT      O63574   2.319   9.668   7.175
21111WAT     H163575   2.303   9.765   7.196
21111WAT     H263576   2.407   9.659   7.127
21112WAT      O63577   8.130   7.223   4.897
21112WAT     H163578   8.096   7.165   4.972
21112WAT     H263579   8.230   7.221   4.896
21113WAT      O63580   0.600   8.008   0.907
21113WAT     H163581   0.593   8.003   0.807
21113WAT     H263582   0.588   7.916   0.945
21114WAT      O63583   4.205   3.804   1.022
21114WAT     H163584   4.145   3.780   1.097
21114WAT     H263585   4.199   3.735   0.950
21115WAT      O63586   1.055   0.419   1.920
21115WAT     H163587   1.016   0.335   1.881
21115WAT     H263588   1.083   0.403   2.014
21116WAT      O63589   1.532   7.829   5.928
21116WAT     H163590   1.435   7.850   5.921
21116WAT     H263591   1.564   7.791   5.842
21117WAT      O63592   1.425   1.253   8.299
21117WAT     H163593   1.476   1.210   8.225
21117WAT     H263594   1.488   1.304   8.357
21118WAT      O63595   7.081   1.283   1.277
21118WAT     H163596   7.151   1.272   1.348
21118WAT     H263597   7.121   1.267   1.187
21119WAT      O63598   3.438   3.909   7.570
21119WAT     H163599   3.433   3.815   7.604
21119WAT     H263600   3.414   3.911   7.473
21120WAT      O63601   2.783   8.354   7.597
21120WAT     H163602   2.811   8.347   7.692
21120WAT     H263603   2.702   8.412   7.590
21121WAT      O63604   0.159   5.442   2.614
21121WAT     H163605   0.173   5.540   2.604
21121WAT     H263606   0.096   5.425   2.691
21122WAT      O63607   6.970   6.392   3.524
21122WAT     H163608   6.883   6.404   3.570
21122WAT     H263609   6.969   6.442   3.437
21123WAT      O63610   3.033   2.333   0.131
21123WAT     H163611   3.004   2.237   0.127
21123WAT     H263612   3.112   2.341   0.192
21124WAT      O63613   1.309   4.416   0.877
21124WAT     H163614   1.409   4.416   0.891
21124WAT     H263615   1.264   4.398   0.964
21125WAT      O63616   7.964   9.773   8.208
21125WAT     H163617   8.047   9.765   8.264
21125WAT     H263618   7.944   9.685   8.167
21126WAT      O63619   4.188   5.964   6.438
21126WAT     H163620   4.238   5.977   6.523
21126WAT     H263621   4.241   5.906   6.376
21127WAT      O63622   8.956   1.479   1.593
21127WAT     H163623   8.887   1.488   1.665
21127WAT     H263624   9.009   1.564   1.587
21128WAT      O63625   3.131   4.077   8.724
21128WAT     H163626   3.169   4.133   8.797
21128WAT     H263627   3.172   4.104   8.636
21129WAT      O63628   5.330   2.944   1.287
21129WAT     H163629   5.287   2.897   1.211
21129WAT     H263630   5.260   2.988   1.344
21130WAT      O63631   0.090   0.583   0.568
21130WAT     H163632   0.061   0.488   0.570
21130WAT     H263633   0.169   0.594   0.630
21131WAT      O63634   4.881   9.620   3.286
21131WAT     H163635   4.976   9.598   3.307
21131WAT     H263636   4.821   9.576   3.353
21132WAT      O63637   1.203   4.436   2.637
21132WAT     H163638   1.228   4.532   2.650
21132WAT     H263639   1.114   4.419   2.679
21133WAT      O63640   9.147   1.336   9.208
21133WAT     H163641   9.159   1.417   9.150
21133WAT     H263642   9.216   1.268   9.184
21134WAT      O63643   9.241   8.600   4.570
21134WAT     H163644   9.182   8.573   4.494
21134WAT     H263645   9.315   8.534   4.579
21135WAT      O63646   2.175   6.589   4.027
21135WAT     H163647   2.247   6.562   4.090
21135WAT     H263648   2.191   6.547   3.937
21136WAT      O63649   1.427   6.401   1.753
21136WAT     H163650   1.373   6.443   1.680
21136WAT     H263651   1.383   6.316   1.782
21137WAT      O63652   7.868   3.608   2.025
21137WAT     H163653   7.883   3.510   2.030
21137WAT     H263654   7.925   3.654   2.093
21138WAT      O63655   8.268   9.381   6.467
21138WAT     H163656   8.254   9.480   6.461
21138WAT     H263657   8.342   9.354   6.405
21139WAT      O63658   4.615   7.798   6.507
21139WAT     H163659   4.682   7.729   6.535
21139WAT     H263660   4.542   7.753   6.455
21140WAT      O63661   8.202   4.433   7.162
21140WAT     H163662   8.287   4.430   7.215
21140WAT     H263663   8.212   4.377   7.080
21141WAT      O63664   5.236   6.452   1.705
21141WAT     H163665   5.174   6.420   1.777
21141WAT     H263666   5.190   6.522   1.650
21142WAT      O63667   6.945   8.052   1.724
21142WAT     H163668   6.969   8.015   1.814
21142WAT     H263669   7.005   8.130   1.704
21143WAT      O63670   3.541   1.762   0.843
21143WAT     H163671   3.484   1.840   0.868
21143WAT     H263672   3.485   1.680   0.836
21144WAT      O63673   1.553   4.925   7.068
21144WAT     H163674   1.514   4.975   7.145
21144WAT     H263675   1.481   4.874   7.021
21145WAT      O63676   7.415   7.762   7.333
21145WAT     H163677   7.401   7.748   7.235
21145WAT     H263678   7.341   7.817   7.370
21146WAT      O63679   7.586   1.310   9.069
21146WAT     H163680   7.541   1.278   9.153
21146WAT     H263681   7.616   1.405   9.082
21147WAT      O63682   0.932   2.225   1.245
21147WAT     H163683   1.009   2.161   1.237
21147WAT     H263684   0.940   2.295   1.175
21148WAT      O63685   8.266   9.585   7.649
21148WAT     H163686   8.240   9.619   7.740
21148WAT     H263687   8.219   9.638   7.579
21149WAT      O63688   8.046   0.260   4.813
21149WAT     H163689   8.130   0.256   4.866
21149WAT     H263690   8.003   0.169   4.811
21150WAT      O63691   6.117   3.042   7.237
21150WAT     H163692   6.023   3.039   7.272
21150WAT     H263693   6.175   2.985   7.295
21151WAT      O63694   0.321   7.361   4.353
21151WAT     H163695   0.344   7.404   4.440
21151WAT     H263696   0.223   7.373   4.335
21152WAT      O63697   3.041   4.573   8.458
21152WAT     H163698   3.098   4.651   8.485
21152WAT     H263699   2.978   4.601   8.386
21153WAT      O63700   3.423   7.815   2.392
21153WAT     H163701   3.424   7.882   2.317
21153WAT     H263702   3.373   7.853   2.470
21154WAT      O63703   9.433   0.500   3.086
21154WAT     H163704   9.429   0.401   3.072
21154WAT     H263705   9.511   0.538   3.036
21155WAT      O63706   6.957   9.579   7.465
21155WAT     H163707   6.974   9.491   7.509
21155WAT     H263708   7.020   9.648   7.500
21156WAT      O63709   4.628   1.101   9.090
21156WAT     H163710   4.593   1.048   9.167
21156WAT     H263711   4.679   1.041   9.029
21157WAT      O63712   7.890   8.876   1.339
21157WAT     H163713   7.828   8.809   1.298
21157WAT     H263714   7.984   8.856   1.313
21158WAT      O63715   6.125   0.738   1.640
21158WAT     H163716   6.042   0.681   1.638
21158WAT     H263717   6.197   0.689   1.689
21159WAT      O63718   9.434   3.793   4.699
21159WAT     H163719   9.453   3.886   4.730
21159WAT     H263720   9.518   3.751   4.665
21160WAT      O63721   2.674   0.326   7.023
21160WAT     H163722   2.706   0.351   7.115
21160WAT     H263723   2.733   0.369   6.955
21161WAT      O63724   6.779   1.522   6.660
21161WAT     H163725   6.824   1.498   6.575
21161WAT     H263726   6.811   1.612   6.690
21162WAT      O63727   7.269   4.806   0.279
21162WAT     H163728   7.172   4.830   0.278
21162WAT     H263729   7.322   4.879   0.237
21163WAT      O63730   0.484   4.465   0.746
21163WAT     H163731   0.538   4.395   0.700
21163WAT     H263732   0.422   4.507   0.680
21164WAT      O63733   7.929   0.891   5.939
21164WAT     H163734   8.012   0.939   5.967
21164WAT     H263735   7.876   0.949   5.878
21165WAT      O63736   0.559   4.569   2.321
21165WAT     H163737   0.576   4.654   2.272
21165WAT     H263738   0.481   4.521   2.280
21166WAT      O63739   6.817   3.608   8.932
21166WAT     H163740   6.806   3.701   8.966
21166WAT     H263741   6.890   3.562   8.983
21167WAT      O63742   5.094   0.617   7.635
21167WAT     H163743   5.095   0.672   7.718
21167WAT     H263744   5.019   0.551   7.638
21168WAT      O63745   3.970   8.464   1.065
21168WAT     H163746   3.978   8.401   1.142
21168WAT     H263747   3.995   8.417   0.980
21169WAT      O63748   2.166   2.695   6.968
21169WAT     H163749   2.247   2.710   7.024
21169WAT     H263750   2.133   2.602   6.981
21170WAT      O63751   1.637   1.659   3.372
21170WAT     H163752   1.683   1.725   3.313
21170WAT     H263753   1.607   1.705   3.455
21171WAT      O63754   6.420   6.923   3.784
21171WAT     H163755   6.446   6.900   3.690
21171WAT     H263756   6.402   7.022   3.789
21172WAT      O63757   9.781   7.065   2.773
21172WAT     H163758   9.852   6.998   2.793
21172WAT     H263759   9.770   7.073   2.674
21173WAT      O63760   9.025   9.018   5.045
21173WAT     H163761   9.062   8.925   5.036
21173WAT     H263762   9.060   9.075   4.971
21174WAT      O63763   9.878   4.298   3.905
21174WAT     H163764   9.899   4.250   3.820
21174WAT     H263765   9.951   4.279   3.972
21175WAT      O63766   5.464   4.662   6.452
21175WAT     H163767   5.435   4.570   6.480
21175WAT     H263768   5.486   4.661   6.354
21176WAT      O63769   4.298   4.499   5.687
21176WAT     H163770   4.206   4.523   5.716
21176WAT     H263771   4.361   4.509   5.764
21177WAT      O63772   8.261   9.768   6.030
21177WAT     H163773   8.211   9.699   6.083
21177WAT     H263774   8.196   9.829   5.986
21178WAT      O63775   9.482   7.701   4.440
21178WAT     H163776   9.504   7.617   4.489
21178WAT     H263777   9.435   7.678   4.355
21179WAT      O63778   1.328   2.566   7.843
21179WAT     H163779   1.239   2.604   7.866
21179WAT     H263780   1.400   2.630   7.872
21180WAT      O63781   3.612   4.116   9.027
21180WAT     H163782   3.618   4.080   9.120
21180WAT     H263783   3.651   4.208   9.025
21181WAT      O63784   8.143   4.148   7.679
21181WAT     H163785   8.217   4.086   7.706
21181WAT     H263786   8.069   4.095   7.638
21182WAT      O63787   0.761   4.357   9.002
21182WAT     H163788   0.692   4.422   9.034
21182WAT     H263789   0.717   4.289   8.943
21183WAT      O63790   4.345   1.751   4.714
21183WAT     H163791   4.441   1.723   4.708
21183WAT     H263792   4.293   1.682   4.765
21184WAT      O63793   2.954   1.599   9.554
21184WAT     H163794   2.947   1.499   9.548
21184WAT     H263795   2.864   1.640   9.536
21185WAT      O63796   1.684   1.111   9.692
21185WAT     H163797   1.648   1.058   9.616
21185WAT     H263798   1.784   1.107   9.691
21186WAT      O63799   5.348   5.337   1.826
21186WAT     H163800   5.305   5.401   1.761
21186WAT     H263801   5.349   5.378   1.917
21187WAT      O63802   1.865   4.450   8.028
21187WAT     H163803   1.885   4.352   8.021
21187WAT     H263804   1.944   4.498   8.067
21188WAT      O63805   7.017   5.525   9.512
21188WAT     H163806   6.950   5.490   9.447
21188WAT     H263807   7.065   5.603   9.472
21189WAT      O63808   1.461   9.478   4.373
21189WAT     H163809   1.489   9.552   4.312
21189WAT     H263810   1.401   9.515   4.444
21190WAT      O63811   5.491   6.075   9.439
21190WAT     H163812   5.502   5.981   9.406
21190WAT     H263813   5.549   6.136   9.385
21191WAT      O63814   5.241   4.338   9.621
21191WAT     H163815   5.260   4.240   9.626
21191WAT     H263816   5.142   4.352   9.624
21192WAT      O63817   6.827   5.274   8.651
21192WAT     H163818   6.767   5.194   8.658
21192WAT     H263819   6.882   5.282   8.734
21193WAT      O63820   5.940   8.905   7.131
21193WAT     H163821   5.990   8.853   7.200
21193WAT     H263822   5.855   8.941   7.171
21194WAT      O63823   8.461   0.960   9.365
21194WAT     H163824   8.536   1.026   9.361
21194WAT     H263825   8.379   1.006   9.400
21195WAT      O63826   2.304   7.144   8.594
21195WAT     H163827   2.223   7.203   8.596
21195WAT     H263828   2.277   7.051   8.566
21196WAT      O63829   2.374   6.874   4.703
21196WAT     H163830   2.395   6.879   4.801
21196WAT     H263831   2.434   6.808   4.659
21197WAT      O63832   3.351   5.869   8.644
21197WAT     H163833   3.353   5.778   8.687
21197WAT     H263834   3.260   5.909   8.656
21198WAT      O63835   1.169   7.340   2.325
21198WAT     H163836   1.232   7.340   2.247
21198WAT     H263837   1.139   7.246   2.343
21199WAT      O63838   8.321   7.015   0.305
21199WAT     H163839   8.420   7.003   0.311
21199WAT     H263840   8.291   7.080   0.376
21200WAT      O63841   3.286   0.527   4.924
21200WAT     H163842   3.230   0.479   4.856
21200WAT     H263843   3.236   0.607   4.958
21201WAT      O63844   8.878   6.053   6.451
21201WAT     H163845   8.882   6.108   6.534
21201WAT     H263846   8.935   5.971   6.463
21202WAT      O63847   4.747   1.839   8.653
21202WAT     H163848   4.678   1.831   8.725
21202WAT     H263849   4.739   1.930   8.610
21203WAT      O63850   9.539   7.735   7.563
21203WAT     H163851   9.628   7.779   7.556
21203WAT     H263852   9.551   7.637   7.577
21204WAT      O63853   1.378   0.388   4.523
21204WAT     H163854   1.462   0.356   4.480
21204WAT     H263855   1.399   0.458   4.591
21205WAT      O63856   5.509   5.806   3.203
21205WAT     H163857   5.571   5.871   3.159
21205WAT     H263858   5.433   5.855   3.245
21206WAT      O63859   0.832   1.120   8.477
21206WAT     H163860   0.835   1.028   8.517
21206WAT     H263861   0.841   1.113   8.378
21207WAT      O63862   2.770   9.149   1.143
21207WAT     H163863   2.753   9.215   1.216
21207WAT     H263864   2.858   9.104   1.157
21208WAT      O63865   4.112   4.755   5.417
21208WAT     H163866   4.052   4.832   5.398
21208WAT     H263867   4.207   4.784   5.410
21209WAT      O63868   1.112   0.171   8.635
21209WAT     H163869   1.016   0.157   8.655
21209WAT     H263870   1.121   0.234   8.558
21210WAT      O63871   2.171   5.738   5.076
21210WAT     H163872   2.105   5.782   5.015
21210WAT     H263873   2.176   5.640   5.054
21211WAT      O63874   5.756   8.174   8.920
21211WAT     H163875   5.852   8.145   8.923
21211WAT     H263876   5.704   8.113   8.860
21212WAT      O63877   6.582   2.902   0.687
21212WAT     H163878   6.512   2.888   0.618
21212WAT     H263879   6.630   2.987   0.669
21213WAT      O63880   8.077   2.122   3.949
21213WAT     H163881   8.053   2.218   3.940
21213WAT     H263882   8.076   2.096   4.046
21214WAT      O63883   3.634   0.943   7.455
21214WAT     H163884   3.732   0.937   7.435
21214WAT     H263885   3.597   1.027   7.416
21215WAT      O63886   2.549   5.304   7.049
21215WAT     H163887   2.560   5.349   7.138
21215WAT     H263888   2.538   5.206   7.062
21216WAT      O63889   1.474   8.439   8.098
21216WAT     H163890   1.418   8.403   8.173
21216WAT     H263891   1.496   8.535   8.116
21217WAT      O63892   1.699   7.730   8.579
21217WAT     H163893   1.680   7.653   8.518
21217WAT     H263894   1.784   7.775   8.551
21218WAT      O63895   4.609   3.252   1.428
21218WAT     H163896   4.624   3.206   1.515
21218WAT     H263897   4.569   3.187   1.363
21219WAT      O63898   3.171   4.416   8.248
21219WAT     H163899   3.159   4.489   8.316
21219WAT     H263900   3.085   4.367   8.236
21220WAT      O63901   7.884   8.058   2.262
21220WAT     H163902   7.819   8.012   2.323
21220WAT     H263903   7.835   8.113   2.195
21221WAT      O63904   7.248   3.117   1.057
21221WAT     H163905   7.197   3.119   1.143
21221WAT     H263906   7.272   3.023   1.034
21222WAT      O63907   7.148   0.982   9.686
21222WAT     H163908   7.200   1.021   9.610
21222WAT     H263909   7.173   0.886   9.697
21223WAT      O63910   9.444   6.673   0.122
21223WAT     H163911   9.433   6.767   0.155
21223WAT     H263912   9.491   6.619   0.192
21224WAT      O63913   6.821   2.064   8.953
21224WAT     H163914   6.852   2.028   8.865
21224WAT     H263915   6.723   2.047   8.964
21225WAT      O63916   6.369   8.558   2.302
21225WAT     H163917   6.409   8.475   2.263
21225WAT     H263918   6.429   8.636   2.285
21226WAT      O63919   6.417   3.069   7.437
21226WAT     H163920   6.396   3.105   7.347
21226WAT     H263921   6.399   2.971   7.439
21227WAT      O63922   7.557   9.478   0.340
21227WAT     H163923   7.540   9.406   0.407
21227WAT     H263924   7.544   9.442   0.248
21228WAT      O63925   5.160   4.436   3.973
21228WAT     H163926   5.098   4.514   3.975
21228WAT     H263927   5.249   4.466   3.937
21229WAT      O63928   3.060   9.658   2.828
21229WAT     H163929   3.012   9.746   2.824
21229WAT     H263930   3.137   9.659   2.764
21230WAT      O63931   1.631   6.813   5.700
21230WAT     H163932   1.702   6.744   5.684
21230WAT     H263933   1.668   6.887   5.755
21231WAT      O63934   2.082   3.193   8.522
21231WAT     H163935   2.001   3.240   8.556
21231WAT     H263936   2.118   3.132   8.594
21232WAT      O63937   1.233   6.892   1.902
21232WAT     H163938   1.330   6.904   1.923
21232WAT     H263939   1.193   6.980   1.877
21233WAT      O63940   7.252   1.158   0.375
21233WAT     H163941   7.306   1.075   0.389
21233WAT     H263942   7.181   1.164   0.445
21234WAT      O63943   7.746   0.373   0.594
21234WAT     H163944   7.708   0.385   0.502
21234WAT     H263945   7.715   0.285   0.631
21235WAT      O63946   5.255   3.687   7.754
21235WAT     H163947   5.231   3.776   7.793
21235WAT     H263948   5.352   3.685   7.731
21236WAT      O63949   1.558   9.508   8.183
21236WAT     H163950   1.575   9.566   8.104
21236WAT     H263951   1.484   9.444   8.163
21237WAT      O63952   6.220   2.504   3.884
21237WAT     H163953   6.194   2.411   3.856
21237WAT     H263954   6.319   2.514   3.880
21238WAT      O63955   3.147   0.838   8.518
21238WAT     H163956   3.223   0.828   8.453
21238WAT     H263957   3.061   0.848   8.467
21239WAT      O63958   9.149   3.210   6.246
21239WAT     H163959   9.180   3.303   6.225
21239WAT     H263960   9.131   3.161   6.161
21240WAT      O63961   8.628   2.801   0.504
21240WAT     H163962   8.541   2.751   0.503
21240WAT     H263963   8.624   2.874   0.436
21241WAT      O63964   5.902   7.325   8.730
21241WAT     H163965   5.847   7.304   8.811
21241WAT     H263966   5.905   7.246   8.670
21242WAT      O63967   0.198   9.681   4.098
21242WAT     H163968   0.127   9.705   4.164
21242WAT     H263969   0.236   9.591   4.121
21243WAT      O63970   2.726   8.247   5.295
21243WAT     H163971   2.660   8.322   5.299
21243WAT     H263972   2.729   8.201   5.383
21244WAT      O63973   8.511   2.485   9.161
21244WAT     H163974   8.607   2.499   9.185
21244WAT     H263975   8.454   2.546   9.214
21245WAT      O63976   4.286   8.796   3.659
21245WAT     H163977   4.348   8.717   3.650
21245WAT     H263978   4.194   8.768   3.630
21246WAT      O63979   2.517   3.733   7.797
21246WAT     H163980   2.531   3.799   7.871
21246WAT     H263981   2.448   3.667   7.825
21247WAT      O63982   2.694   5.448   6.180
21247WAT     H163983   2.714   5.358   6.142
21247WAT     H263984   2.740   5.457   6.269
21248WAT      O63985   8.866   6.416   5.362
21248WAT     H163986   8.796   6.433   5.432
21248WAT     H263987   8.860   6.321   5.331
21249WAT      O63988   4.413   9.625   6.998
21249WAT     H163989   4.421   9.717   6.959
21249WAT     H263990   4.504   9.594   7.028
21250WAT      O63991   4.700   9.833   4.257
21250WAT     H163992   4.743   9.831   4.167
21250WAT     H263993   4.652   9.920   4.269
21251WAT      O63994   3.476   4.788   4.911
21251WAT     H163995   3.378   4.791   4.892
21251WAT     H263996   3.526   4.832   4.836
21252WAT      O63997   5.267   7.921   1.236
21252WAT     H163998   5.283   7.979   1.316
21252WAT     H263999   5.351   7.872   1.213
21253WAT      O64000   9.762   1.018   4.247
21253WAT     H164001   9.702   1.012   4.327
21253WAT     H264002   9.781   1.114   4.227
21254WAT      O64003   0.900   3.109   4.753
21254WAT     H164004   0.897   3.010   4.765
21254WAT     H264005   0.914   3.154   4.841
21255WAT      O64006   7.043   0.952   2.277
21255WAT     H164007   7.024   0.929   2.373
21255WAT     H264008   7.106   1.030   2.274
21256WAT      O64009   9.507   4.358   3.423
21256WAT     H164010   9.459   4.343   3.337
21256WAT     H264011   9.467   4.300   3.494
21257WAT      O64012   4.345   5.137   5.183
21257WAT     H164013   4.255   5.114   5.220
21257WAT     H264014   4.389   5.203   5.243
21258WAT      O64015   4.279   1.418   5.504
21258WAT     H164016   4.234   1.378   5.424
21258WAT     H264017   4.220   1.407   5.584
21259WAT      O64018   1.328   5.102   6.882
21259WAT     H164019   1.417   5.116   6.840
21259WAT     H264020   1.276   5.035   6.829
21260WAT      O64021   7.908   1.582   0.955
21260WAT     H164022   7.982   1.540   0.903
21260WAT     H264023   7.875   1.518   1.024
21261WAT      O64024   4.883   3.681   5.471
21261WAT     H164025   4.898   3.605   5.535
21261WAT     H264026   4.948   3.754   5.491
21262WAT      O64027   7.934   0.535   1.188
21262WAT     H164028   7.857   0.540   1.251
21262WAT     H264029   8.019   0.526   1.239
21263WAT      O64030   1.657   0.865   5.508
21263WAT     H164031   1.701   0.905   5.428
21263WAT     H264032   1.657   0.766   5.500
21264WAT      O64033   1.717   5.675   0.108
21264WAT     H164034   1.625   5.648   0.134
21264WAT     H264035   1.775   5.682   0.189
21265WAT      O64036   1.894   7.156   5.069
21265WAT     H164037   1.915   7.094   5.145
21265WAT     H264038   1.905   7.107   4.983
21266WAT      O64039   8.213   3.880   8.246
21266WAT     H164040   8.236   3.804   8.307
21266WAT     H264041   8.209   3.965   8.299
21267WAT      O64042   5.040   1.949   7.807
21267WAT     H164043   4.968   1.924   7.873
21267WAT     H264044   5.007   2.023   7.749
21268WAT      O64045   9.626   8.502   2.312
21268WAT     H164046   9.606   8.587   2.264
21268WAT     H264047   9.694   8.450   2.260
21269WAT      O64048   4.513   6.424   5.960
21269WAT     H164049   4.608   6.435   5.989
21269WAT     H264050   4.484   6.330   5.973
21270WAT      O64051   6.422   7.953   9.128
21270WAT     H164052   6.371   7.928   9.211
21270WAT     H264053   6.514   7.984   9.154
21271WAT      O64054   3.442   4.630   3.849
21271WAT     H164055   3.433   4.729   3.860
21271WAT     H264056   3.535   4.608   3.818
21272WAT      O64057   3.865   3.835   6.680
21272WAT     H164058   3.785   3.802   6.629
21272WAT     H264059   3.945   3.779   6.657
21273WAT      O64060   1.846   3.347   9.198
21273WAT     H164061   1.761   3.297   9.212
21273WAT     H264062   1.828   3.434   9.153
21274WAT      O64063   4.198   9.252   4.195
21274WAT     H164064   4.232   9.284   4.106
21274WAT     H264065   4.102   9.229   4.188
21275WAT      O64066   6.810   4.630   9.365
21275WAT     H164067   6.873   4.591   9.298
21275WAT     H264068   6.860   4.652   9.449
21276WAT      O64069   0.116   4.736   3.894
21276WAT     H164070   0.127   4.727   3.794
21276WAT     H264071   0.039   4.680   3.924
21277WAT      O64072   5.076   4.793   9.521
21277WAT     H164073   5.091   4.892   9.519
21277WAT     H264074   4.982   4.775   9.552
21278WAT      O64075   6.442   6.954   9.545
21278WAT     H164076   6.373   6.930   9.477
21278WAT     H264077   6.419   6.912   9.633
21279WAT      O64078   9.678   7.627   5.641
21279WAT     H164079   9.616   7.691   5.596
21279WAT     H264080   9.756   7.678   5.679
21280WAT      O64081   3.274   0.726   9.852
21280WAT     H164082   3.238   0.635   9.828
21280WAT     H264083   3.371   0.730   9.831
21281WAT      O64084   6.793   2.007   1.830
21281WAT     H164085   6.800   2.066   1.911
21281WAT     H264086   6.870   1.943   1.829
21282WAT      O64087   0.816   2.169   8.819
21282WAT     H164088   0.723   2.183   8.851
21282WAT     H264089   0.819   2.091   8.756
21283WAT      O64090   6.828   5.827   9.521
21283WAT     H164091   6.871   5.873   9.443
21283WAT     H264092   6.886   5.838   9.602
21284WAT      O64093   3.877   1.610   6.737
21284WAT     H164094   3.784   1.586   6.766
21284WAT     H264095   3.941   1.544   6.776
21285WAT      O64096   0.477   9.663   2.340
21285WAT     H164097   0.518   9.578   2.309
21285WAT     H264098   0.478   9.667   2.440
21286WAT      O64099   4.792   9.174   4.241
21286WAT     H164100   4.797   9.161   4.340
21286WAT     H264101   4.862   9.240   4.213
21287WAT      O64102   7.789   2.002   8.053
21287WAT     H164103   7.828   2.093   8.039
21287WAT     H264104   7.805   1.946   7.972
21288WAT      O64105   5.069   3.206   9.745
21288WAT     H164106   4.974   3.197   9.713
21288WAT     H264107   5.078   3.289   9.798
21289WAT      O64108   5.730   3.983   7.324
21289WAT     H164109   5.656   3.965   7.259
21289WAT     H264110   5.764   3.896   7.360
21290WAT      O64111   2.961   3.326   9.588
21290WAT     H164112   3.021   3.248   9.606
21290WAT     H264113   2.967   3.351   9.491
21291WAT      O64114   3.525   1.158   7.944
21291WAT     H164115   3.578   1.192   7.866
21291WAT     H264116   3.430   1.144   7.916
21292WAT      O64117   8.154   3.021   9.698
21292WAT     H164118   8.085   3.069   9.753
21292WAT     H264119   8.226   3.085   9.671
21293WAT      O64120   5.681   7.693   3.619
21293WAT     H164121   5.607   7.672   3.682
21293WAT     H264122   5.703   7.791   3.624
21294WAT      O64123   3.104   8.911   5.934
21294WAT     H164124   3.113   8.886   5.837
21294WAT     H264125   3.011   8.943   5.951
21295WAT      O64126   1.168   1.599   7.711
21295WAT     H164127   1.124   1.578   7.798
21295WAT     H264128   1.097   1.619   7.642
21296WAT      O64129   7.610   7.458   5.363
21296WAT     H164130   7.592   7.434   5.267
21296WAT     H264131   7.608   7.557   5.374
21297WAT      O64132   0.595   6.120   1.542
21297WAT     H164133   0.620   6.113   1.638
21297WAT     H264134   0.587   6.216   1.515
21298WAT      O64135   4.006   0.946   6.999
21298WAT     H164136   3.983   1.030   7.049
21298WAT     H264137   4.102   0.923   7.013
21299WAT      O64138   2.467   8.753   1.754
21299WAT     H164139   2.497   8.677   1.811
21299WAT     H264140   2.536   8.771   1.683
21300WAT      O64141   9.702   8.967   7.819
21300WAT     H164142   9.647   9.003   7.895
21300WAT     H264143   9.747   8.882   7.847
21301WAT      O64144   4.047   5.767   7.384
21301WAT     H164145   3.965   5.717   7.413
21301WAT     H264146   4.077   5.733   7.295
21302WAT      O64147   3.657   3.227   4.207
21302WAT     H164148   3.615   3.223   4.116
21302WAT     H264149   3.618   3.157   4.266
21303WAT      O64150   3.672   4.003   3.376
21303WAT     H164151   3.623   3.922   3.407
21303WAT     H264152   3.683   3.998   3.276
21304WAT      O64153   2.535   5.121   4.832
21304WAT     H164154   2.493   5.206   4.802
21304WAT     H264155   2.464   5.058   4.864
21305WAT      O64156   3.300   6.343   1.557
21305WAT     H164157   3.329   6.429   1.515
21305WAT     H264158   3.200   6.336   1.553
21306WAT      O64159   7.287   5.288   9.749
21306WAT     H164160   7.241   5.377   9.745
21306WAT     H264161   7.265   5.242   9.835
21307WAT      O64162   3.316   4.205   5.162
21307WAT     H164163   3.370   4.152   5.096
21307WAT     H264164   3.377   4.266   5.213
21308WAT      O64165   4.259   4.352   8.610
21308WAT     H164166   4.278   4.448   8.588
21308WAT     H264167   4.170   4.327   8.572
21309WAT      O64168   7.548   9.528   0.831
21309WAT     H164169   7.622   9.536   0.898
21309WAT     H264170   7.559   9.443   0.780
21310WAT      O64171   5.616   0.938   9.603
21310WAT     H164172   5.645   0.849   9.569
21310WAT     H264173   5.531   0.965   9.556
21311WAT      O64174   7.817   7.593   7.788
21311WAT     H164175   7.795   7.669   7.727
21311WAT     H264176   7.859   7.519   7.736
21312WAT      O64177   8.261   9.657   6.456
21312WAT     H164178   8.259   9.703   6.545
21312WAT     H264179   8.354   9.627   6.436
21313WAT      O64180   6.185   7.921   8.130
21313WAT     H164181   6.250   7.954   8.197
21313WAT     H264182   6.202   7.965   8.041
21314WAT      O64183   5.340   2.102   4.880
21314WAT     H164184   5.303   2.102   4.973
21314WAT     H264185   5.382   2.191   4.860
21315WAT      O64186   1.429   3.435   2.652
21315WAT     H164187   1.495   3.436   2.577
21315WAT     H264188   1.399   3.528   2.671
21316WAT      O64189   1.268   4.008   7.624
21316WAT     H164190   1.317   3.922   7.638
21316WAT     H264191   1.223   4.006   7.534
21317WAT      O64192   7.695   0.836   3.819
21317WAT     H164193   7.606   0.815   3.859
21317WAT     H264194   7.687   0.838   3.719
21318WAT      O64195   8.040   7.462   3.435
21318WAT     H164196   8.104   7.527   3.393
21318WAT     H264197   8.010   7.396   3.366
21319WAT      O64198   2.801   1.267   1.393
21319WAT     H164199   2.799   1.168   1.411
21319WAT     H264200   2.735   1.312   1.453
21320WAT      O64201   5.310   6.100   4.473
21320WAT     H164202   5.316   6.200   4.473
21320WAT     H264203   5.215   6.072   4.455
21321WAT      O64204   5.027   1.787   4.879
21321WAT     H164205   4.951   1.738   4.921
21321WAT     H264206   4.992   1.862   4.823
21322WAT      O64207   1.901   9.144   3.745
21322WAT     H164208   1.837   9.146   3.822
21322WAT     H264209   1.868   9.079   3.677
21323WAT      O64210   2.661   4.645   2.882
21323WAT     H164211   2.750   4.604   2.865
21323WAT     H264212   2.589   4.579   2.861
21324WAT      O64213   2.012   1.502   7.049
21324WAT     H164214   2.047   1.412   7.074
21324WAT     H264215   1.921   1.514   7.088
21325WAT      O64216   0.992   7.110   7.238
21325WAT     H164217   0.999   7.193   7.183
21325WAT     H264218   1.043   7.036   7.193
21326WAT      O64219   0.126   3.409   0.009
21326WAT     H164220   0.146   3.325  -0.043
21326WAT     H264221   0.082   3.475  -0.052
21327WAT      O64222   8.076   3.321   2.091
21327WAT     H164223   7.978   3.332   2.071
21327WAT     H264224   8.096   3.361   2.180
21328WAT      O64225   2.504   6.651   0.919
21328WAT     H164226   2.556   6.574   0.956
21328WAT     H264227   2.543   6.678   0.830
21329WAT      O64228   9.722   2.762   0.430
21329WAT     H164229   9.765   2.717   0.508
21329WAT     H264230   9.674   2.844   0.460
21330WAT      O64231   1.329   7.954   9.664
21330WAT     H164232   1.343   7.856   9.647
21330WAT     H264233   1.401   8.006   9.617
21331WAT      O64234   2.884   7.498   8.810
21331WAT     H164235   2.980   7.477   8.794
21331WAT     H264236   2.840   7.422   8.858
21332WAT      O64237   8.462   3.504   8.542
21332WAT     H164238   8.465   3.580   8.477
21332WAT     H264239   8.514   3.527   8.624
21333WAT      O64240   1.685   1.836   6.296
21333WAT     H164241   1.695   1.922   6.347
21333WAT     H264242   1.769   1.782   6.306
21334WAT      O64243   1.789   7.274   0.502
21334WAT     H164244   1.866   7.336   0.515
21334WAT     H264245   1.741   7.298   0.417
21335WAT      O64246   2.810   8.949   8.764
21335WAT     H164247   2.758   8.863   8.762
21335WAT     H264248   2.907   8.929   8.778
21336WAT      O64249   5.114   9.672   5.641
21336WAT     H164250   5.069   9.670   5.552
21336WAT     H264251   5.084   9.593   5.695
21337WAT      O64252   0.967   4.022   8.638
21337WAT     H164253   0.895   3.975   8.586
21337WAT     H264254   1.044   4.041   8.578
21338WAT      O64255   2.538   2.362   0.430
21338WAT     H164256   2.526   2.461   0.421
21338WAT     H264257   2.455   2.315   0.399
21339WAT      O64258   0.952   3.492   0.361
21339WAT     H164259   0.859   3.505   0.329
21339WAT     H264260   0.975   3.394   0.359
21340WAT      O64261   2.089   8.239   0.117
21340WAT     H164262   2.023   8.187   0.064
21340WAT     H264263   2.078   8.337   0.097
21341WAT      O64264   4.127   4.050   0.789
21341WAT     H164265   4.049   3.993   0.762
21341WAT     H264266   4.133   4.054   0.888
21342WAT      O64267   4.355   5.476   5.094
21342WAT     H164268   4.410   5.536   5.036
21342WAT     H264269   4.381   5.490   5.190
21343WAT      O64270   2.707   6.951   8.910
21343WAT     H164271   2.775   6.912   8.848
21343WAT     H264272   2.620   6.963   8.861
21344WAT      O64273   7.905   9.532   5.364
21344WAT     H164274   7.953   9.456   5.407
21344WAT     H264275   7.853   9.499   5.286
21345WAT      O64276   5.651   2.760   6.816
21345WAT     H164277   5.736   2.739   6.768
21345WAT     H264278   5.583   2.689   6.797
21346WAT      O64279   8.779   1.454   1.046
21346WAT     H164280   8.829   1.451   1.133
21346WAT     H264281   8.843   1.471   0.971
21347WAT      O64282   9.693   4.231   6.496
21347WAT     H164283   9.662   4.137   6.511
21347WAT     H264284   9.749   4.262   6.573
21348WAT      O64285   7.718   1.140   9.719
21348WAT     H164286   7.765   1.119   9.805
21348WAT     H264287   7.625   1.170   9.740
21349WAT      O64288   9.010   4.449   0.941
21349WAT     H164289   8.912   4.468   0.951
21349WAT     H264290   9.055   4.531   0.905
21350WAT      O64291   4.458   0.408   6.389
21350WAT     H164292   4.504   0.341   6.330
21350WAT     H264293   4.425   0.362   6.472
21351WAT      O64294   4.139   4.682   8.207
21351WAT     H164295   4.101   4.694   8.299
21351WAT     H264296   4.072   4.710   8.139
21352WAT      O64297   9.376   7.734   6.857
21352WAT     H164298   9.301   7.698   6.800
21352WAT     H264299   9.341   7.809   6.914
21353WAT      O64300   4.135   6.213   6.765
21353WAT     H164301   4.180   6.196   6.852
21353WAT     H264302   4.075   6.136   6.743
21354WAT      O64303   8.829   6.169   3.537
21354WAT     H164304   8.922   6.146   3.567
21354WAT     H264305   8.777   6.085   3.524
21355WAT      O64306   0.968   3.485   6.580
21355WAT     H164307   0.956   3.416   6.652
21355WAT     H264308   0.966   3.441   6.491
21356WAT      O64309   1.264   1.289   6.790
21356WAT     H164310   1.321   1.231   6.848
21356WAT     H264311   1.168   1.263   6.801
21357WAT      O64312   1.151   1.334   3.370
21357WAT     H164313   1.214   1.295   3.437
21357WAT     H264314   1.186   1.421   3.338
21358WAT      O64315   7.600   1.179   4.225
21358WAT     H164316   7.542   1.227   4.292
21358WAT     H264317   7.543   1.119   4.168
21359WAT      O64318   8.707   6.488   2.367
21359WAT     H164319   8.675   6.393   2.367
21359WAT     H264320   8.629   6.550   2.374
21360WAT      O64321   2.688   7.511   0.588
21360WAT     H164322   2.786   7.499   0.570
21360WAT     H264323   2.660   7.451   0.662
21361WAT      O64324   1.522   3.716   5.119
21361WAT     H164325   1.577   3.713   5.202
21361WAT     H264326   1.524   3.626   5.074
21362WAT      O64327   3.888   9.652   0.781
21362WAT     H164328   3.792   9.682   0.788
21362WAT     H264329   3.944   9.729   0.750
21363WAT      O64330   1.902   2.411   4.599
21363WAT     H164331   1.874   2.460   4.681
21363WAT     H264332   1.917   2.315   4.621
21364WAT      O64333   5.710   8.614   4.767
21364WAT     H164334   5.649   8.659   4.833
21364WAT     H264335   5.725   8.675   4.689
21365WAT      O64336   7.485   0.349   5.378
21365WAT     H164337   7.481   0.250   5.364
21365WAT     H264338   7.536   0.391   5.303
21366WAT      O64339   8.257   6.223   4.054
21366WAT     H164340   8.305   6.232   3.967
21366WAT     H264341   8.252   6.127   4.080
21367WAT      O64342   6.216   5.017   9.498
21367WAT     H164343   6.296   4.992   9.444
21367WAT     H264344   6.236   5.100   9.550
21368WAT      O64345   8.250   3.803   4.300
21368WAT     H164346   8.340   3.843   4.283
21368WAT     H264347   8.260   3.707   4.325
21369WAT      O64348   3.437   9.713   9.670
21369WAT     H164349   3.390   9.761   9.743
21369WAT     H264350   3.443   9.615   9.692
21370WAT      O64351   3.711   3.813   1.788
21370WAT     H164352   3.626   3.842   1.831
21370WAT     H264353   3.773   3.891   1.780
21371WAT      O64354   0.140   8.536   0.562
21371WAT     H164355   0.218   8.554   0.622
21371WAT     H264356   0.160   8.571   0.470
21372WAT      O64357   6.440   5.135   4.525
21372WAT     H164358   6.532   5.113   4.494
21372WAT     H264359   6.373   5.086   4.469
21373WAT      O64360   5.102   0.727   9.356
21373WAT     H164361   5.106   0.638   9.401
21373WAT     H264362   5.124   0.799   9.422
21374WAT      O64363   4.320   6.392   3.092
21374WAT     H164364   4.248   6.456   3.067
21374WAT     H264365   4.368   6.426   3.173
21375WAT      O64366   6.927   1.024   7.137
21375WAT     H164367   6.998   0.963   7.170
21375WAT     H264368   6.967   1.095   7.079
21376WAT      O64369   0.101   7.100   3.590
21376WAT     H164370   0.076   7.197   3.590
21376WAT     H264371   0.185   7.087   3.537
21377WAT      O64372   1.676   4.225   0.966
21377WAT     H164373   1.770   4.238   0.998
21377WAT     H264374   1.638   4.314   0.939
21378WAT      O64375   0.929   8.887   1.466
21378WAT     H164376   0.893   8.957   1.405
21378WAT     H264377   0.911   8.913   1.561
21379WAT      O64378   5.173   8.744   2.226
21379WAT     H164379   5.102   8.804   2.262
21379WAT     H264380   5.207   8.685   2.299
21380WAT      O64381   5.141   9.609   2.466
21380WAT     H164382   5.175   9.695   2.506
21380WAT     H264383   5.216   9.561   2.421
21381WAT      O64384   2.359   5.370   5.582
21381WAT     H164385   2.423   5.419   5.641
21381WAT     H264386   2.342   5.423   5.499
21382WAT      O64387   1.519   6.450   0.442
21382WAT     H164388   1.475   6.369   0.402
21382WAT     H264389   1.578   6.422   0.518
21383WAT      O64390   3.773   2.368   1.696
21383WAT     H164391   3.764   2.401   1.790
21383WAT     H264392   3.683   2.354   1.656
21384WAT      O64393   5.063   2.056   1.266
21384WAT     H164394   5.047   2.133   1.205
21384WAT     H264395   5.066   1.971   1.212
21385WAT      O64396   5.934   3.152   7.780
21385WAT     H164397   5.864   3.085   7.753
21385WAT     H264398   6.025   3.112   7.767
21386WAT      O64399   0.759   0.018   9.302
21386WAT     H164400   0.796  -0.064   9.260
21386WAT     H264401   0.826   0.055   9.367
21387WAT      O64402   5.014   7.842   9.827
21387WAT     H164403   4.939   7.844   9.762
21387WAT     H264404   5.099   7.867   9.781
21388WAT      O64405   5.362   9.674   8.997
21388WAT     H164406   5.404   9.754   9.039
21388WAT     H264407   5.418   9.643   8.920
21389WAT      O64408   7.355   5.578   3.400
21389WAT     H164409   7.400   5.523   3.470
21389WAT     H264410   7.285   5.635   3.442
21390WAT      O64411   5.419   4.080   9.305
21390WAT     H164412   5.408   4.080   9.404
21390WAT     H264413   5.413   3.987   9.271
21391WAT      O64414   1.117   8.668   4.392
21391WAT     H164415   1.199   8.612   4.389
21391WAT     H264416   1.136   8.758   4.354
21392WAT      O64417   0.671   5.356   0.155
21392WAT     H164418   0.646   5.451   0.170
21392WAT     H264419   0.597   5.310   0.105
21393WAT      O64420   7.119   7.228   8.296
21393WAT     H164421   7.219   7.234   8.292
21393WAT     H264422   7.085   7.291   8.366
21394WAT      O64423   8.613   8.459   4.468
21394WAT     H164424   8.647   8.479   4.560
21394WAT     H264425   8.547   8.384   4.473
21395WAT      O64426   8.577   4.430   5.857
21395WAT     H164427   8.554   4.370   5.934
21395WAT     H264428   8.623   4.376   5.785
21396WAT      O64429   0.965   2.362   3.459
21396WAT     H164430   0.935   2.288   3.399
21396WAT     H264431   0.899   2.437   3.455
21397WAT      O64432   7.448   5.162   0.376
21397WAT     H164433   7.484   5.090   0.318
21397WAT     H264434   7.399   5.121   0.453
21398WAT      O64435   3.560   5.581   1.869
21398WAT     H164436   3.573   5.568   1.770
21398WAT     H264437   3.645   5.558   1.917
21399WAT      O64438   9.880   1.353   8.904
21399WAT     H164439   9.812   1.321   8.971
21399WAT     H264440   9.844   1.431   8.855
21400WAT      O64441   2.908   9.619   9.339
21400WAT     H164442   2.887   9.580   9.429
21400WAT     H264443   3.003   9.598   9.315
21401WAT      O64444   3.087   9.826   4.890
21401WAT     H164445   3.150   9.889   4.844
21401WAT     H264446   3.105   9.826   4.988
21402WAT      O64447   6.368   2.695   7.180
21402WAT     H164448   6.298   2.656   7.120
21402WAT     H264449   6.450   2.715   7.126
21403WAT      O64450   3.497   7.927   9.076
21403WAT     H164451   3.510   7.828   9.089
21403WAT     H264452   3.530   7.976   9.156
21404WAT      O64453   4.851   4.838   5.834
21404WAT     H164454   4.940   4.882   5.828
21404WAT     H264455   4.853   4.750   5.785
21405WAT      O64456   2.407   4.407   8.464
21405WAT     H164457   2.393   4.376   8.558
21405WAT     H264458   2.504   4.396   8.440
21406WAT      O64459   9.026   6.387   4.824
21406WAT     H164460   9.095   6.339   4.771
21406WAT     H264461   8.935   6.361   4.792
21407WAT      O64462   5.477   5.437   6.561
21407WAT     H164463   5.557   5.421   6.504
21407WAT     H264464   5.500   5.500   6.635
21408WAT      O64465   3.889   2.146   5.378
21408WAT     H164466   3.909   2.150   5.476
21408WAT     H264467   3.975   2.143   5.327
21409WAT      O64468   5.857   9.474   6.522
21409WAT     H164469   5.939   9.530   6.510
21409WAT     H264470   5.776   9.531   6.511
21410WAT      O64471   9.137   0.389   8.229
21410WAT     H164472   9.089   0.429   8.151
21410WAT     H264473   9.223   0.348   8.197
21411WAT      O64474   9.533   8.274   4.070
21411WAT     H164475   9.466   8.294   3.999
21411WAT     H264476   9.583   8.191   4.047
21412WAT      O64477   8.189   5.289   4.212
21412WAT     H164478   8.146   5.221   4.152
21412WAT     H264479   8.259   5.244   4.267
21413WAT      O64480   6.528   9.210   4.843
21413WAT     H164481   6.515   9.295   4.792
21413WAT     H264482   6.623   9.178   4.833
21414WAT      O64483   6.843   9.627   4.406
21414WAT     H164484   6.790   9.686   4.467
21414WAT     H264485   6.828   9.531   4.431
21415WAT      O64486   8.119   0.691   9.879
21415WAT     H164487   8.037   0.651   9.839
21415WAT     H264488   8.200   0.654   9.833
21416WAT      O64489   5.754   0.380   9.214
21416WAT     H164490   5.783   0.285   9.201
21416WAT     H264491   5.676   0.399   9.155
21417WAT      O64492   2.350   5.900   3.132
21417WAT     H164493   2.405   5.820   3.107
21417WAT     H264494   2.256   5.871   3.150
21418WAT      O64495   9.348   8.976   0.580
21418WAT     H164496   9.415   8.947   0.648
21418WAT     H264497   9.272   9.021   0.625
21419WAT      O64498   1.994   4.219   8.812
21419WAT     H164499   2.016   4.315   8.795
21419WAT     H264500   1.970   4.174   8.726
21420WAT      O64501   1.906   6.210   4.339
21420WAT     H164502   1.910   6.112   4.325
21420WAT     H264503   1.978   6.237   4.404
21421WAT      O64504   7.095   2.182   5.360
21421WAT     H164505   7.122   2.253   5.296
21421WAT     H264506   7.117   2.092   5.322
21422WAT      O64507   3.774   4.058   4.404
21422WAT     H164508   3.702   4.004   4.360
21422WAT     H264509   3.863   4.020   4.379
21423WAT      O64510   3.560   9.122   5.419
21423WAT     H164511   3.477   9.173   5.441
21423WAT     H264512   3.581   9.058   5.493
21424WAT      O64513   2.608   5.663   1.237
21424WAT     H164514   2.672   5.735   1.263
21424WAT     H264515   2.601   5.659   1.137
21425WAT      O64516   8.601   8.774   6.970
21425WAT     H164517   8.638   8.863   6.945
21425WAT     H264518   8.669   8.722   7.020
21426WAT      O64519   4.973   7.833   4.450
21426WAT     H164520   4.937   7.811   4.540
21426WAT     H264521   4.899   7.865   4.391
21427WAT      O64522   9.364   1.632   8.396
21427WAT     H164523   9.308   1.562   8.440
21427WAT     H264524   9.399   1.695   8.464
21428WAT      O64525   8.822   6.517   2.743
21428WAT     H164526   8.854   6.423   2.730
21428WAT     H264527   8.733   6.528   2.700
21429WAT      O64528   1.993   4.229   4.323
21429WAT     H164529   2.032   4.138   4.310
21429WAT     H264530   2.056   4.298   4.287
21430WAT      O64531   8.330   0.212   3.587
21430WAT     H164532   8.233   0.215   3.609
21430WAT     H264533   8.343   0.242   3.492
21431WAT      O64534   4.443   5.352   7.354
21431WAT     H164535   4.457   5.357   7.255
21431WAT     H264536   4.532   5.353   7.400
21432WAT      O64537   2.997   9.375   3.506
21432WAT     H164538   3.088   9.366   3.547
21432WAT     H264539   2.938   9.301   3.538
21433WAT      O64540   2.455   6.021   4.690
21433WAT     H164541   2.457   6.119   4.709
21433WAT     H264542   2.540   5.995   4.644
21434WAT      O64543   3.064   8.360   3.560
21434WAT     H164544   3.006   8.370   3.480
21434WAT     H264545   3.122   8.279   3.550
21435WAT      O64546   8.838   7.196   3.450
21435WAT     H164547   8.852   7.110   3.499
21435WAT     H264548   8.887   7.193   3.363
21436WAT      O64549   9.031   8.196   0.034
21436WAT     H164550   9.096   8.220   0.107
21436WAT     H264551   9.082   8.169  -0.047
21437WAT      O64552   7.614   7.723   2.463
21437WAT     H164553   7.614   7.629   2.428
21437WAT     H264554   7.523   7.762   2.453
21438WAT      O64555   6.255   5.186   7.511
21438WAT     H164556   6.288   5.092   7.515
21438WAT     H264557   6.166   5.188   7.465
21439WAT      O64558   9.277   0.318   4.814
21439WAT     H164559   9.327   0.404   4.828
21439WAT     H264560   9.190   0.322   4.864
21440WAT      O64561   7.646   2.947   8.867
21440WAT     H164562   7.622   3.044   8.869
21440WAT     H264563   7.590   2.900   8.799
21441WAT      O64564   2.602   7.372   5.013
21441WAT     H164565   2.531   7.308   4.984
21441WAT     H264566   2.692   7.331   5.000
21442WAT      O64567   1.510   1.039   7.889
21442WAT     H164568   1.484   0.942   7.885
21442WAT     H264569   1.432   1.096   7.863
21443WAT      O64570   6.288   7.097   7.239
21443WAT     H164571   6.248   7.062   7.154
21443WAT     H264572   6.379   7.136   7.220
21444WAT      O64573   0.989   9.369   3.824
21444WAT     H164574   1.082   9.393   3.850
21444WAT     H264575   0.972   9.273   3.846
21445WAT      O64576   2.580   2.511   4.954
21445WAT     H164577   2.659   2.567   4.980
21445WAT     H264578   2.573   2.433   5.015
21446WAT      O64579   9.394   0.943   6.116
21446WAT     H164580   9.451   0.970   6.038
21446WAT     H264581   9.328   0.874   6.086
21447WAT      O64582   8.203   3.737   9.538
21447WAT     H164583   8.131   3.731   9.468
21447WAT     H264584   8.240   3.830   9.539
21448WAT      O64585   8.731   4.483   6.314
21448WAT     H164586   8.742   4.491   6.413
21448WAT     H264587   8.754   4.390   6.285
21449WAT      O64588   5.768   5.731   3.681
21449WAT     H164589   5.776   5.673   3.600
21449WAT     H264590   5.816   5.688   3.758
21450WAT      O64591   9.567   7.355   2.716
21450WAT     H164592   9.564   7.258   2.740
21450WAT     H264593   9.475   7.393   2.719
21451WAT      O64594   2.924   4.986   7.624
21451WAT     H164595   2.845   5.017   7.572
21451WAT     H264596   2.896   4.960   7.716
21452WAT      O64597   7.199   9.369   4.745
21452WAT     H164598   7.259   9.295   4.775
21452WAT     H264599   7.162   9.416   4.825
21453WAT      O64600   3.469   4.726   7.934
21453WAT     H164601   3.477   4.813   7.983
21453WAT     H264602   3.375   4.693   7.942
21454WAT      O64603   3.228   2.731   5.508
21454WAT     H164604   3.256   2.785   5.429
21454WAT     H264605   3.268   2.640   5.502
21455WAT      O64606   7.252   1.048   8.049
21455WAT     H164607   7.173   1.104   8.071
21455WAT     H264608   7.221   0.964   8.004
21456WAT      O64609   7.911   1.466   3.283
21456WAT     H164610   7.829   1.438   3.232
21456WAT     H264611   7.968   1.386   3.301
21457WAT      O64612   6.845   0.161   6.981
21457WAT     H164613   6.845   0.065   7.008
21457WAT     H264614   6.751   0.191   6.963
21458WAT      O64615   3.466   0.015   1.398
21458WAT     H164616   3.368  -0.000   1.386
21458WAT     H264617   3.485   0.113   1.396
21459WAT      O64618   4.472   4.437   5.266
21459WAT     H164619   4.413   4.356   5.263
21459WAT     H264620   4.503   4.458   5.173
21460WAT      O64621   7.632   0.314   5.610
21460WAT     H164622   7.567   0.350   5.542
21460WAT     H264623   7.647   0.383   5.680
21461WAT      O64624   0.999   7.152   0.849
21461WAT     H164625   1.076   7.174   0.790
21461WAT     H264626   1.027   7.160   0.945
21462WAT      O64627   5.775   8.940   4.258
21462WAT     H164628   5.676   8.944   4.250
21462WAT     H264629   5.804   8.980   4.345
21463WAT      O64630   5.607   5.822   7.352
21463WAT     H164631   5.516   5.790   7.326
21463WAT     H264632   5.672   5.800   7.279
21464WAT      O64633   4.014   1.915   2.327
21464WAT     H164634   3.935   1.881   2.277
21464WAT     H264635   4.003   1.897   2.425
21465WAT      O64636   0.707   2.466   2.239
21465WAT     H164637   0.630   2.471   2.302
21465WAT     H264638   0.765   2.389   2.264
21466WAT      O64639   1.448   6.252   6.860
21466WAT     H164640   1.370   6.256   6.798
21466WAT     H264641   1.477   6.157   6.871
21467WAT      O64642   4.274   3.432   6.303
21467WAT     H164643   4.290   3.507   6.367
21467WAT     H264644   4.339   3.439   6.227
21468WAT      O64645   5.427   1.717   7.320
21468WAT     H164646   5.452   1.774   7.241
21468WAT     H264647   5.328   1.718   7.332
21469WAT      O64648   5.904   5.044   1.202
21469WAT     H164649   5.805   5.045   1.214
21469WAT     H264650   5.947   4.999   1.280
21470WAT      O64651   8.358   3.690   3.114
21470WAT     H164652   8.295   3.618   3.144
21470WAT     H264653   8.306   3.766   3.075
21471WAT      O64654   3.121   5.606   6.483
21471WAT     H164655   3.056   5.673   6.521
21471WAT     H264656   3.155   5.547   6.556
21472WAT      O64657   5.713   0.665   5.848
21472WAT     H164658   5.645   0.713   5.903
21472WAT     H264659   5.766   0.604   5.906
21473WAT      O64660   4.794   2.372   5.303
21473WAT     H164661   4.786   2.437   5.379
21473WAT     H264662   4.704   2.356   5.264
21474WAT      O64663   8.473   0.097   4.328
21474WAT     H164664   8.415   0.024   4.363
21474WAT     H264665   8.481   0.088   4.228
21475WAT      O64666   7.808   1.926   3.107
21475WAT     H164667   7.770   1.837   3.083
21475WAT     H264668   7.871   1.956   3.034
21476WAT      O64669   5.644   1.942   7.735
21476WAT     H164670   5.564   1.897   7.694
21476WAT     H264671   5.692   1.877   7.794
21477WAT      O64672   7.480   7.833   4.605
21477WAT     H164673   7.511   7.771   4.533
21477WAT     H264674   7.396   7.798   4.646
21478WAT      O64675   1.359   1.426   4.056
21478WAT     H164676   1.447   1.378   4.055
21478WAT     H264677   1.373   1.522   4.035
21479WAT      O64678   7.446   1.920   6.238
21479WAT     H164679   7.392   1.837   6.250
21479WAT     H264680   7.462   1.937   6.141
21480WAT      O64681   1.892   0.041   6.596
21480WAT     H164682   1.926   0.130   6.565
21480WAT     H264683   1.961  -0.029   6.580
21481WAT      O64684   9.819   0.569   3.531
21481WAT     H164685   9.809   0.470   3.545
21481WAT     H264686   9.730   0.609   3.512
21482WAT      O64687   0.991   6.778   4.059
21482WAT     H164688   0.951   6.845   4.122
21482WAT     H264689   0.921   6.745   3.997
21483WAT      O64690   2.039   3.183   0.143
21483WAT     H164691   1.949   3.227   0.145
21483WAT     H264692   2.051   3.139   0.054
21484WAT      O64693   6.601   6.096   3.249
21484WAT     H164694   6.613   6.007   3.206
21484WAT     H264695   6.645   6.167   3.194
21485WAT      O64696   5.613   7.854   7.545
21485WAT     H164697   5.592   7.938   7.495
21485WAT     H264698   5.633   7.877   7.641
21486WAT      O64699   3.093   0.901   9.759
21486WAT     H164700   3.106   0.895   9.660
21486WAT     H264701   3.156   0.838   9.805
21487WAT      O64702   8.007   4.289   4.677
21487WAT     H164703   7.937   4.345   4.721
21487WAT     H264704   8.042   4.223   4.743
21488WAT      O64705   4.972   0.012   9.419
21488WAT     H164706   4.929   0.021   9.329
21488WAT     H264707   5.035   0.088   9.433
21489WAT      O64708   7.130   9.473   0.396
21489WAT     H164709   7.142   9.457   0.494
21489WAT     H264710   7.179   9.403   0.344
21490WAT      O64711   6.818   9.298   6.015
21490WAT     H164712   6.733   9.246   6.022
21490WAT     H264713   6.896   9.236   6.018
21491WAT      O64714   0.854   7.865   6.604
21491WAT     H164715   0.857   7.940   6.538
21491WAT     H264716   0.782   7.883   6.671
21492WAT      O64717   3.718   9.702   9.866
21492WAT     H164718   3.773   9.672   9.944
21492WAT     H264719   3.653   9.631   9.841
21493WAT      O64720   3.870   7.237   9.570
21493WAT     H164721   3.791   7.296   9.552
21493WAT     H264722   3.916   7.215   9.483
21494WAT      O64723   7.634   4.651   0.307
21494WAT     H164724   7.644   4.705   0.223
21494WAT     H264725   7.627   4.554   0.283
21495WAT      O64726   6.244   7.388   6.943
21495WAT     H164727   6.305   7.411   6.867
21495WAT     H264728   6.298   7.353   7.019
21496WAT      O64729   0.879   8.101   1.629
21496WAT     H164730   0.857   8.129   1.536
21496WAT     H264731   0.860   8.176   1.692
21497WAT      O64732   9.591   3.921   7.776
21497WAT     H164733   9.536   4.004   7.764
21497WAT     H264734   9.599   3.874   7.688
21498WAT      O64735   8.834   3.517   6.998
21498WAT     H164736   8.857   3.421   6.982
21498WAT     H264737   8.837   3.535   7.096
21499WAT      O64738   5.610   0.827   3.109
21499WAT     H164739   5.667   0.906   3.133
21499WAT     H264740   5.645   0.745   3.155
21500WAT      O64741   5.518   9.552   8.815
21500WAT     H164742   5.597   9.498   8.788
21500WAT     H264743   5.452   9.553   8.739
21501WAT      O64744   6.143   1.042   4.624
21501WAT     H164745   6.225   1.072   4.575
21501WAT     H264746   6.170   1.002   4.712
21502WAT      O64747   7.794   4.043   8.344
21502WAT     H164748   7.734   4.114   8.307
21502WAT     H264749   7.758   3.953   8.321
21503WAT      O64750   6.579   7.219   7.207
21503WAT     H164751   6.540   7.214   7.115
21503WAT     H264752   6.630   7.304   7.217
21504WAT      O64753   4.968   8.429   1.628
21504WAT     H164754   5.028   8.355   1.658
21504WAT     H264755   4.991   8.513   1.678
21505WAT      O64756   2.653   7.245   3.305
21505WAT     H164757   2.666   7.263   3.402
21505WAT     H264758   2.713   7.171   3.276
21506WAT      O64759   7.361   3.277   8.486
21506WAT     H164760   7.330   3.228   8.568
21506WAT     H264761   7.283   3.304   8.431
21507WAT      O64762   6.725   2.217   8.069
21507WAT     H164763   6.807   2.256   8.025
21507WAT     H264764   6.643   2.253   8.023
21508WAT      O64765   7.096   2.433   0.416
21508WAT     H164766   7.027   2.363   0.431
21508WAT     H264767   7.175   2.415   0.475
21509WAT      O64768   5.948   6.855   6.558
21509WAT     H164769   6.005   6.869   6.640
21509WAT     H264770   5.854   6.881   6.579
21510WAT      O64771   7.724   2.078   0.931
21510WAT     H164772   7.632   2.096   0.897
21510WAT     H264773   7.732   1.982   0.959
21511WAT      O64774   3.042   1.974   9.359
21511WAT     H164775   3.070   1.887   9.320
21511WAT     H264776   3.085   2.049   9.309
21512WAT      O64777   8.390   2.668   2.903
21512WAT     H164778   8.357   2.761   2.922
21512WAT     H264779   8.336   2.629   2.828
21513WAT      O64780   5.052   4.362   8.876
21513WAT     H164781   5.084   4.456   8.870
21513WAT     H264782   4.952   4.361   8.882
21514WAT      O64783   3.371   1.204   3.060
21514WAT     H164784   3.401   1.171   2.970
21514WAT     H264785   3.357   1.303   3.056
21515WAT      O64786   7.091   7.492   9.812
21515WAT     H164787   7.019   7.435   9.774
21515WAT     H264788   7.086   7.583   9.771
21516WAT      O64789   6.556   5.917   4.101
21516WAT     H164790   6.648   5.943   4.131
21516WAT     H264791   6.489   5.971   4.152
21517WAT      O64792   9.326   1.574   2.737
21517WAT     H164793   9.230   1.583   2.761
21517WAT     H264794   9.354   1.478   2.743
21518WAT      O64795   4.109   4.650   4.953
21518WAT     H164796   4.026   4.699   4.928
21518WAT     H264797   4.165   4.636   4.872
21519WAT      O64798   5.455   2.849   7.401
21519WAT     H164799   5.540   2.882   7.361
21519WAT     H264800   5.446   2.884   7.495
21520WAT      O64801   9.180   7.216   0.015
21520WAT     H164802   9.159   7.149   0.087
21520WAT     H264803   9.124   7.196  -0.065
21521WAT      O64804   4.999   7.384   6.505
21521WAT     H164805   4.948   7.339   6.432
21521WAT     H264806   4.937   7.440   6.560
21522WAT      O64807   6.100   7.674   0.112
21522WAT     H164808   6.036   7.612   0.068
21522WAT     H264809   6.066   7.698   0.203
21523WAT      O64810   5.220   1.532   8.917
21523WAT     H164811   5.208   1.627   8.886
21523WAT     H264812   5.131   1.491   8.934
21524WAT      O64813   7.299   8.665   4.456
21524WAT     H164814   7.290   8.642   4.359
21524WAT     H264815   7.375   8.612   4.495
21525WAT      O64816   5.523   6.179   1.913
21525WAT     H164817   5.463   6.099   1.924
21525WAT     H264818   5.615   6.156   1.944
21526WAT      O64819   0.016   7.846   9.517
21526WAT     H164820  -0.012   7.864   9.612
21526WAT     H264821  -0.029   7.763   9.485
21527WAT      O64822   8.871   6.255   2.661
21527WAT     H164823   8.928   6.241   2.580
21527WAT     H264824   8.798   6.187   2.663
21528WAT      O64825   8.053   9.331   5.521
21528WAT     H164826   7.971   9.354   5.574
21528WAT     H264827   8.080   9.237   5.540
21529WAT      O64828   2.155   9.008   3.876
21529WAT     H164829   2.161   8.914   3.907
21529WAT     H264830   2.091   9.059   3.935
21530WAT      O64831   4.802   0.929   7.079
21530WAT     H164832   4.837   0.850   7.029
21530WAT     H264833   4.873   0.999   7.085
21531WAT      O64834   1.887   7.959   1.943
21531WAT     H164835   1.825   7.946   2.020
21531WAT     H264836   1.837   7.947   1.858
21532WAT      O64837   4.107   6.988   3.131
21532WAT     H164838   4.205   6.981   3.148
21532WAT     H264839   4.057   6.971   3.215
21533WAT      O64840   8.548   3.455   7.488
21533WAT     H164841   8.458   3.490   7.513
21533WAT     H264842   8.539   3.391   7.412
21534WAT      O64843   9.279   8.705   8.058
21534WAT     H164844   9.220   8.643   8.006
21534WAT     H264845   9.372   8.669   8.060
21535WAT      O64846   4.855   6.706   0.501
21535WAT     H164847   4.863   6.608   0.482
21535WAT     H264848   4.853   6.720   0.600
21536WAT      O64849   0.725   1.530   1.556
21536WAT     H164850   0.734   1.454   1.620
21536WAT     H264851   0.735   1.617   1.605
21537WAT      O64852   3.810   4.168   7.554
21537WAT     H164853   3.784   4.102   7.624
21537WAT     H264854   3.733   4.229   7.534
21538WAT      O64855   3.067   3.420   3.989
21538WAT     H164856   2.969   3.414   3.967
21538WAT     H264857   3.095   3.337   4.037
21539WAT      O64858   7.791   4.188   6.597
21539WAT     H164859   7.692   4.202   6.588
21539WAT     H264860   7.839   4.268   6.560
21540WAT      O64861   8.164   2.373   0.430
21540WAT     H164862   8.252   2.345   0.469
21540WAT     H264863   8.176   2.459   0.381
21541WAT      O64864   2.862   8.933   3.891
21541WAT     H164865   2.781   8.976   3.931
21541WAT     H264866   2.917   9.003   3.846
21542WAT      O64867   3.156   7.999   5.243
21542WAT     H164868   3.085   8.053   5.289
21542WAT     H264869   3.114   7.944   5.171
21543WAT      O64870   7.700   2.097   7.340
21543WAT     H164871   7.602   2.087   7.358
21543WAT     H264872   7.714   2.144   7.253
21544WAT      O64873   3.234   9.590   8.286
21544WAT     H164874   3.262   9.622   8.377
21544WAT     H264875   3.315   9.573   8.231
21545WAT      O64876   6.714   6.197   1.003
21545WAT     H164877   6.812   6.198   0.987
21545WAT     H264878   6.683   6.103   1.015
21546WAT      O64879   8.837   0.176   3.752
21546WAT     H164880   8.851   0.157   3.849
21546WAT     H264881   8.917   0.224   3.715
21547WAT      O64882   4.799   2.683   4.445
21547WAT     H164883   4.726   2.615   4.445
21547WAT     H264884   4.823   2.706   4.350
21548WAT      O64885   7.023   5.864   9.719
21548WAT     H164886   7.040   5.833   9.812
21548WAT     H264887   7.084   5.818   9.656
21549WAT      O64888   0.542   3.343   2.588
21549WAT     H164889   0.474   3.395   2.536
21549WAT     H264890   0.521   3.246   2.582
21550WAT      O64891   2.557   6.245   2.849
21550WAT     H164892   2.593   6.214   2.937
21550WAT     H264893   2.605   6.329   2.822
21551WAT      O64894   2.746   4.025   6.046
21551WAT     H164895   2.845   4.028   6.061
21551WAT     H264896   2.723   3.945   5.989
21552WAT      O64897   1.311   6.184   1.820
21552WAT     H164898   1.213   6.202   1.814
21552WAT     H264899   1.329   6.089   1.797
21553WAT      O64900   7.471   4.716   8.199
21553WAT     H164901   7.487   4.815   8.199
21553WAT     H264902   7.410   4.693   8.274
21554WAT      O64903   7.453   8.236   2.863
21554WAT     H164904   7.404   8.245   2.776
21554WAT     H264905   7.536   8.183   2.850
21555WAT      O64906   7.407   2.931   4.382
21555WAT     H164907   7.391   2.833   4.384
21555WAT     H264908   7.419   2.960   4.287
21556WAT      O64909   8.565   6.019   4.942
21556WAT     H164910   8.550   6.043   4.846
21556WAT     H264911   8.631   5.944   4.948
21557WAT      O64912   7.302   5.931   3.694
21557WAT     H164913   7.359   5.964   3.770
21557WAT     H264914   7.336   5.970   3.608
21558WAT      O64915   4.067   3.201   1.440
21558WAT     H164916   4.026   3.224   1.528
21558WAT     H264917   4.141   3.135   1.454
21559WAT      O64918   5.121   2.243   6.012
21559WAT     H164919   5.192   2.310   6.031
21559WAT     H264920   5.133   2.207   5.919
21560WAT      O64921   1.836   8.124   9.883
21560WAT     H164922   1.788   8.039   9.904
21560WAT     H264923   1.823   8.147   9.787
21561WAT      O64924   3.065   3.837   6.814
21561WAT     H164925   2.974   3.810   6.783
21561WAT     H264926   3.059   3.920   6.869
21562WAT      O64927   0.785   4.344   3.497
21562WAT     H164928   0.784   4.246   3.518
21562WAT     H264929   0.803   4.357   3.400
21563WAT      O64930   0.919   7.915   4.689
21563WAT     H164931   1.006   7.934   4.641
21563WAT     H264932   0.894   7.995   4.744
21564WAT      O64933   2.529   9.338   0.028
21564WAT     H164934   2.579   9.258   0.062
21564WAT     H264935   2.511   9.326  -0.070
21565WAT      O64936   2.334   7.249   2.569
21565WAT     H164937   2.296   7.252   2.661
21565WAT     H264938   2.359   7.342   2.540
21566WAT      O64939   8.002   4.400   0.065
21566WAT     H164940   7.907   4.415   0.038
21566WAT     H264941   8.043   4.331   0.006
21567WAT      O64942   6.212   6.561   2.562
21567WAT     H164943   6.302   6.603   2.571
21567WAT     H264944   6.155   6.617   2.501
21568WAT      O64945   0.544   9.715   2.054
21568WAT     H164946   0.502   9.639   2.102
21568WAT     H264947   0.501   9.801   2.083
21569WAT      O64948   2.757   2.110   8.097
21569WAT     H164949   2.811   2.026   8.107
21569WAT     H264950   2.785   2.158   8.015
21570WAT      O64951   3.283   4.240   0.689
21570WAT     H164952   3.284   4.154   0.638
21570WAT     H264953   3.256   4.221   0.784
21571WAT      O64954   8.446   3.018   8.018
21571WAT     H164955   8.414   3.108   8.046
21571WAT     H264956   8.543   3.023   7.996
21572WAT      O64957   2.743   9.375   9.488
21572WAT     H164958   2.673   9.444   9.469
21572WAT     H264959   2.701   9.284   9.489
21573WAT      O64960   6.228   8.783   7.167
21573WAT     H164961   6.218   8.819   7.074
21573WAT     H264962   6.187   8.692   7.172
21574WAT      O64963   2.862   3.608   6.561
21574WAT     H164964   2.827   3.605   6.654
21574WAT     H264965   2.842   3.521   6.515
21575WAT      O64966   1.750   4.713   3.608
21575WAT     H164967   1.819   4.772   3.567
21575WAT     H264968   1.667   4.713   3.552
21576WAT      O64969   4.709   2.384   4.684
21576WAT     H164970   4.647   2.381   4.605
21576WAT     H264971   4.719   2.291   4.721
21577WAT      O64972   0.554   4.552   9.103
21577WAT     H164973   0.531   4.627   9.041
21577WAT     H264974   0.470   4.504   9.129
21578WAT      O64975   1.715   1.720   9.145
21578WAT     H164976   1.747   1.626   9.129
21578WAT     H264977   1.633   1.718   9.202
21579WAT      O64978   0.007   2.079   8.522
21579WAT     H164979  -0.071   2.084   8.460
21579WAT     H264980   0.037   1.983   8.530
21580WAT      O64981   9.822   2.117   1.098
21580WAT     H164982   9.769   2.045   1.144
21580WAT     H264983   9.893   2.151   1.159
21581WAT      O64984   9.763   2.079   5.822
21581WAT     H164985   9.775   2.118   5.731
21581WAT     H264986   9.712   2.143   5.879
21582WAT      O64987   7.745   8.690   8.951
21582WAT     H164988   7.771   8.775   8.995
21582WAT     H264989   7.649   8.671   8.967
21583WAT      O64990   0.947   2.853   8.937
21583WAT     H164991   0.997   2.797   9.002
21583WAT     H264992   0.961   2.819   8.844
21584WAT      O64993   1.856   7.210   5.909
21584WAT     H164994   1.834   7.165   5.996
21584WAT     H264995   1.805   7.295   5.903
21585WAT      O64996   6.600   0.791   1.198
21585WAT     H164997   6.549   0.734   1.263
21585WAT     H264998   6.603   0.744   1.110
21586WAT      O64999   0.039   5.726   9.601
21586WAT     H165000   0.005   5.806   9.552
21586WAT     H265001  -0.029   5.652   9.596
21587WAT      O65002   9.546   0.182   9.786
21587WAT     H165003   9.509   0.193   9.879
21587WAT     H265004   9.564   0.272   9.747
21588WAT      O65005   3.118   0.553   1.268
21588WAT     H165006   3.143   0.569   1.172
21588WAT     H265007   3.200   0.534   1.322
21589WAT      O65008   0.772   4.122   9.123
21589WAT     H165009   0.832   4.074   9.059
21589WAT     H265010   0.776   4.220   9.105
21590WAT      O65011   2.735   4.163   1.967
21590WAT     H165012   2.829   4.190   1.988
21590WAT     H265013   2.717   4.072   2.005
21591WAT      O65014   4.006   4.275   8.304
21591WAT     H165015   4.057   4.331   8.239
21591WAT     H265016   4.051   4.187   8.315
21592WAT      O65017   2.435   4.764   4.806
21592WAT     H165018   2.527   4.752   4.843
21592WAT     H265019   2.433   4.733   4.711
21593WAT      O65020   8.079   7.708   0.726
21593WAT     H165021   8.177   7.694   0.735
21593WAT     H265022   8.050   7.782   0.786
21594WAT      O65023   7.540   4.465   4.291
21594WAT     H165024   7.474   4.504   4.355
21594WAT     H265025   7.631   4.501   4.310
21595WAT      O65026   2.156   5.847   7.372
21595WAT     H165027   2.206   5.840   7.286
21595WAT     H265028   2.209   5.899   7.438
21596WAT      O65029   3.507   0.973   2.521
21596WAT     H165030   3.490   0.876   2.538
21596WAT     H265031   3.477   1.027   2.600
21597WAT      O65032   7.298   5.683   4.050
21597WAT     H165033   7.307   5.781   4.068
21597WAT     H265034   7.253   5.670   3.962
21598WAT      O65035   3.294   3.055   3.078
21598WAT     H165036   3.366   2.995   3.112
21598WAT     H265037   3.254   3.107   3.154
21599WAT      O65038   3.205   7.535   5.358
21599WAT     H165039   3.288   7.588   5.343
21599WAT     H265040   3.125   7.593   5.341
21600WAT      O65041   4.428   7.685   6.794
21600WAT     H165042   4.433   7.714   6.699
21600WAT     H265043   4.338   7.645   6.813
21601WAT      O65044   7.387   5.034   5.728
21601WAT     H165045   7.374   5.101   5.800
21601WAT     H265046   7.383   5.079   5.639
21602WAT      O65047   0.039   6.779   2.489
21602WAT     H165048   0.004   6.845   2.423
21602WAT     H265049   0.125   6.741   2.455
21603WAT      O65050   9.811   9.325   1.266
21603WAT     H165051   9.771   9.346   1.177
21603WAT     H265052   9.875   9.398   1.291
21604WAT      O65053   6.052   1.284   6.405
21604WAT     H165054   6.016   1.372   6.436
21604WAT     H265055   6.075   1.290   6.307
21605WAT      O65056   0.614   8.464   0.368
21605WAT     H165057   0.545   8.402   0.406
21605WAT     H265058   0.703   8.441   0.407
21606WAT      O65059   8.655   3.582   8.731
21606WAT     H165060   8.738   3.528   8.715
21606WAT     H265061   8.631   3.578   8.828
21607WAT      O65062   6.652   0.755   6.313
21607WAT     H165063   6.635   0.731   6.408
21607WAT     H265064   6.632   0.677   6.254
21608WAT      O65065   3.777   2.536   9.651
21608WAT     H165066   3.864   2.583   9.667
21608WAT     H265067   3.701   2.600   9.662
21609WAT      O65068   3.333   5.170   9.440
21609WAT     H165069   3.395   5.158   9.517
21609WAT     H265070   3.271   5.247   9.459
21610WAT      O65071   3.263   2.344   3.003
21610WAT     H165072   3.294   2.373   2.912
21610WAT     H265073   3.257   2.424   3.063
21611WAT      O65074   6.033   7.632   8.005
21611WAT     H165075   5.938   7.621   8.034
21611WAT     H265076   6.091   7.568   8.056
21612WAT      O65077   9.276   8.346   4.721
21612WAT     H165078   9.288   8.295   4.635
21612WAT     H265079   9.181   8.338   4.752
21613WAT      O65080   8.953   3.461   3.121
21613WAT     H165081   8.880   3.402   3.087
21613WAT     H265082   8.980   3.431   3.213
21614WAT      O65083   9.236   2.569   4.941
21614WAT     H165084   9.207   2.529   4.854
21614WAT     H265085   9.280   2.657   4.925
21615WAT      O65086   5.692   9.474   3.338
21615WAT     H165087   5.627   9.549   3.342
21615WAT     H265088   5.643   9.387   3.347
21616WAT      O65089   8.681   2.818   5.148
21616WAT     H165090   8.766   2.864   5.173
21616WAT     H265091   8.623   2.881   5.097
21617WAT      O65092   2.060   2.132   1.821
21617WAT     H165093   2.083   2.133   1.918
21617WAT     H265094   1.990   2.200   1.802
21618WAT      O65095   4.029   4.951   9.439
21618WAT     H165096   3.949   4.940   9.499
21618WAT     H265097   4.048   4.865   9.393
21619WAT      O65098   9.197   7.123   4.813
21619WAT     H165099   9.252   7.137   4.895
21619WAT     H265100   9.158   7.030   4.814
21620WAT      O65101   4.208   3.364   1.236
21620WAT     H165102   4.267   3.428   1.285
21620WAT     H265103   4.128   3.343   1.292
21621WAT      O65104   0.337   4.526   7.206
21621WAT     H165105   0.260   4.529   7.142
21621WAT     H265106   0.358   4.619   7.237
21622WAT      O65107   0.423   3.599   4.018
21622WAT     H165108   0.374   3.602   4.105
21622WAT     H265109   0.438   3.503   3.991
21623WAT      O65110   1.123   7.801   6.601
21623WAT     H165111   1.024   7.811   6.594
21623WAT     H265112   1.153   7.719   6.552
21624WAT      O65113   7.877   8.066   0.647
21624WAT     H165114   7.832   8.139   0.700
21624WAT     H265115   7.815   7.988   0.639
21625WAT      O65116   5.808   9.040   2.508
21625WAT     H165117   5.775   9.037   2.414
21625WAT     H265118   5.749   8.983   2.566
21626WAT      O65119   4.610   5.215   5.951
21626WAT     H165120   4.694   5.255   5.914
21626WAT     H265121   4.580   5.140   5.891
21627WAT      O65122   4.198   0.696   3.551
21627WAT     H165123   4.110   0.736   3.577
21627WAT     H265124   4.216   0.716   3.455
21628WAT      O65125   7.820   5.179   7.289
21628WAT     H165126   7.786   5.184   7.383
21628WAT     H265127   7.827   5.083   7.261
21629WAT      O65128   8.181   0.109   2.430
21629WAT     H165129   8.274   0.073   2.427
21629WAT     H265130   8.116   0.033   2.419
21630WAT      O65131   9.268   4.018   3.099
21630WAT     H165132   9.287   3.959   3.178
21630WAT     H265133   9.258   3.961   3.017
21631WAT      O65134   0.168   3.106   5.405
21631WAT     H165135   0.192   3.111   5.308
21631WAT     H265136   0.069   3.096   5.414
21632WAT      O65137   6.020   7.867   7.868
21632WAT     H165138   5.997   7.922   7.947
21632WAT     H265139   6.032   7.771   7.897
21633WAT      O65140   7.948   1.546   1.998
21633WAT     H165141   8.045   1.552   2.020
21633WAT     H265142   7.916   1.634   1.963
21634WAT      O65143   4.278   8.744   4.439
21634WAT     H165144   4.256   8.830   4.393
21634WAT     H265145   4.322   8.763   4.527
21635WAT      O65146   7.753   2.218   5.061
21635WAT     H165147   7.814   2.260   5.129
21635WAT     H265148   7.694   2.152   5.107
21636WAT      O65149   3.674   9.255   1.718
21636WAT     H165150   3.675   9.279   1.816
21636WAT     H265151   3.602   9.306   1.672
21637WAT      O65152   6.270   4.846   4.088
21637WAT     H165153   6.181   4.803   4.079
21637WAT     H265154   6.319   4.841   4.000
21638WAT      O65155   3.706   6.343   0.049
21638WAT     H165156   3.752   6.273   0.103
21638WAT     H265157   3.755   6.355  -0.038
21639WAT      O65158   3.574   1.806   3.969
21639WAT     H165159   3.541   1.798   3.875
21639WAT     H265160   3.517   1.870   4.020
21640WAT      O65161   7.959   5.558   9.258
21640WAT     H165162   7.870   5.518   9.281
21640WAT     H265163   8.032   5.496   9.285
21641WAT      O65164   7.590   3.198   8.868
21641WAT     H165165   7.556   3.272   8.926
21641WAT     H265166   7.580   3.223   8.772
21642WAT      O65167   0.303   9.107   9.228
21642WAT     H165168   0.220   9.162   9.237
21642WAT     H265169   0.294   9.045   9.149
21643WAT      O65170   8.234   6.491   9.041
21643WAT     H165171   8.239   6.449   8.951
21643WAT     H265172   8.167   6.442   9.097
21644WAT      O65173   8.526   2.071   7.769
21644WAT     H165174   8.542   2.058   7.671
21644WAT     H265175   8.604   2.121   7.809
21645WAT      O65176   9.708   2.282   0.914
21645WAT     H165177   9.626   2.312   0.964
21645WAT     H265178   9.756   2.213   0.968
21646WAT      O65179   8.233   3.880   2.945
21646WAT     H165180   8.267   3.883   2.851
21646WAT     H265181   8.138   3.911   2.949
21647WAT      O65182   8.931   5.658   9.606
21647WAT     H165183   8.921   5.650   9.507
21647WAT     H265184   8.936   5.755   9.632
21648WAT      O65185   5.217   2.023   6.328
21648WAT     H165186   5.269   2.007   6.412
21648WAT     H265187   5.123   1.989   6.340
21649WAT      O65188   3.407   6.952   7.793
21649WAT     H165189   3.452   6.874   7.750
21649WAT     H265190   3.424   6.951   7.891
21650WAT      O65191   4.547   1.909   5.376
21650WAT     H165192   4.646   1.900   5.372
21650WAT     H265193   4.506   1.866   5.295
21651WAT      O65194   9.672   3.700   8.667
21651WAT     H165195   9.624   3.719   8.753
21651WAT     H265196   9.632   3.753   8.593
21652WAT      O65197   7.200   1.343   5.052
21652WAT     H165198   7.253   1.259   5.047
21652WAT     H265199   7.242   1.413   4.994
21653WAT      O65200   2.421   3.055   8.652
21653WAT     H165201   2.452   2.999   8.576
21653WAT     H265202   2.328   3.028   8.677
21654WAT      O65203   8.465   6.761   5.300
21654WAT     H165204   8.399   6.775   5.226
21654WAT     H265205   8.417   6.728   5.381
21655WAT      O65206   3.528   4.830   9.785
21655WAT     H165207   3.544   4.928   9.787
21655WAT     H265208   3.448   4.808   9.840
21656WAT      O65209   6.551   8.963   0.733
21656WAT     H165210   6.590   8.907   0.806
21656WAT     H265211   6.625   9.012   0.685
21657WAT      O65212   1.843   1.524   3.620
21657WAT     H165213   1.904   1.601   3.639
21657WAT     H265214   1.796   1.498   3.704
21658WAT      O65215   7.124   3.681   7.777
21658WAT     H165216   7.098   3.625   7.856
21658WAT     H265217   7.153   3.622   7.702
21659WAT      O65218   6.807   7.744   5.301
21659WAT     H165219   6.841   7.770   5.211
21659WAT     H265220   6.870   7.680   5.344
21660WAT      O65221   2.429   5.725   8.735
21660WAT     H165222   2.399   5.728   8.830
21660WAT     H265223   2.362   5.771   8.677
21661WAT      O65224   4.019   0.112   2.772
21661WAT     H165225   3.992   0.139   2.679
21661WAT     H265226   4.100   0.053   2.767
21662WAT      O65227   8.186   1.428   5.430
21662WAT     H165228   8.097   1.397   5.463
21662WAT     H265229   8.248   1.350   5.425
21663WAT      O65230   4.169   8.025   3.314
21663WAT     H165231   4.210   8.107   3.276
21663WAT     H265232   4.211   7.944   3.273
21664WAT      O65233   4.974   6.834   3.134
21664WAT     H165234   5.020   6.810   3.049
21664WAT     H265235   4.905   6.765   3.156
21665WAT      O65236   7.715   9.195   2.027
21665WAT     H165237   7.749   9.172   2.118
21665WAT     H265238   7.739   9.290   2.005
21666WAT      O65239   8.460   1.170   9.724
21666WAT     H165240   8.367   1.165   9.760
21666WAT     H265241   8.523   1.129   9.790
21667WAT      O65242   9.427   5.860   0.016
21667WAT     H165243   9.374   5.790  -0.032
21667WAT     H265244   9.512   5.820   0.050
21668WAT      O65245   8.439   4.945   6.769
21668WAT     H165246   8.453   4.884   6.691
21668WAT     H265247   8.496   4.914   6.845
21669WAT      O65248   2.377   5.790   6.067
21669WAT     H165249   2.359   5.720   5.998
21669WAT     H265250   2.425   5.750   6.144
21670WAT      O65251   4.720   0.935   0.429
21670WAT     H165252   4.802   0.992   0.431
21670WAT     H265253   4.725   0.867   0.502
21671WAT      O65254   6.929   8.782   3.675
21671WAT     H165255   6.955   8.854   3.610
21671WAT     H265256   6.844   8.740   3.646
21672WAT      O65257   8.908   0.235   2.547
21672WAT     H165258   8.842   0.310   2.544
21672WAT     H265259   8.927   0.211   2.642
21673WAT      O65260   2.266   7.167   2.296
21673WAT     H165261   2.274   7.190   2.393
21673WAT     H265262   2.348   7.198   2.248
21674WAT      O65263   4.307   2.898   0.774
21674WAT     H165264   4.379   2.945   0.723
21674WAT     H265265   4.340   2.807   0.802
21675WAT      O65266   9.490   5.846   7.334
21675WAT     H165267   9.456   5.763   7.290
21675WAT     H265268   9.556   5.891   7.274
21676WAT      O65269   7.974   6.055   8.313
21676WAT     H165270   8.068   6.026   8.335
21676WAT     H265271   7.935   5.992   8.246
21677WAT      O65272   7.118   4.025   0.929
21677WAT     H165273   7.214   4.052   0.937
21677WAT     H265274   7.112   3.926   0.916
21678WAT      O65275   2.170   2.990   7.194
21678WAT     H165276   2.107   2.913   7.176
21678WAT     H265277   2.264   2.958   7.187
21679WAT      O65278   6.714   6.392   7.890
21679WAT     H165279   6.734   6.296   7.869
21679WAT     H265280   6.787   6.450   7.854
21680WAT      O65281   1.687   5.986   6.486
21680WAT     H165282   1.729   5.913   6.539
21680WAT     H265283   1.711   6.074   6.526
21681WAT      O65284   2.719   3.506   5.090
21681WAT     H165285   2.650   3.566   5.050
21681WAT     H265286   2.715   3.416   5.046
21682WAT      O65287   7.259   7.324   5.639
21682WAT     H165288   7.355   7.302   5.622
21682WAT     H265289   7.249   7.423   5.648
21683WAT      O65290   7.061   8.406   4.784
21683WAT     H165291   7.004   8.365   4.714
21683WAT     H265292   7.037   8.503   4.795
21684WAT      O65293   2.779   3.623   2.664
21684WAT     H165294   2.798   3.643   2.568
21684WAT     H265295   2.776   3.523   2.677
21685WAT      O65296   4.852   6.619   5.687
21685WAT     H165297   4.761   6.586   5.663
21685WAT     H265298   4.856   6.639   5.785
21686WAT      O65299   4.976   6.780   3.696
21686WAT     H165300   4.899   6.762   3.634
21686WAT     H265301   5.023   6.863   3.667
21687WAT      O65302   5.089   9.047   8.765
21687WAT     H165303   5.119   9.011   8.853
21687WAT     H265304   5.137   9.133   8.746
21688WAT      O65305   2.580   8.261   9.426
21688WAT     H165306   2.529   8.178   9.446
21688WAT     H265307   2.677   8.239   9.414
21689WAT      O65308   3.997   1.224   6.636
21689WAT     H165309   3.997   1.156   6.562
21689WAT     H265310   3.908   1.224   6.681
21690WAT      O65311   9.415   8.061   6.034
21690WAT     H165312   9.510   8.037   6.055
21690WAT     H265313   9.387   8.016   5.949
21691WAT      O65314   6.297   1.960   3.361
21691WAT     H165315   6.289   1.875   3.309
21691WAT     H265316   6.394   1.976   3.382
21692WAT      O65317   0.173   8.317   7.521
21692WAT     H165318   0.267   8.335   7.493
21692WAT     H265319   0.161   8.346   7.616
21693WAT      O65320   6.377   2.112   6.025
21693WAT     H165321   6.414   2.125   5.933
21693WAT     H265322   6.295   2.168   6.037
21694WAT      O65323   4.729   3.032   8.848
21694WAT     H165324   4.738   3.058   8.751
21694WAT     H265325   4.811   3.062   8.897
21695WAT      O65326   3.152   8.964   4.048
21695WAT     H165327   3.071   8.913   4.017
21695WAT     H265328   3.147   9.058   4.014
21696WAT      O65329   6.105   3.124   2.245
21696WAT     H165330   6.018   3.081   2.221
21696WAT     H265331   6.106   3.143   2.344
21697WAT      O65332   7.494   1.000   0.054
21697WAT     H165333   7.521   0.908   0.082
21697WAT     H265334   7.395   1.008   0.056
21698WAT      O65335   9.233   8.937   2.417
21698WAT     H165336   9.240   8.852   2.365
21698WAT     H265337   9.210   9.012   2.354
21699WAT      O65338   1.695   9.131   1.092
21699WAT     H165339   1.787   9.158   1.118
21699WAT     H265340   1.663   9.188   1.016
21700WAT      O65341   2.050   5.581   0.589
21700WAT     H165342   1.977   5.648   0.599
21700WAT     H265343   2.134   5.626   0.559
21701WAT      O65344   3.404   9.312   8.501
21701WAT     H165345   3.418   9.288   8.597
21701WAT     H265346   3.493   9.327   8.458
21702WAT      O65347   3.816   7.897   2.559
21702WAT     H165348   3.803   7.902   2.658
21702WAT     H265349   3.830   7.802   2.532
21703WAT      O65350   1.877   9.701   2.452
21703WAT     H165351   1.798   9.761   2.441
21703WAT     H265352   1.914   9.710   2.545
21704WAT      O65353   3.500   9.051   4.451
21704WAT     H165354   3.473   9.076   4.545
21704WAT     H265355   3.430   8.990   4.413
21705WAT      O65356   8.160   5.170   8.509
21705WAT     H165357   8.236   5.106   8.520
21705WAT     H265358   8.172   5.224   8.426
21706WAT      O65359   9.050   3.812   8.201
21706WAT     H165360   9.095   3.800   8.113
21706WAT     H265361   9.082   3.741   8.265
21707WAT      O65362   5.575   0.336   6.322
21707WAT     H165363   5.528   0.292   6.399
21707WAT     H265364   5.655   0.385   6.355
21708WAT      O65365   7.345   8.706   7.730
21708WAT     H165366   7.349   8.800   7.765
21708WAT     H265367   7.252   8.686   7.698
21709WAT      O65368   0.960   3.120   0.056
21709WAT     H165369   1.024   3.070  -0.003
21709WAT     H265370   0.869   3.117   0.015
21710WAT      O65371   1.088   7.418   0.988
21710WAT     H165372   1.182   7.449   0.999
21710WAT     H265373   1.060   7.428   0.893
21711WAT      O65374   3.850   9.191   8.399
21711WAT     H165375   3.910   9.113   8.383
21711WAT     H265376   3.898   9.276   8.380
21712WAT      O65377   9.128   4.989   1.269
21712WAT     H165378   9.211   4.935   1.282
21712WAT     H265379   9.077   4.954   1.191
21713WAT      O65380   5.653   8.585   9.649
21713WAT     H165381   5.605   8.654   9.705
21713WAT     H265382   5.667   8.621   9.557
21714WAT      O65383   7.728   9.092   4.104
21714WAT     H165384   7.740   9.100   4.005
21714WAT     H265385   7.787   9.019   4.139
21715WAT      O65386   2.129   7.871   9.086
21715WAT     H165387   2.155   7.782   9.124
21715WAT     H265388   2.211   7.926   9.071
21716WAT      O65389   3.075   4.703   1.340
21716WAT     H165390   3.093   4.640   1.264
21716WAT     H265391   2.977   4.716   1.349
21717WAT      O65392   7.675   4.034   5.205
21717WAT     H165393   7.693   4.002   5.298
21717WAT     H265394   7.611   4.110   5.208
21718WAT      O65395   1.800   7.471   1.227
21718WAT     H165396   1.831   7.378   1.207
21718WAT     H265397   1.880   7.529   1.245
21719WAT      O65398   7.709   7.165   6.507
21719WAT     H165399   7.710   7.065   6.495
21719WAT     H265400   7.767   7.190   6.584
21720WAT      O65401   1.733   2.286   2.955
21720WAT     H165402   1.641   2.326   2.950
21720WAT     H265403   1.785   2.311   2.873
21721WAT      O65404   8.184   0.592   0.911
21721WAT     H165405   8.268   0.543   0.888
21721WAT     H265406   8.187   0.620   1.007
21722WAT      O65407   8.999   2.805   6.319
21722WAT     H165408   9.051   2.772   6.398
21722WAT     H265409   8.971   2.727   6.264
21723WAT      O65410   4.074   3.700   4.407
21723WAT     H165411   4.098   3.676   4.313
21723WAT     H265412   4.011   3.778   4.407
21724WAT      O65413   4.495   5.225   8.617
21724WAT     H165414   4.453   5.142   8.656
21724WAT     H265415   4.435   5.303   8.632
21725WAT      O65416   1.578   3.982   3.511
21725WAT     H165417   1.664   3.998   3.558
21725WAT     H265418   1.557   3.884   3.510
21726WAT      O65419   1.303   3.980   7.083
21726WAT     H165420   1.214   4.023   7.072
21726WAT     H265421   1.295   3.900   7.143
21727WAT      O65422   5.832   9.181   1.235
21727WAT     H165423   5.745   9.154   1.194
21727WAT     H265424   5.817   9.259   1.296
21728WAT      O65425   5.832   0.093   8.815
21728WAT     H165426   5.736   0.067   8.812
21728WAT     H265427   5.874   0.074   8.726
21729WAT      O65428   0.181   8.078   7.781
21729WAT     H165429   0.085   8.104   7.774
21729WAT     H265430   0.189   7.986   7.818
21730WAT      O65431   4.213   4.552   3.356
21730WAT     H165432   4.266   4.478   3.398
21730WAT     H265433   4.268   4.595   3.284
21731WAT      O65434   4.361   7.915   7.029
21731WAT     H165435   4.316   7.826   7.027
21731WAT     H265436   4.377   7.947   6.935
21732WAT      O65437   1.320   2.284   0.467
21732WAT     H165438   1.389   2.212   0.476
21732WAT     H265439   1.229   2.243   0.469
21733WAT      O65440   1.200   6.640   5.089
21733WAT     H165441   1.163   6.710   5.028
21733WAT     H265442   1.286   6.605   5.050
21734WAT      O65443   9.166   6.857   1.406
21734WAT     H165444   9.126   6.783   1.460
21734WAT     H265445   9.266   6.849   1.407
21735WAT      O65446   1.447   8.910   5.016
21735WAT     H165447   1.389   8.988   4.992
21735WAT     H265448   1.543   8.933   4.997
21736WAT      O65449   2.266   1.804   5.244
21736WAT     H165450   2.322   1.781   5.165
21736WAT     H265451   2.320   1.794   5.327
21737WAT      O65452   1.029   1.168   7.132
21737WAT     H165453   0.942   1.210   7.155
21737WAT     H265454   1.014   1.096   7.063
21738WAT      O65455   9.846   0.620   4.704
21738WAT     H165456   9.887   0.654   4.789
21738WAT     H265457   9.834   0.521   4.711
21739WAT      O65458   4.272   9.601   8.812
21739WAT     H165459   4.185   9.611   8.861
21739WAT     H265460   4.262   9.533   8.740
21740WAT      O65461   6.125   6.353   4.235
21740WAT     H165462   6.090   6.340   4.142
21740WAT     H265463   6.218   6.391   4.230
21741WAT      O65464   5.047   5.184   6.718
21741WAT     H165465   4.986   5.179   6.639
21741WAT     H265466   5.112   5.109   6.714
21742WAT      O65467   6.039   6.485   5.239
21742WAT     H165468   5.960   6.492   5.300
21742WAT     H265469   6.008   6.483   5.144
21743WAT      O65470   9.393   6.287   4.749
21743WAT     H165471   9.384   6.214   4.816
21743WAT     H265472   9.314   6.287   4.688
21744WAT      O65473   1.402   2.884   5.603
21744WAT     H165474   1.309   2.897   5.636
21744WAT     H265475   1.443   2.805   5.648
21745WAT      O65476   3.150   5.440   5.602
21745WAT     H165477   3.095   5.374   5.653
21745WAT     H265478   3.210   5.489   5.665
21746WAT      O65479   3.049   0.552   2.897
21746WAT     H165480   3.093   0.557   2.807
21746WAT     H265481   3.118   0.529   2.966
21747WAT      O65482   7.698   3.097   0.026
21747WAT     H165483   7.704   3.141   0.116
21747WAT     H265484   7.616   3.129  -0.022
21748WAT      O65485   4.529   2.178   1.269
21748WAT     H165486   4.500   2.202   1.177
21748WAT     H265487   4.476   2.231   1.336
21749WAT      O65488   3.168   1.286   3.673
21749WAT     H165489   3.101   1.354   3.645
21749WAT     H265490   3.126   1.221   3.736
21750WAT      O65491   8.439   6.218   8.038
21750WAT     H165492   8.474   6.219   8.132
21750WAT     H265493   8.508   6.182   7.977
21751WAT      O65494   4.179   0.782   2.147
21751WAT     H165495   4.158   0.785   2.245
21751WAT     H265496   4.273   0.813   2.133
21752WAT      O65497   2.056   5.021   0.080
21752WAT     H165498   1.976   4.964   0.059
21752WAT     H265499   2.074   5.017   0.179
21753WAT      O65500   8.073   3.399   2.353
21753WAT     H165501   8.130   3.471   2.392
21753WAT     H265502   7.976   3.423   2.364
21754WAT      O65503   1.876   3.157   6.358
21754WAT     H165504   1.975   3.148   6.346
21754WAT     H265505   1.856   3.183   6.452
21755WAT      O65506   3.696   1.612   8.596
21755WAT     H165507   3.784   1.646   8.562
21755WAT     H265508   3.685   1.638   8.692
21756WAT      O65509   4.699   5.400   2.154
21756WAT     H165510   4.690   5.370   2.249
21756WAT     H265511   4.615   5.380   2.104
21757WAT      O65512   0.507   7.506   5.365
21757WAT     H165513   0.557   7.422   5.385
21757WAT     H265514   0.464   7.499   5.275
21758WAT      O65515   2.631   8.972   0.971
21758WAT     H165516   2.534   8.949   0.980
21758WAT     H265517   2.651   9.053   1.026
21759WAT      O65518   8.517   4.874   0.915
21759WAT     H165519   8.465   4.833   0.990
21759WAT     H265520   8.591   4.812   0.888
21760WAT      O65521   1.237   3.601   6.573
21760WAT     H165522   1.187   3.539   6.512
21760WAT     H265523   1.208   3.695   6.556
21761WAT      O65524   6.726   1.528   0.636
21761WAT     H165525   6.757   1.579   0.556
21761WAT     H265526   6.632   1.497   0.620
21762WAT      O65527   3.072   3.270   2.104
21762WAT     H165528   3.033   3.304   2.190
21762WAT     H265529   3.154   3.323   2.082
21763WAT      O65530   2.169   5.125   1.140
21763WAT     H165531   2.213   5.092   1.223
21763WAT     H265532   2.070   5.131   1.156
21764WAT      O65533   2.848   6.645   9.208
21764WAT     H165534   2.839   6.740   9.238
21764WAT     H265535   2.800   6.632   9.121
21765WAT      O65536   7.060   2.860   1.664
21765WAT     H165537   7.059   2.851   1.764
21765WAT     H265538   6.983   2.809   1.626
21766WAT      O65539   2.109   0.904   7.278
21766WAT     H165540   2.147   0.962   7.350
21766WAT     H265541   2.183   0.866   7.223
21767WAT      O65542   6.268   1.073   5.563
21767WAT     H165543   6.175   1.101   5.538
21767WAT     H265544   6.288   0.984   5.520
21768WAT      O65545   6.524   3.341   3.250
21768WAT     H165546   6.450   3.316   3.312
21768WAT     H265547   6.532   3.441   3.245
21769WAT      O65548   9.176   4.026   5.266
21769WAT     H165549   9.271   4.051   5.245
21769WAT     H265550   9.125   4.107   5.293
21770WAT      O65551   2.359   4.153   0.459
21770WAT     H165552   2.264   4.171   0.435
21770WAT     H265553   2.418   4.175   0.380
21771WAT      O65554   5.275   7.880   4.932
21771WAT     H165555   5.311   7.861   4.841
21771WAT     H265556   5.304   7.808   4.995
21772WAT      O65557   8.533   1.520   1.311
21772WAT     H165558   8.553   1.541   1.215
21772WAT     H265559   8.561   1.426   1.331
21773WAT      O65560   6.564   5.020   2.495
21773WAT     H165561   6.616   4.966   2.561
21773WAT     H265562   6.587   4.991   2.402
21774WAT      O65563   3.651   4.009   0.934
21774WAT     H165564   3.568   3.954   0.921
21774WAT     H265565   3.670   4.060   0.850
21775WAT      O65566   4.043   1.521   8.901
21775WAT     H165567   3.953   1.563   8.895
21775WAT     H265568   4.102   1.558   8.829
21776WAT      O65569   9.310   0.152   7.819
21776WAT     H165570   9.325   0.054   7.803
21776WAT     H265571   9.392   0.203   7.795
21777WAT      O65572   7.089   8.856   6.121
21777WAT     H165573   7.163   8.924   6.121
21777WAT     H265574   7.062   8.836   6.027
21778WAT      O65575   9.108   1.231   8.349
21778WAT     H165576   9.047   1.185   8.413
21778WAT     H265577   9.142   1.165   8.282
21779WAT      O65578   0.350   2.060   4.058
21779WAT     H165579   0.447   2.071   4.038
21779WAT     H265580   0.324   1.964   4.046
21780WAT      O65581   6.545   1.438   2.141
21780WAT     H165582   6.596   1.372   2.086
21780WAT     H265583   6.539   1.525   2.092
21781WAT      O65584   4.382   4.265   6.889
21781WAT     H165585   4.338   4.179   6.865
21781WAT     H265586   4.360   4.334   6.820
21782WAT      O65587   7.989   5.925   6.923
21782WAT     H165588   8.056   5.931   6.997
21782WAT     H265589   7.947   5.834   6.922
21783WAT      O65590   8.128   2.832   5.836
21783WAT     H165591   8.059   2.854   5.768
21783WAT     H265592   8.194   2.907   5.843
21784WAT      O65593   0.920   7.985   7.216
21784WAT     H165594   0.838   8.015   7.167
21784WAT     H265595   0.964   7.911   7.165
21785WAT      O65596   6.029   5.835   8.089
21785WAT     H165597   5.982   5.923   8.083
21785WAT     H265598   6.074   5.815   8.002
21786WAT      O65599   0.267   5.962   9.349
21786WAT     H165600   0.169   5.965   9.370
21786WAT     H265601   0.317   6.009   9.422
21787WAT      O65602   7.575   0.641   1.754
21787WAT     H165603   7.503   0.571   1.755
21787WAT     H265604   7.554   0.710   1.684
21788WAT      O65605   9.602   6.328   0.207
21788WAT     H165606   9.608   6.401   0.275
21788WAT     H265607   9.634   6.242   0.247
21789WAT      O65608   7.952   8.669   4.011
21789WAT     H165609   7.935   8.741   4.078
21789WAT     H265610   8.050   8.666   3.990
21790WAT      O65611   1.051   4.496   1.370
21790WAT     H165612   1.013   4.411   1.408
21790WAT     H265613   1.027   4.503   1.274
21791WAT      O65614   1.643   4.730   9.634
21791WAT     H165615   1.622   4.643   9.680
21791WAT     H265616   1.645   4.804   9.701
21792WAT      O65617   1.193   3.024   7.110
21792WAT     H165618   1.258   3.037   7.035
21792WAT     H265619   1.145   3.109   7.128
21793WAT      O65620   1.809   0.887   5.949
21793WAT     H165621   1.867   0.841   5.881
21793WAT     H265622   1.864   0.907   6.031
21794WAT      O65623   1.574   4.469   9.802
21794WAT     H165624   1.485   4.447   9.843
21794WAT     H265625   1.620   4.384   9.776
21795WAT      O65626   7.117   2.757   5.797
21795WAT     H165627   7.079   2.824   5.733
21795WAT     H265628   7.198   2.796   5.841
21796WAT      O65629   2.587   0.422   5.891
21796WAT     H165630   2.655   0.373   5.944
21796WAT     H265631   2.614   0.518   5.882
21797WAT      O65632   7.487   3.665   5.907
21797WAT     H165633   7.562   3.601   5.924
21797WAT     H265634   7.427   3.627   5.836
21798WAT      O65635   9.735   6.956   1.669
21798WAT     H165636   9.660   7.003   1.623
21798WAT     H265637   9.798   7.023   1.708
21799WAT      O65638   6.495   7.616   4.961
21799WAT     H165639   6.453   7.538   4.916
21799WAT     H265640   6.434   7.695   4.956
21800WAT      O65641   3.803   6.211   8.506
21800WAT     H165642   3.749   6.180   8.428
21800WAT     H265643   3.747   6.207   8.589
21801WAT      O65644   0.417   5.381   8.644
21801WAT     H165645   0.351   5.399   8.571
21801WAT     H265646   0.375   5.405   8.732
21802WAT      O65647   7.850   1.978   6.160
21802WAT     H165648   7.926   1.987   6.225
21802WAT     H265649   7.792   1.900   6.187
21803WAT      O65650   7.843   4.571   7.004
21803WAT     H165651   7.816   4.513   7.081
21803WAT     H265652   7.837   4.520   6.919
21804WAT      O65653   8.706   5.813   9.405
21804WAT     H165654   8.625   5.799   9.462
21804WAT     H265655   8.758   5.891   9.439
21805WAT      O65656   0.766   4.722   5.122
21805WAT     H165657   0.668   4.708   5.107
21805WAT     H265658   0.812   4.634   5.121
21806WAT      O65659   3.460   7.597   9.540
21806WAT     H165660   3.396   7.521   9.548
21806WAT     H265661   3.446   7.660   9.616
21807WAT      O65662   8.572   3.701   6.217
21807WAT     H165663   8.496   3.703   6.282
21807WAT     H265664   8.657   3.679   6.266
21808WAT      O65665   7.085   6.924   5.231
21808WAT     H165666   7.061   6.835   5.192
21808WAT     H265667   7.146   6.911   5.309
21809WAT      O65668   2.833   6.507   1.906
21809WAT     H165669   2.817   6.597   1.866
21809WAT     H265670   2.772   6.441   1.863
21810WAT      O65671   3.348   9.295   5.064
21810WAT     H165672   3.381   9.381   5.101
21810WAT     H265673   3.270   9.312   5.003
21811WAT      O65674   4.386   2.205   7.668
21811WAT     H165675   4.360   2.212   7.764
21811WAT     H265676   4.355   2.287   7.620
21812WAT      O65677   4.981   1.938   7.268
21812WAT     H165678   4.993   1.964   7.173
21812WAT     H265679   4.902   1.878   7.277
21813WAT      O65680   6.734   6.297   3.054
21813WAT     H165681   6.700   6.315   2.961
21813WAT     H265682   6.832   6.315   3.058
21814WAT      O65683   1.597   0.564   9.506
21814WAT     H165684   1.536   0.487   9.485
21814WAT     H265685   1.616   0.615   9.423
21815WAT      O65686   6.231   0.639   1.218
21815WAT     H165687   6.316   0.691   1.229
21815WAT     H265688   6.252   0.541   1.219
21816WAT      O65689   9.620   9.630   1.437
21816WAT     H165690   9.646   9.725   1.421
21816WAT     H265691   9.697   9.580   1.475
21817WAT      O65692   9.127   6.223   3.823
21817WAT     H165693   9.059   6.294   3.803
21817WAT     H265694   9.141   6.166   3.742
21818WAT      O65695   1.593   4.842   4.875
21818WAT     H165696   1.599   4.751   4.833
21818WAT     H265697   1.516   4.892   4.835
21819WAT      O65698   4.344   6.871   8.203
21819WAT     H165699   4.356   6.846   8.107
21819WAT     H265700   4.246   6.868   8.226
21820WAT      O65701   4.895   9.127   1.287
21820WAT     H165702   4.810   9.161   1.326
21820WAT     H265703   4.918   9.038   1.328
21821WAT      O65704   6.911   7.024   7.434
21821WAT     H165705   6.902   7.022   7.534
21821WAT     H265706   6.947   7.112   7.406
21822WAT      O65707   8.683   5.935   3.552
21822WAT     H165708   8.721   5.918   3.461
21822WAT     H265709   8.590   5.898   3.557
21823WAT      O65710   5.697   7.961   2.631
21823WAT     H165711   5.759   7.929   2.703
21823WAT     H265712   5.667   7.884   2.575
21824WAT      O65713   0.839   4.126   5.577
21824WAT     H165714   0.920   4.184   5.584
21824WAT     H265715   0.759   4.175   5.613
21825WAT      O65716   0.161   9.113   3.464
21825WAT     H165717   0.102   9.149   3.392
21825WAT     H265718   0.182   9.017   3.445
21826WAT      O65719   1.039   2.317   9.072
21826WAT     H165720   1.039   2.371   8.988
21826WAT     H265721   1.018   2.222   9.051
21827WAT      O65722   8.474   8.071   2.406
21827WAT     H165723   8.407   8.035   2.341
21827WAT     H265724   8.546   8.003   2.420
21828WAT      O65725   9.842   8.563   0.114
21828WAT     H165726   9.838   8.483   0.054
21828WAT     H265727   9.754   8.611   0.111
21829WAT      O65728   9.798   8.170   9.536
21829WAT     H165729   9.780   8.085   9.586
21829WAT     H265730   9.886   8.207   9.565
21830WAT      O65731   9.833   7.879   0.117
21830WAT     H165732   9.917   7.834   0.146
21830WAT     H265733   9.762   7.865   0.186
21831WAT      O65734   2.436   0.227   3.621
21831WAT     H165735   2.346   0.191   3.645
21831WAT     H265736   2.506   0.174   3.667
21832WAT      O65737   5.348   9.519   5.475
21832WAT     H165738   5.258   9.554   5.447
21832WAT     H265739   5.359   9.532   5.574
21833WAT      O65740   9.732   1.259   1.647
21833WAT     H165741   9.787   1.336   1.679
21833WAT     H265742   9.772   1.221   1.564
21834WAT      O65743   1.536   5.828   8.514
21834WAT     H165744   1.506   5.917   8.551
21834WAT     H265745   1.501   5.817   8.421
21835WAT      O65746   3.411   3.380   7.543
21835WAT     H165747   3.502   3.343   7.522
21835WAT     H265748   3.356   3.311   7.590
21836WAT      O65749   9.639   8.011   8.576
21836WAT     H165750   9.655   7.940   8.507
21836WAT     H265751   9.547   8.002   8.614
21837WAT      O65752   8.807   2.841   6.588
21837WAT     H165753   8.804   2.881   6.496
21837WAT     H265754   8.902   2.824   6.614
21838WAT      O65755   0.100   2.253   6.779
21838WAT     H165756   0.015   2.255   6.725
21838WAT     H265757   0.077   2.253   6.876
21839WAT      O65758   6.306   6.227   6.724
21839WAT     H165759   6.218   6.217   6.772
21839WAT     H265760   6.326   6.143   6.675
21840WAT      O65761   4.658   0.142   7.215
21840WAT     H165762   4.636   0.110   7.123
21840WAT     H265763   4.638   0.070   7.281
21841WAT      O65764   3.976   9.226   1.824
21841WAT     H165765   3.988   9.307   1.881
21841WAT     H265766   3.884   9.190   1.836
21842WAT      O65767   6.648   7.582   9.685
21842WAT     H165768   6.654   7.674   9.724
21842WAT     H265769   6.583   7.527   9.738
21843WAT      O65770   3.279   1.530   8.175
21843WAT     H165771   3.329   1.608   8.213
21843WAT     H265772   3.316   1.508   8.085
21844WAT      O65773   6.770   4.332   4.420
21844WAT     H165774   6.819   4.263   4.367
21844WAT     H265775   6.684   4.355   4.375
21845WAT      O65776   5.225   7.323   8.684
21845WAT     H165777   5.152   7.339   8.751
21845WAT     H265778   5.314   7.341   8.727
21846WAT      O65779   0.443   4.873   8.283
21846WAT     H165780   0.423   4.790   8.335
21846WAT     H265781   0.535   4.904   8.305
21847WAT      O65782   9.087   7.582   2.050
21847WAT     H165783   9.124   7.552   2.137
21847WAT     H265784   9.091   7.682   2.045
21848WAT      O65785   6.808   2.147   6.185
21848WAT     H165786   6.838   2.054   6.208
21848WAT     H265787   6.878   2.213   6.212
21849WAT      O65788   7.059   5.951   8.175
21849WAT     H165789   7.125   5.939   8.249
21849WAT     H265790   6.969   5.972   8.214
21850WAT      O65791   1.910   8.182   8.889
21850WAT     H165792   1.927   8.149   8.796
21850WAT     H265793   1.871   8.109   8.944
21851WAT      O65794   0.013   2.052   2.086
21851WAT     H165795   0.050   2.058   1.993
21851WAT     H265796  -0.047   1.972   2.092
21852WAT      O65797   2.290   1.587   1.873
21852WAT     H165798   2.377   1.558   1.834
21852WAT     H265799   2.308   1.651   1.949
21853WAT      O65800   2.629   5.455   1.442
21853WAT     H165801   2.582   5.378   1.399
21853WAT     H265802   2.626   5.534   1.382
21854WAT      O65803   0.955   3.126   8.805
21854WAT     H165804   1.000   3.043   8.838
21854WAT     H265805   0.957   3.128   8.705
21855WAT      O65806   4.413   3.668   7.530
21855WAT     H165807   4.493   3.642   7.476
21855WAT     H265808   4.370   3.748   7.489
21856WAT      O65809   1.998   6.279   2.741
21856WAT     H165810   2.073   6.341   2.764
21856WAT     H265811   1.995   6.205   2.808
21857WAT      O65812   0.553   8.351   5.150
21857WAT     H165813   0.560   8.315   5.243
21857WAT     H265814   0.617   8.427   5.139
21858WAT      O65815   2.710   6.047   5.751
21858WAT     H165816   2.706   5.967   5.812
21858WAT     H265817   2.794   6.044   5.697
21859WAT      O65818   4.886   9.480   3.684
21859WAT     H165819   4.822   9.542   3.639
21859WAT     H265820   4.860   9.469   3.780
21860WAT      O65821   7.594   6.964   7.344
21860WAT     H165822   7.532   6.966   7.423
21860WAT     H265823   7.687   6.981   7.375
21861WAT      O65824   5.158   8.724   6.825
21861WAT     H165825   5.192   8.770   6.907
21861WAT     H265826   5.206   8.760   6.745
21862WAT      O65827   4.494   7.330   7.491
21862WAT     H165828   4.498   7.414   7.437
21862WAT     H265829   4.527   7.253   7.437
21863WAT      O65830   5.683   9.789   7.555
21863WAT     H165831   5.729   9.817   7.471
21863WAT     H265832   5.717   9.843   7.632
21864WAT      O65833   9.723   5.420   6.138
21864WAT     H165834   9.627   5.393   6.142
21864WAT     H265835   9.767   5.401   6.226
21865WAT      O65836   1.608   9.284   4.221
21865WAT     H165837   1.561   9.203   4.188
21865WAT     H265838   1.545   9.340   4.274
21866WAT      O65839   7.453   9.772   4.559
21866WAT     H165840   7.435   9.682   4.598
21866WAT     H265841   7.388   9.789   4.485
21867WAT      O65842   1.527   6.000   2.361
21867WAT     H165843   1.511   6.092   2.396
21867WAT     H265844   1.455   5.939   2.394
21868WAT      O65845   9.462   1.188   1.362
21868WAT     H165846   9.553   1.177   1.322
21868WAT     H265847   9.394   1.150   1.299
21869WAT      O65848   1.452   9.314   3.896
21869WAT     H165849   1.477   9.231   3.947
21869WAT     H265850   1.526   9.337   3.833
21870WAT      O65851   9.491   9.741   0.986
21870WAT     H165852   9.558   9.720   1.058
21870WAT     H265853   9.538   9.780   0.907
21871WAT      O65854   2.398   4.142   6.541
21871WAT     H165855   2.496   4.124   6.549
21871WAT     H265856   2.381   4.208   6.468
21872WAT      O65857   6.109   6.224   7.878
21872WAT     H165858   6.146   6.236   7.786
21872WAT     H265859   6.012   6.201   7.873
21873WAT      O65860   1.022   2.272   0.202
21873WAT     H165861   0.978   2.241   0.118
21873WAT     H265862   1.051   2.367   0.191
21874WAT      O65863   9.066   2.503   8.214
21874WAT     H165864   8.970   2.476   8.213
21874WAT     H265865   9.073   2.603   8.219
21875WAT      O65866   5.196   8.114   0.881
21875WAT     H165867   5.200   8.214   0.889
21875WAT     H265868   5.133   8.078   0.950
21876WAT      O65869   8.475   7.598   2.627
21876WAT     H165870   8.399   7.595   2.561
21876WAT     H265871   8.475   7.688   2.672
21877WAT      O65872   8.351   9.186   8.092
21877WAT     H165873   8.289   9.261   8.114
21877WAT     H265874   8.390   9.200   8.001
21878WAT      O65875   3.558   2.482   7.174
21878WAT     H165876   3.523   2.446   7.261
21878WAT     H265877   3.553   2.410   7.104
21879WAT      O65878   4.408   6.880   3.493
21879WAT     H165879   4.482   6.818   3.465
21879WAT     H265880   4.444   6.972   3.507
21880WAT      O65881   8.966   3.869   0.320
21880WAT     H165882   8.897   3.942   0.320
21880WAT     H265883   8.990   3.846   0.226
21881WAT      O65884   6.516   6.287   3.448
21881WAT     H165885   6.471   6.244   3.527
21881WAT     H265886   6.528   6.218   3.376
21882WAT      O65887   6.982   3.166   6.722
21882WAT     H165888   6.925   3.190   6.644
21882WAT     H265889   7.076   3.195   6.705
21883WAT      O65890   5.164   7.076   9.637
21883WAT     H165891   5.221   7.111   9.562
21883WAT     H265892   5.209   6.996   9.678
21884WAT      O65893   4.628   0.277   9.320
21884WAT     H165894   4.533   0.248   9.333
21884WAT     H265895   4.633   0.341   9.243
21885WAT      O65896   8.139   5.185   3.107
21885WAT     H165897   8.134   5.284   3.125
21885WAT     H265898   8.057   5.141   3.143
21886WAT      O65899   3.837   5.250   8.015
21886WAT     H165900   3.931   5.242   7.983
21886WAT     H265901   3.798   5.158   8.027
21887WAT      O65902   3.422   5.724   3.568
21887WAT     H165903   3.487   5.799   3.576
21887WAT     H265904   3.444   5.670   3.487
21888WAT      O65905   9.605   0.737   3.436
21888WAT     H165906   9.671   0.737   3.361
21888WAT     H265907   9.526   0.794   3.411
21889WAT      O65908   2.786   9.833   9.493
21889WAT     H165909   2.795   9.776   9.412
21889WAT     H265910   2.717   9.904   9.476
21890WAT      O65911   5.506   8.163   8.273
21890WAT     H165912   5.426   8.190   8.219
21890WAT     H265913   5.513   8.222   8.353
21891WAT      O65914   2.427   5.820   2.852
21891WAT     H165915   2.352   5.885   2.847
21891WAT     H265916   2.486   5.842   2.930
21892WAT      O65917   6.047   1.411   3.038
21892WAT     H165918   6.145   1.429   3.036
21892WAT     H265919   6.016   1.382   2.947
21893WAT      O65920   3.058   2.329   5.529
21893WAT     H165921   3.094   2.301   5.618
21893WAT     H265922   3.003   2.256   5.491
21894WAT      O65923   7.284   0.678   0.145
21894WAT     H165924   7.276   0.587   0.186
21894WAT     H265925   7.214   0.690   0.075
21895WAT      O65926   5.629   5.415   9.282
21895WAT     H165927   5.534   5.418   9.311
21895WAT     H265928   5.664   5.507   9.269
21896WAT      O65929   6.918   1.174   9.109
21896WAT     H165930   6.865   1.089   9.096
21896WAT     H265931   6.925   1.222   9.022
21897WAT      O65932   7.285   1.435   6.201
21897WAT     H165933   7.385   1.437   6.206
21897WAT     H265934   7.256   1.461   6.109
21898WAT      O65935   9.794   6.118   9.213
21898WAT     H165936   9.852   6.194   9.242
21898WAT     H265937   9.705   6.153   9.184
21899WAT      O65938   9.597   9.430   6.904
21899WAT     H165939   9.682   9.451   6.855
21899WAT     H265940   9.522   9.482   6.863
21900WAT      O65941   5.086   1.071   3.468
21900WAT     H165942   5.087   1.139   3.395
21900WAT     H265943   5.054   1.114   3.553
21901WAT      O65944   5.838   9.610   2.679
21901WAT     H165945   5.831   9.685   2.744
21901WAT     H265946   5.794   9.529   2.716
21902WAT      O65947   9.859   5.126   3.567
21902WAT     H165948   9.931   5.143   3.499
21902WAT     H265949   9.775   5.169   3.536
21903WAT      O65950   7.879   5.981   0.053
21903WAT     H165951   7.934   5.962   0.135
21903WAT     H265952   7.922   6.055   0.001
21904WAT      O65953   1.367   1.504   1.461
21904WAT     H165954   1.397   1.585   1.412
21904WAT     H265955   1.446   1.458   1.503
21905WAT      O65956   0.088   4.423   1.281
21905WAT     H165957   0.102   4.417   1.183
21905WAT     H265958   0.009   4.481   1.300
21906WAT      O65959   9.213   8.951   4.275
21906WAT     H165960   9.224   9.032   4.333
21906WAT     H265961   9.135   8.898   4.307
21907WAT      O65962   1.790   0.853   5.030
21907WAT     H165963   1.869   0.907   5.003
21907WAT     H265964   1.709   0.887   4.983
21908WAT      O65965   2.738   4.879   2.183
21908WAT     H165966   2.822   4.931   2.199
21908WAT     H265967   2.728   4.863   2.084
21909WAT      O65968   4.444   3.691   9.051
21909WAT     H165969   4.492   3.623   9.107
21909WAT     H265970   4.427   3.773   9.107
21910WAT      O65971   9.250   3.955   7.502
21910WAT     H165972   9.320   3.887   7.482
21910WAT     H265973   9.210   3.987   7.416
21911WAT      O65974   6.081   3.915   8.193
21911WAT     H165975   6.019   3.970   8.251
21911WAT     H265976   6.078   3.820   8.223
21912WAT      O65977   7.800   7.854   7.235
21912WAT     H165978   7.744   7.863   7.317
21912WAT     H265979   7.855   7.937   7.223
21913WAT      O65980   7.622   5.018   5.396
21913WAT     H165981   7.583   5.098   5.442
21913WAT     H265982   7.607   5.025   5.297
21914WAT      O65983   4.692   0.894   6.694
21914WAT     H165984   4.723   0.928   6.605
21914WAT     H265985   4.650   0.804   6.682
21915WAT      O65986   9.083   6.929   1.730
21915WAT     H165987   9.145   6.851   1.735
21915WAT     H265988   9.108   6.996   1.800
21916WAT      O65989   0.544   5.941   7.061
21916WAT     H165990   0.602   6.002   7.115
21916WAT     H265991   0.449   5.948   7.091
21917WAT      O65992   8.432   1.704   1.752
21917WAT     H165993   8.486   1.745   1.825
21917WAT     H265994   8.339   1.740   1.756
21918WAT      O65995   4.381   3.165   5.184
21918WAT     H165996   4.406   3.173   5.280
21918WAT     H265997   4.391   3.070   5.154
21919WAT      O65998   8.295   3.461   3.736
21919WAT     H165999   8.380   3.472   3.685
21919WAT     H266000   8.217   3.470   3.673
21920WAT      O66001   3.985   6.255   4.447
21920WAT     H166002   4.076   6.256   4.406
21920WAT     H266003   3.916   6.246   4.375
21921WAT      O66004   5.031   0.673   5.259
21921WAT     H166005   5.004   0.768   5.278
21921WAT     H266006   5.109   0.648   5.316
21922WAT      O66007   6.605   0.174   5.152
21922WAT     H166008   6.626   0.090   5.103
21922WAT     H266009   6.533   0.224   5.105
21923WAT      O66010   5.686   7.528   3.959
21923WAT     H166011   5.716   7.472   3.882
21923WAT     H266012   5.601   7.492   3.996
21924WAT      O66013   8.876   3.160   9.193
21924WAT     H166014   8.881   3.127   9.288
21924WAT     H266015   8.940   3.108   9.136
21925WAT      O66016   1.209   3.439   4.707
21925WAT     H166017   1.116   3.468   4.688
21925WAT     H266018   1.268   3.463   4.629
21926WAT      O66019   0.515   9.460   3.583
21926WAT     H166020   0.512   9.515   3.500
21926WAT     H266021   0.456   9.380   3.572
21927WAT      O66022   3.524   4.866   4.161
21927WAT     H166023   3.583   4.946   4.156
21927WAT     H266024   3.428   4.895   4.162
21928WAT      O66025   3.910   4.297   9.815
21928WAT     H166026   3.863   4.209   9.818
21928WAT     H266027   3.983   4.299   9.883
21929WAT      O66028   5.280   8.867   3.847
21929WAT     H166029   5.287   8.837   3.752
21929WAT     H266030   5.341   8.945   3.861
21930WAT      O66031   8.239   4.063   3.687
21930WAT     H166032   8.167   4.068   3.757
21930WAT     H266033   8.326   4.038   3.731
21931WAT      O66034   6.637   7.456   1.543
21931WAT     H166035   6.540   7.439   1.562
21931WAT     H266036   6.668   7.395   1.470
21932WAT      O66037   0.041   1.924   5.619
21932WAT     H166038   0.080   1.992   5.680
21932WAT     H266039  -0.051   1.899   5.650
21933WAT      O66040   8.969   0.531   1.478
21933WAT     H166041   9.008   0.487   1.558
21933WAT     H266042   8.888   0.481   1.447
21934WAT      O66043   0.954   9.343   4.926
21934WAT     H166044   0.989   9.279   4.858
21934WAT     H266045   0.879   9.397   4.887
21935WAT      O66046   0.144   0.733   5.682
21935WAT     H166047   0.185   0.823   5.694
21935WAT     H266048   0.050   0.744   5.649
21936WAT      O66049   2.430   4.302   9.234
21936WAT     H166050   2.489   4.241   9.180
21936WAT     H266051   2.479   4.388   9.250
21937WAT      O66052   2.237   6.960   4.289
21937WAT     H166053   2.246   7.059   4.297
21937WAT     H266054   2.143   6.937   4.266
21938WAT      O66055   2.453   7.037   5.591
21938WAT     H166056   2.545   7.004   5.571
21938WAT     H266057   2.458   7.111   5.657
21939WAT      O66058   9.073   2.743   3.408
21939WAT     H166059   9.084   2.782   3.316
21939WAT     H266060   9.035   2.812   3.469
21940WAT      O66061   7.097   1.337   0.238
21940WAT     H166062   7.095   1.365   0.142
21940WAT     H266063   7.168   1.268   0.251
21941WAT      O66064   5.329   7.872   7.431
21941WAT     H166065   5.426   7.848   7.437
21941WAT     H266066   5.297   7.903   7.521
21942WAT      O66067   2.177   2.187   5.309
21942WAT     H166068   2.153   2.112   5.247
21942WAT     H266069   2.239   2.153   5.380
21943WAT      O66070   5.576   5.847   2.759
21943WAT     H166071   5.502   5.909   2.732
21943WAT     H266072   5.631   5.824   2.678
21944WAT      O66073   4.012   8.338   0.319
21944WAT     H166074   4.110   8.318   0.318
21944WAT     H266075   3.995   8.423   0.270
21945WAT      O66076   2.986   0.985   4.248
21945WAT     H166077   2.923   0.916   4.213
21945WAT     H266078   3.054   1.008   4.177
21946WAT      O66079   1.633   5.126   2.911
21946WAT     H166080   1.585   5.104   2.826
21946WAT     H266081   1.572   5.110   2.989
21947WAT      O66082   9.084   4.354   1.359
21947WAT     H166083   9.007   4.418   1.353
21947WAT     H266084   9.122   4.339   1.268
21948WAT      O66085   1.328   6.217   8.886
21948WAT     H166086   1.362   6.251   8.974
21948WAT     H266087   1.253   6.153   8.902
21949WAT      O66088   1.153   2.803   0.121
21949WAT     H166089   1.161   2.703   0.122
21949WAT     H266090   1.198   2.840   0.202
21950WAT      O66091   4.487   7.057   7.848
21950WAT     H166092   4.546   7.123   7.801
21950WAT     H266093   4.425   7.107   7.909
21951WAT      O66094   1.694   7.285   6.176
21951WAT     H166095   1.734   7.370   6.211
21951WAT     H266096   1.706   7.212   6.242
21952WAT      O66097   9.414   2.418   5.598
21952WAT     H166098   9.451   2.506   5.568
21952WAT     H266099   9.452   2.345   5.542
21953WAT      O66100   6.712   7.416   4.516
21953WAT     H166101   6.736   7.512   4.531
21953WAT     H266102   6.674   7.378   4.601
21954WAT      O66103   8.945   6.628   4.925
21954WAT     H166104   8.962   6.618   5.023
21954WAT     H266105   8.970   6.543   4.878
21955WAT      O66106   5.035   4.654   6.665
21955WAT     H166107   4.971   4.708   6.718
21955WAT     H266108   5.000   4.561   6.655
21956WAT      O66109   4.049   0.077   0.472
21956WAT     H166110   4.070   0.174   0.484
21956WAT     H266111   3.972   0.067   0.409
21957WAT      O66112   6.327   0.449   1.468
21957WAT     H166113   6.241   0.495   1.448
21957WAT     H266114   6.318   0.395   1.551
21958WAT      O66115   7.585   9.811   9.815
21958WAT     H166116   7.622   9.813   9.722
21958WAT     H266117   7.624   9.733   9.864
21959WAT      O66118   9.572   7.138   0.350
21959WAT     H166119   9.659   7.172   0.316
21959WAT     H266120   9.529   7.208   0.407
21960WAT      O66121   3.290   9.783   9.012
21960WAT     H166122   3.292   9.828   9.101
21960WAT     H266123   3.352   9.830   8.949
21961WAT      O66124   6.733   5.109   8.913
21961WAT     H166125   6.655   5.144   8.964
21961WAT     H266126   6.703   5.078   8.823
21962WAT      O66127   2.694   9.543   6.775
21962WAT     H166128   2.606   9.575   6.809
21962WAT     H266129   2.753   9.518   6.852
21963WAT      O66130   9.087   8.711   8.737
21963WAT     H166131   9.068   8.622   8.778
21963WAT     H266132   9.055   8.783   8.799
21964WAT      O66133   3.224   2.194   9.068
21964WAT     H166134   3.320   2.169   9.056
21964WAT     H266135   3.188   2.229   8.981
21965WAT      O66136   1.254   0.803   3.003
21965WAT     H166137   1.216   0.890   3.033
21965WAT     H266138   1.268   0.744   3.083
21966WAT      O66139   6.894   4.154   6.741
21966WAT     H166140   6.847   4.242   6.749
21966WAT     H266141   6.836   4.081   6.777
21967WAT      O66142   0.252   1.213   8.880
21967WAT     H166143   0.188   1.285   8.854
21967WAT     H266144   0.203   1.127   8.892
21968WAT      O66145   7.904   9.506   3.351
21968WAT     H166146   7.972   9.444   3.314
21968WAT     H266147   7.822   9.455   3.376
21969WAT      O66148   4.131   7.684   8.788
21969WAT     H166149   4.184   7.600   8.779
21969WAT     H266150   4.039   7.669   8.752
21970WAT      O66151   3.978   1.606   4.069
21970WAT     H166152   3.949   1.563   3.984
21970WAT     H266153   4.009   1.535   4.133
21971WAT      O66154   3.495   6.610   2.915
21971WAT     H166155   3.454   6.526   2.950
21971WAT     H266156   3.466   6.624   2.820
21972WAT      O66157   6.957   4.080   9.181
21972WAT     H166158   6.875   4.119   9.224
21972WAT     H266159   7.017   4.155   9.151
21973WAT      O66160   8.185   1.627   2.346
21973WAT     H166161   8.150   1.610   2.254
21973WAT     H266162   8.248   1.554   2.372
21974WAT      O66163   6.538   3.942   5.899
21974WAT     H166164   6.597   3.862   5.884
21974WAT     H266165   6.456   3.913   5.948
21975WAT      O66166   3.789   1.424   4.600
21975WAT     H166167   3.787   1.416   4.500
21975WAT     H266168   3.853   1.496   4.626
21976WAT      O66169   7.570   8.730   0.709
21976WAT     H166170   7.665   8.715   0.734
21976WAT     H266171   7.559   8.720   0.610
21977WAT      O66172   9.220   4.934   8.575
21977WAT     H166173   9.187   5.017   8.619
21977WAT     H266174   9.313   4.949   8.541
21978WAT      O66175   6.700   6.595   0.190
21978WAT     H166176   6.657   6.684   0.202
21978WAT     H266177   6.634   6.523   0.214
21979WAT      O66178   9.832   9.527   4.615
21979WAT     H166179   9.757   9.473   4.653
21979WAT     H266180   9.818   9.623   4.637
21980WAT      O66181   6.444   0.371   8.229
21980WAT     H166182   6.529   0.374   8.178
21980WAT     H266183   6.403   0.462   8.232
21981WAT      O66184   3.911   1.221   8.797
21981WAT     H166185   3.972   1.228   8.875
21981WAT     H266186   3.931   1.295   8.732
21982WAT      O66187   1.565   1.348   9.612
21982WAT     H166188   1.632   1.285   9.651
21982WAT     H266189   1.611   1.432   9.584
21983WAT      O66190   2.134   9.184   2.838
21983WAT     H166191   2.201   9.187   2.913
21983WAT     H266192   2.165   9.120   2.768
21984WAT      O66193   3.757   3.598   8.212
21984WAT     H166194   3.837   3.546   8.179
21984WAT     H266195   3.675   3.564   8.167
21985WAT      O66196   1.153   0.380   2.955
21985WAT     H166197   1.148   0.307   2.887
21985WAT     H266198   1.166   0.468   2.909
21986WAT      O66199   7.520   5.553   2.921
21986WAT     H166200   7.510   5.652   2.905
21986WAT     H266201   7.469   5.528   3.003
21987WAT      O66202   6.406   4.259   1.632
21987WAT     H166203   6.327   4.268   1.572
21987WAT     H266204   6.388   4.187   1.699
21988WAT      O66205   7.762   3.632   5.415
21988WAT     H166206   7.845   3.577   5.407
21988WAT     H266207   7.729   3.630   5.509
21989WAT      O66208   7.637   6.887   1.736
21989WAT     H166209   7.692   6.908   1.817
21989WAT     H266210   7.603   6.972   1.696
21990WAT      O66211   0.235   3.001   3.367
21990WAT     H166212   0.239   3.101   3.359
21990WAT     H266213   0.189   2.963   3.287
21991WAT      O66214   6.146   7.865   3.732
21991WAT     H166215   6.184   7.949   3.771
21991WAT     H266216   6.209   7.789   3.750
21992WAT      O66217   6.972   7.556   2.387
21992WAT     H166218   6.980   7.496   2.308
21992WAT     H266219   7.049   7.539   2.449
21993WAT      O66220   7.308   3.246   5.873
21993WAT     H166221   7.282   3.246   5.776
21993WAT     H266222   7.266   3.167   5.918
21994WAT      O66223   0.997   2.217   6.927
21994WAT     H166224   0.974   2.314   6.934
21994WAT     H266225   0.914   2.164   6.912
21995WAT      O66226   1.514   6.560   4.497
21995WAT     H166227   1.464   6.511   4.426
21995WAT     H266228   1.453   6.627   4.540
21996WAT      O66229   2.731   8.569   6.895
21996WAT     H166230   2.818   8.608   6.924
21996WAT     H266231   2.738   8.535   6.801
21997WAT      O66232   6.136   2.726   9.017
21997WAT     H166233   6.060   2.768   9.068
21997WAT     H266234   6.137   2.761   8.924
21998WAT      O66235   6.686   4.982   8.327
21998WAT     H166236   6.713   5.067   8.372
21998WAT     H266237   6.768   4.928   8.306
21999WAT      O66238   2.062   1.994   5.142
21999WAT     H166239   2.108   1.916   5.183
21999WAT     H266240   2.111   2.021   5.059
22000WAT      O66241   2.413   8.619   4.235
22000WAT     H166242   2.369   8.578   4.315
22000WAT     H266243   2.498   8.571   4.216
22001WAT      O66244   5.501   4.697   8.680
22001WAT     H166245   5.532   4.748   8.761
22001WAT     H266246   5.426   4.746   8.637
22002WAT      O66247   3.023   1.575   2.081
22002WAT     H166248   3.092   1.525   2.028
22002WAT     H266249   3.061   1.663   2.109
22003WAT      O66250   0.042   2.192   9.702
22003WAT     H166251   0.139   2.180   9.682
22003WAT     H266252  -0.012   2.167   9.621
22004WAT      O66253   7.395   6.925   9.302
22004WAT     H166254   7.398   7.025   9.300
22004WAT     H266255   7.394   6.891   9.208
22005WAT      O66256   2.451   7.450   5.271
22005WAT     H166257   2.427   7.376   5.333
22005WAT     H266258   2.501   7.413   5.193
22006WAT      O66259   1.071   7.954   1.114
22006WAT     H166260   1.152   7.920   1.065
22006WAT     H266261   0.993   7.896   1.093
22007WAT      O66262   1.564   7.659   8.294
22007WAT     H166263   1.658   7.682   8.270
22007WAT     H266264   1.559   7.563   8.322
22008WAT      O66265   5.882   3.962   8.394
22008WAT     H166266   5.845   3.870   8.411
22008WAT     H266267   5.887   4.012   8.481
22009WAT      O66268   8.602   5.825   4.463
22009WAT     H166269   8.671   5.863   4.401
22009WAT     H266270   8.604   5.875   4.549
22010WAT      O66271   3.623   7.533   5.576
22010WAT     H166272   3.610   7.623   5.620
22010WAT     H266273   3.534   7.490   5.563
22011WAT      O66274   1.663   6.797   6.938
22011WAT     H166275   1.665   6.863   6.863
22011WAT     H266276   1.570   6.761   6.948
22012WAT      O66277   1.747   8.851   9.119
22012WAT     H166278   1.819   8.893   9.063
22012WAT     H266279   1.682   8.803   9.060
22013WAT      O66280   0.316   3.262   9.007
22013WAT     H166281   0.403   3.216   9.024
22013WAT     H266282   0.240   3.202   9.034
22014WAT      O66283   4.851   1.353   7.429
22014WAT     H166284   4.948   1.357   7.453
22014WAT     H266285   4.827   1.261   7.399
22015WAT      O66286   5.458   3.127   5.849
22015WAT     H166287   5.416   3.129   5.939
22015WAT     H266288   5.395   3.086   5.783
22016WAT      O66289   6.661   1.721   9.167
22016WAT     H166290   6.627   1.742   9.076
22016WAT     H266291   6.749   1.674   9.159
22017WAT      O66292   3.430   5.081   8.271
22017WAT     H166293   3.465   5.172   8.249
22017WAT     H266294   3.376   5.086   8.356
22018WAT      O66295   2.986   7.095   1.103
22018WAT     H166296   3.073   7.139   1.126
22018WAT     H266297   2.977   7.087   1.004
22019WAT      O66298   8.164   8.785   2.834
22019WAT     H166299   8.078   8.790   2.783
22019WAT     H266300   8.161   8.708   2.897
22020WAT      O66301   6.148   3.156   9.579
22020WAT     H166302   6.048   3.151   9.584
22020WAT     H266303   6.187   3.132   9.668
22021WAT      O66304   8.255   5.570   2.928
22021WAT     H166305   8.327   5.543   2.865
22021WAT     H266306   8.183   5.620   2.878
22022WAT      O66307   4.176   5.588   1.649
22022WAT     H166308   4.097   5.632   1.692
22022WAT     H266309   4.145   5.515   1.588
22023WAT      O66310   2.600   4.900   3.047
22023WAT     H166311   2.700   4.896   3.055
22023WAT     H266312   2.558   4.861   3.129
22024WAT      O66313   8.888   4.427   1.710
22024WAT     H166314   8.960   4.371   1.670
22024WAT     H266315   8.802   4.410   1.661
22025WAT      O66316   7.171   4.869   1.852
22025WAT     H166317   7.126   4.930   1.918
22025WAT     H266318   7.270   4.877   1.862
22026WAT      O66319   8.434   4.068   3.092
22026WAT     H166320   8.464   4.004   3.021
22026WAT     H266321   8.341   4.098   3.073
22027WAT      O66322   6.715   9.830   4.534
22027WAT     H166323   6.659   9.813   4.615
22027WAT     H266324   6.755   9.922   4.540
22028WAT      O66325   2.449   3.999   0.075
22028WAT     H166326   2.411   3.920   0.026
22028WAT     H266327   2.387   4.077   0.065
22029WAT      O66328   5.793   2.286   3.111
22029WAT     H166329   5.709   2.245   3.145
22029WAT     H266330   5.844   2.219   3.056
22030WAT      O66331   4.637   4.073   5.743
22030WAT     H166332   4.538   4.061   5.739
22030WAT     H266333   4.682   3.984   5.732
22031WAT      O66334   9.510   6.539   8.007
22031WAT     H166335   9.413   6.563   8.017
22031WAT     H266336   9.517   6.446   7.971
22032WAT      O66337   7.303   2.893   7.096
22032WAT     H166338   7.211   2.877   7.060
22032WAT     H266339   7.339   2.979   7.059
22033WAT      O66340   0.522   5.595   8.466
22033WAT     H166341   0.479   5.675   8.508
22033WAT     H266342   0.539   5.526   8.536
22034WAT      O66343   5.788   1.759   7.851
22034WAT     H166344   5.869   1.724   7.804
22034WAT     H266345   5.816   1.824   7.921
22035WAT      O66346   0.491   6.730   5.889
22035WAT     H166347   0.482   6.763   5.795
22035WAT     H266348   0.426   6.779   5.948
22036WAT      O66349   9.305   6.997   0.739
22036WAT     H166350   9.237   6.992   0.812
22036WAT     H266351   9.270   7.052   0.664
22037WAT      O66352   3.788   2.152   9.037
22037WAT     H166353   3.859   2.117   9.098
22037WAT     H266354   3.818   2.238   8.996
22038WAT      O66355   2.272   6.387   2.757
22038WAT     H166356   2.340   6.314   2.753
22038WAT     H266357   2.242   6.409   2.665
22039WAT      O66358   9.532   7.907   3.218
22039WAT     H166359   9.477   7.987   3.195
22039WAT     H266360   9.606   7.934   3.280
22040WAT      O66361   0.464   3.953   1.407
22040WAT     H166362   0.404   3.930   1.330
22040WAT     H266363   0.547   3.898   1.402
22041WAT      O66364   3.351   2.486   3.346
22041WAT     H166365   3.392   2.472   3.437
22041WAT     H266366   3.270   2.543   3.355
22042WAT      O66367   5.401   2.382   9.306
22042WAT     H166368   5.371   2.380   9.401
22042WAT     H266369   5.323   2.407   9.248
22043WAT      O66370   8.298   9.773   8.680
22043WAT     H166371   8.318   9.699   8.616
22043WAT     H266372   8.269   9.735   8.767
22044WAT      O66373   3.916   7.966   0.557
22044WAT     H166374   3.838   8.014   0.515
22044WAT     H266375   3.982   7.942   0.486
22045WAT      O66376   7.252   1.073   9.456
22045WAT     H166377   7.180   1.132   9.419
22045WAT     H266378   7.334   1.080   9.398
22046WAT      O66379   0.596   9.766   6.900
22046WAT     H166380   0.652   9.720   6.969
22046WAT     H266381   0.613   9.725   6.811
22047WAT      O66382   4.684   2.957   0.278
22047WAT     H166383   4.722   2.956   0.186
22047WAT     H266384   4.734   2.893   0.336
22048WAT      O66385   5.145   1.068   1.370
22048WAT     H166386   5.172   0.982   1.326
22048WAT     H266387   5.066   1.107   1.322
22049WAT      O66388   2.048   6.420   4.550
22049WAT     H166389   2.108   6.373   4.485
22049WAT     H266390   2.051   6.518   4.534
22050WAT      O66391   2.840   2.934   3.153
22050WAT     H166392   2.781   2.866   3.108
22050WAT     H266393   2.935   2.918   3.126
22051WAT      O66394   7.010   8.940   0.613
22051WAT     H166395   7.053   9.025   0.645
22051WAT     H266396   7.046   8.916   0.523
22052WAT      O66397   9.001   4.032   8.808
22052WAT     H166398   8.967   4.102   8.746
22052WAT     H266399   9.083   4.065   8.855
22053WAT      O66400   0.401   0.811   4.791
22053WAT     H166401   0.369   0.906   4.782
22053WAT     H266402   0.353   0.753   4.725
22054WAT      O66403   4.307   1.074   7.953
22054WAT     H166404   4.240   1.095   7.883
22054WAT     H266405   4.399   1.079   7.913
22055WAT      O66406   3.983   5.909   1.450
22055WAT     H166407   3.927   5.894   1.531
22055WAT     H266408   4.077   5.882   1.470
22056WAT      O66409   0.561   8.174   0.206
22056WAT     H166410   0.640   8.116   0.225
22056WAT     H266411   0.493   8.122   0.154
22057WAT      O66412   4.218   4.749   6.939
22057WAT     H166413   4.253   4.754   6.845
22057WAT     H266414   4.244   4.661   6.979
22058WAT      O66415   0.273   5.608   6.908
22058WAT     H166416   0.189   5.607   6.962
22058WAT     H266417   0.267   5.678   6.837
22059WAT      O66418   5.152   0.674   5.889
22059WAT     H166419   5.114   0.764   5.867
22059WAT     H266420   5.077   0.608   5.897
22060WAT      O66421   4.957   3.839   9.768
22060WAT     H166422   4.858   3.846   9.780
22060WAT     H266423   4.990   3.918   9.717
22061WAT      O66424   8.995   7.478   2.911
22061WAT     H166425   8.990   7.578   2.914
22061WAT     H266426   8.905   7.440   2.893
22062WAT      O66427   0.713   4.208   5.309
22062WAT     H166428   0.679   4.214   5.216
22062WAT     H266429   0.806   4.244   5.313
22063WAT      O66430   5.457   6.225   8.026
22063WAT     H166431   5.398   6.296   8.065
22063WAT     H266432   5.495   6.169   8.100
22064WAT      O66433   3.449   7.649   9.038
22064WAT     H166434   3.366   7.657   9.093
22064WAT     H266435   3.440   7.570   8.977
22065WAT      O66436   4.896   8.696   0.833
22065WAT     H166437   4.844   8.616   0.865
22065WAT     H266438   4.844   8.779   0.852
22066WAT      O66439   0.586   7.243   3.156
22066WAT     H166440   0.519   7.301   3.110
22066WAT     H266441   0.628   7.293   3.232
22067WAT      O66442   9.201   8.982   7.857
22067WAT     H166443   9.288   8.933   7.845
22067WAT     H266444   9.125   8.917   7.851
22068WAT      O66445   6.238   0.988   2.668
22068WAT     H166446   6.303   1.055   2.705
22068WAT     H266447   6.145   1.025   2.672
22069WAT      O66448   5.651   3.719   4.625
22069WAT     H166449   5.570   3.686   4.576
22069WAT     H266450   5.694   3.642   4.673
22070WAT      O66451   9.082   8.780   9.634
22070WAT     H166452   9.076   8.830   9.720
22070WAT     H266453   9.000   8.724   9.621
22071WAT      O66454   4.165   5.034   6.729
22071WAT     H166455   4.174   5.108   6.663
22071WAT     H266456   4.107   5.064   6.805
22072WAT      O66457   5.635   6.722   8.200
22072WAT     H166458   5.535   6.723   8.196
22072WAT     H266459   5.670   6.642   8.152
22073WAT      O66460   7.528   7.475   0.116
22073WAT     H166461   7.472   7.511   0.041
22073WAT     H266462   7.467   7.440   0.188
22074WAT      O66463   8.509   6.904   4.274
22074WAT     H166464   8.514   6.855   4.361
22074WAT     H266465   8.422   6.882   4.230
22075WAT      O66466   2.438   4.755   6.209
22075WAT     H166467   2.528   4.714   6.197
22075WAT     H266468   2.389   4.755   6.121
22076WAT      O66469   8.924   6.419   8.739
22076WAT     H166470   8.843   6.443   8.792
22076WAT     H266471   9.002   6.473   8.771
22077WAT      O66472   5.462   4.657   6.859
22077WAT     H166473   5.504   4.719   6.925
22077WAT     H266474   5.419   4.711   6.786
22078WAT      O66475   8.100   2.722   4.110
22078WAT     H166476   8.184   2.775   4.101
22078WAT     H266477   8.081   2.674   4.025
22079WAT      O66478   2.722   1.688   7.820
22079WAT     H166479   2.730   1.760   7.751
22079WAT     H266480   2.630   1.649   7.817
22080WAT      O66481   7.970   0.163   8.055
22080WAT     H166482   8.064   0.164   8.019
22080WAT     H266483   7.964   0.095   8.128
22081WAT      O66484   2.118   9.498   4.723
22081WAT     H166485   2.053   9.529   4.792
22081WAT     H266486   2.092   9.535   4.634
22082WAT      O66487   1.619   2.387   4.282
22082WAT     H166488   1.685   2.456   4.313
22082WAT     H266489   1.540   2.387   4.343
22083WAT      O66490   5.701   5.640   8.222
22083WAT     H166491   5.767   5.693   8.275
22083WAT     H266492   5.749   5.582   8.156
22084WAT      O66493   9.375   7.038   9.452
22084WAT     H166494   9.410   7.029   9.545
22084WAT     H266495   9.451   7.054   9.389
22085WAT      O66496   1.090   3.383   9.890
22085WAT     H166497   1.186   3.357   9.895
22085WAT     H266498   1.033   3.301   9.898
22086WAT      O66499   8.135   5.975   5.735
22086WAT     H166500   8.200   5.902   5.715
22086WAT     H266501   8.144   6.003   5.831
22087WAT      O66502   2.186   7.259   6.521
22087WAT     H166503   2.181   7.202   6.603
22087WAT     H266504   2.093   7.284   6.492
22088WAT      O66505   8.887   2.258   4.668
22088WAT     H166506   8.908   2.355   4.681
22088WAT     H266507   8.792   2.248   4.639
22089WAT      O66508   3.161   1.706   9.379
22089WAT     H166509   3.208   1.757   9.451
22089WAT     H266510   3.105   1.634   9.420
22090WAT      O66511   6.093   0.448   2.989
22090WAT     H166512   6.137   0.419   2.904
22090WAT     H266513   6.047   0.370   3.031
22091WAT      O66514   6.031   4.422   0.700
22091WAT     H166515   6.060   4.513   0.729
22091WAT     H266516   5.980   4.377   0.774
22092WAT      O66517   5.601   4.837   7.009
22092WAT     H166518   5.683   4.819   7.063
22092WAT     H266519   5.538   4.892   7.062
22093WAT      O66520   2.952   5.798   6.105
22093WAT     H166521   2.964   5.831   6.011
22093WAT     H266522   2.859   5.821   6.136
22094WAT      O66523   9.456   4.106   5.205
22094WAT     H166524   9.479   4.180   5.141
22094WAT     H266525   9.510   4.117   5.289
22095WAT      O66526   5.537   2.796   9.536
22095WAT     H166527   5.572   2.725   9.475
22095WAT     H266528   5.601   2.809   9.612
22096WAT      O66529   9.860   9.804   8.205
22096WAT     H166530   9.912   9.807   8.120
22096WAT     H266531   9.824   9.712   8.220
22097WAT      O66532   0.736   9.581   4.354
22097WAT     H166533   0.791   9.596   4.272
22097WAT     H266534   0.656   9.525   4.331
22098WAT      O66535   3.215   9.792   0.860
22098WAT     H166536   3.277   9.797   0.938
22098WAT     H266537   3.124   9.820   0.888
22099WAT      O66538   0.484   1.812   4.286
22099WAT     H166539   0.405   1.788   4.230
22099WAT     H266540   0.568   1.783   4.241
22100WAT      O66541   4.477   8.333   2.678
22100WAT     H166542   4.535   8.280   2.740
22100WAT     H266543   4.495   8.431   2.691
22101WAT      O66544   5.604   1.078   2.479
22101WAT     H166545   5.616   1.008   2.408
22101WAT     H266546   5.538   1.147   2.446
22102WAT      O66547   2.726   8.693   0.365
22102WAT     H166548   2.691   8.667   0.275
22102WAT     H266549   2.689   8.782   0.391
22103WAT      O66550   8.742   0.268   0.263
22103WAT     H166551   8.767   0.173   0.243
22103WAT     H266552   8.672   0.297   0.198
22104WAT      O66553   9.108   5.463   4.656
22104WAT     H166554   9.203   5.437   4.647
22104WAT     H266555   9.053   5.382   4.678
22105WAT      O66556   0.323   2.140   1.422
22105WAT     H166557   0.380   2.060   1.401
22105WAT     H266558   0.249   2.146   1.355
22106WAT      O66559   8.171   3.363   1.638
22106WAT     H166560   8.086   3.315   1.662
22106WAT     H266561   8.226   3.306   1.577
22107WAT      O66562   3.709   8.342   5.341
22107WAT     H166563   3.765   8.365   5.421
22107WAT     H266564   3.707   8.419   5.278
22108WAT      O66565   6.147   2.987   7.706
22108WAT     H166566   6.186   2.947   7.789
22108WAT     H266567   6.193   3.073   7.686
22109WAT      O66568   3.223   0.126   2.589
22109WAT     H166569   3.229   0.153   2.493
22109WAT     H266570   3.138   0.162   2.628
22110WAT      O66571   9.452   1.747   8.674
22110WAT     H166572   9.401   1.829   8.647
22110WAT     H266573   9.417   1.713   8.761
22111WAT      O66574   1.132   6.515   8.891
22111WAT     H166575   1.216   6.523   8.944
22111WAT     H266576   1.056   6.489   8.952
22112WAT      O66577   7.640   4.049   5.910
22112WAT     H166578   7.598   4.119   5.852
22112WAT     H266579   7.570   3.985   5.941
22113WAT      O66580   2.913   8.954   7.665
22113WAT     H166581   2.875   9.003   7.587
22113WAT     H266582   2.943   9.019   7.734
22114WAT      O66583   8.488   3.926   3.512
22114WAT     H166584   8.410   3.869   3.487
22114WAT     H266585   8.494   3.933   3.611
22115WAT      O66586   7.174   6.742   7.349
22115WAT     H166587   7.168   6.781   7.441
22115WAT     H266588   7.094   6.769   7.296
22116WAT      O66589   5.131   7.896   3.567
22116WAT     H166590   5.040   7.938   3.571
22116WAT     H266591   5.135   7.832   3.490
22117WAT      O66592   6.955   5.694   3.223
22117WAT     H166593   6.934   5.650   3.136
22117WAT     H266594   6.900   5.652   3.295
22118WAT      O66595   0.067   4.101   7.294
22118WAT     H166596   0.113   4.146   7.371
22118WAT     H266597   0.132   4.092   7.218
22119WAT      O66598   0.671   1.665   6.268
22119WAT     H166599   0.613   1.633   6.193
22119WAT     H266600   0.763   1.626   6.257
22120WAT      O66601   1.839   4.327   7.008
22120WAT     H166602   1.753   4.331   7.060
22120WAT     H266603   1.887   4.243   7.030
22121WAT      O66604   1.017   1.773   1.312
22121WAT     H166605   1.036   1.782   1.410
22121WAT     H266606   1.100   1.740   1.266
22122WAT      O66607   2.389   8.100   5.473
22122WAT     H166608   2.484   8.108   5.442
22122WAT     H266609   2.376   8.012   5.518
22123WAT      O66610   8.219   4.251   9.272
22123WAT     H166611   8.140   4.211   9.319
22123WAT     H266612   8.303   4.219   9.315
22124WAT      O66613   1.222   5.394   0.403
22124WAT     H166614   1.256   5.342   0.324
22124WAT     H266615   1.298   5.415   0.465
22125WAT      O66616   7.431   1.905   4.172
22125WAT     H166617   7.498   1.901   4.247
22125WAT     H266618   7.366   1.979   4.190
22126WAT      O66619   1.622   1.519   5.822
22126WAT     H166620   1.646   1.560   5.909
22126WAT     H266621   1.696   1.459   5.791
22127WAT      O66622   5.128   7.415   6.829
22127WAT     H166623   5.129   7.504   6.784
22127WAT     H266624   5.053   7.360   6.792
22128WAT      O66625   4.429   6.389   7.818
22128WAT     H166626   4.500   6.451   7.784
22128WAT     H266627   4.353   6.386   7.753
22129WAT      O66628   6.110   1.645   8.246
22129WAT     H166629   6.035   1.630   8.310
22129WAT     H266630   6.088   1.603   8.158
22130WAT      O66631   0.306   1.225   2.033
22130WAT     H166632   0.216   1.266   2.020
22130WAT     H266633   0.327   1.164   1.957
22131WAT      O66634   0.992   5.010   6.188
22131WAT     H166635   1.001   5.083   6.121
22131WAT     H266636   0.999   5.049   6.280
22132WAT      O66637   9.354   5.253   6.414
22132WAT     H166638   9.435   5.204   6.443
22132WAT     H266639   9.292   5.265   6.491
22133WAT      O66640   6.105   5.975   3.014
22133WAT     H166641   6.122   6.029   2.932
22133WAT     H266642   6.113   5.877   2.992
22134WAT      O66643   4.363   5.025   8.749
22134WAT     H166644   4.273   4.991   8.720
22134WAT     H266645   4.434   4.963   8.716
22135WAT      O66646   9.447   9.215   3.421
22135WAT     H166647   9.512   9.188   3.492
22135WAT     H266648   9.420   9.135   3.367
22136WAT      O66649   4.916   4.465   4.387
22136WAT     H166650   4.969   4.498   4.308
22136WAT     H266651   4.895   4.542   4.447
22137WAT      O66652   7.652   4.824   4.247
22137WAT     H166653   7.567   4.855   4.291
22137WAT     H266654   7.688   4.746   4.298
22138WAT      O66655   7.610   6.693   3.811
22138WAT     H166656   7.524   6.740   3.831
22138WAT     H266657   7.653   6.665   3.897
22139WAT      O66658   8.816   1.990   0.284
22139WAT     H166659   8.907   1.953   0.263
22139WAT     H266660   8.768   1.925   0.344
22140WAT      O66661   6.349   8.435   0.800
22140WAT     H166662   6.442   8.457   0.831
22140WAT     H266663   6.350   8.422   0.701
22141WAT      O66664   3.835   4.809   2.351
22141WAT     H166665   3.806   4.815   2.255
22141WAT     H266666   3.934   4.800   2.355
22142WAT      O66667   6.109   9.552   5.061
22142WAT     H166668   6.132   9.461   5.096
22142WAT     H266669   6.024   9.583   5.104
22143WAT      O66670   6.307   0.418   3.182
22143WAT     H166671   6.231   0.446   3.124
22143WAT     H266672   6.365   0.498   3.200
22144WAT      O66673   6.464   1.954   1.498
22144WAT     H166674   6.459   1.991   1.405
22144WAT     H266675   6.474   1.855   1.494
22145WAT      O66676   5.040   5.454   3.129
22145WAT     H166677   4.959   5.395   3.122
22145WAT     H266678   5.012   5.548   3.146
22146WAT      O66679   7.264   5.727   3.091
22146WAT     H166680   7.251   5.640   3.044
22146WAT     H266681   7.198   5.735   3.166
22147WAT      O66682   6.927   8.394   9.419
22147WAT     H166683   6.979   8.310   9.434
22147WAT     H266684   6.845   8.393   9.476
22148WAT      O66685   5.665   5.181   0.110
22148WAT     H166686   5.738   5.244   0.083
22148WAT     H266687   5.576   5.219   0.082
22149WAT      O66688   2.546   0.496   3.208
22149WAT     H166689   2.509   0.468   3.297
22149WAT     H266690   2.620   0.434   3.181
22150WAT      O66691   8.282   3.506   0.733
22150WAT     H166692   8.216   3.467   0.798
22150WAT     H266693   8.329   3.432   0.685
22151WAT      O66694   2.581   2.569   3.741
22151WAT     H166695   2.528   2.654   3.738
22151WAT     H266696   2.581   2.527   3.650
22152WAT      O66697   9.848   2.671   3.109
22152WAT     H166698   9.861   2.617   3.026
22152WAT     H266699   9.751   2.693   3.119
22153WAT      O66700   3.739   6.812   0.895
22153WAT     H166701   3.652   6.770   0.919
22153WAT     H266702   3.728   6.911   0.890
22154WAT      O66703   6.248   1.519   6.521
22154WAT     H166704   6.273   1.436   6.572
22154WAT     H266705   6.179   1.570   6.572
22155WAT      O66706   4.308   5.002   3.782
22155WAT     H166707   4.234   4.962   3.836
22155WAT     H266708   4.370   5.052   3.843
22156WAT      O66709   6.338   1.021   3.406
22156WAT     H166710   6.292   0.935   3.429
22156WAT     H266711   6.271   1.095   3.406
22157WAT      O66712   0.814   4.945   5.650
22157WAT     H166713   0.879   4.889   5.702
22157WAT     H266714   0.730   4.893   5.635
22158WAT      O66715   1.582   4.283   8.894
22158WAT     H166716   1.536   4.371   8.899
22158WAT     H266717   1.519   4.213   8.861
22159WAT      O66718   9.048   6.798   8.513
22159WAT     H166719   9.005   6.734   8.449
22159WAT     H266720   8.978   6.842   8.569
22160WAT      O66721   3.582   3.940   4.256
22160WAT     H166722   3.609   3.979   4.168
22160WAT     H266723   3.502   3.882   4.244
22161WAT      O66724   9.754   8.427   3.356
22161WAT     H166725   9.747   8.424   3.456
22161WAT     H266726   9.838   8.382   3.328
22162WAT      O66727   8.335   3.956   2.698
22162WAT     H166728   8.363   3.868   2.659
22162WAT     H266729   8.409   4.022   2.687
22163WAT      O66730   2.858   6.624   3.662
22163WAT     H166731   2.796   6.699   3.638
22163WAT     H266732   2.925   6.657   3.729
22164WAT      O66733   4.349   9.316   8.247
22164WAT     H166734   4.389   9.330   8.338
22164WAT     H266735   4.385   9.232   8.208
22165WAT      O66736   6.150   1.187   3.871
22165WAT     H166737   6.245   1.179   3.841
22165WAT     H266738   6.144   1.166   3.969
22166WAT      O66739   4.024   4.824   0.748
22166WAT     H166740   4.036   4.834   0.649
22166WAT     H266741   3.936   4.780   0.767
22167WAT      O66742   2.647   9.110   9.500
22167WAT     H166743   2.637   9.102   9.401
22167WAT     H266744   2.694   9.030   9.535
22168WAT      O66745   0.029   6.828   8.458
22168WAT     H166746   0.021   6.828   8.558
22168WAT     H266747   0.126   6.834   8.433
22169WAT      O66748   4.279   8.339   4.399
22169WAT     H166749   4.219   8.405   4.444
22169WAT     H266750   4.307   8.269   4.465
22170WAT      O66751   6.864   9.024   7.956
22170WAT     H166752   6.831   8.961   7.886
22170WAT     H266753   6.825   9.115   7.939
22171WAT      O66754   5.927   2.716   0.639
22171WAT     H166755   6.006   2.655   0.628
22171WAT     H266756   5.864   2.703   0.563
22172WAT      O66757   5.983   8.962   5.735
22172WAT     H166758   6.033   8.891   5.686
22172WAT     H266759   5.987   9.048   5.684
22173WAT      O66760   6.301   5.096   2.494
22173WAT     H166761   6.391   5.052   2.496
22173WAT     H266762   6.280   5.124   2.401
22174WAT      O66763   9.244   0.968   4.092
22174WAT     H166764   9.146   0.950   4.094
22174WAT     H266765   9.291   0.906   4.155
22175WAT      O66766   6.729   3.507   6.892
22175WAT     H166767   6.700   3.432   6.831
22175WAT     H266768   6.650   3.565   6.912
22176WAT      O66769   1.303   7.322   7.557
22176WAT     H166770   1.314   7.307   7.459
22176WAT     H266771   1.325   7.238   7.606
22177WAT      O66772   2.248   2.471   3.257
22177WAT     H166773   2.339   2.510   3.272
22177WAT     H266774   2.181   2.544   3.251
22178WAT      O66775   0.392   0.745   3.401
22178WAT     H166776   0.415   0.840   3.376
22178WAT     H266777   0.293   0.737   3.412
22179WAT      O66778   1.493   3.936   1.534
22179WAT     H166779   1.440   4.006   1.582
22179WAT     H266780   1.444   3.849   1.537
22180WAT      O66781   3.790   7.830   3.358
22180WAT     H166782   3.715   7.806   3.297
22180WAT     H266783   3.831   7.917   3.330
22181WAT      O66784   9.227   1.119   8.842
22181WAT     H166785   9.248   1.205   8.795
22181WAT     H266786   9.213   1.138   8.940
22182WAT      O66787   6.646   8.591   0.758
22182WAT     H166788   6.686   8.513   0.806
22182WAT     H266789   6.669   8.586   0.661
22183WAT      O66790   4.364   2.398   3.974
22183WAT     H166791   4.334   2.485   3.934
22183WAT     H266792   4.290   2.362   4.031
22184WAT      O66793   8.075   6.752   3.863
22184WAT     H166794   8.026   6.727   3.780
22184WAT     H266795   8.153   6.691   3.875
22185WAT      O66796   3.193   5.818   7.704
22185WAT     H166797   3.131   5.889   7.738
22185WAT     H266798   3.166   5.792   7.611
22186WAT      O66799   4.578   9.780   0.601
22186WAT     H166800   4.556   9.692   0.645
22186WAT     H266801   4.677   9.792   0.599
22187WAT      O66802   2.040   9.414   2.899
22187WAT     H166803   2.085   9.327   2.878
22187WAT     H266804   1.964   9.398   2.961
22188WAT      O66805   4.110   9.313   6.568
22188WAT     H166806   4.074   9.265   6.648
22188WAT     H266807   4.179   9.256   6.523
22189WAT      O66808   8.597   6.052   0.909
22189WAT     H166809   8.547   5.984   0.964
22189WAT     H266810   8.685   6.072   0.954
22190WAT      O66811   6.322   3.107   8.559
22190WAT     H166812   6.260   3.176   8.521
22190WAT     H266813   6.318   3.024   8.502
22191WAT      O66814   4.391   5.249   8.110
22191WAT     H166815   4.301   5.291   8.123
22191WAT     H266816   4.442   5.252   8.196
22192WAT      O66817   3.301   2.772   9.456
22192WAT     H166818   3.313   2.675   9.433
22192WAT     H266819   3.375   2.825   9.413
22193WAT      O66820   8.394   5.954   6.615
22193WAT     H166821   8.332   6.031   6.630
22193WAT     H266822   8.479   5.988   6.575
22194WAT      O66823   8.583   8.886   0.840
22194WAT     H166824   8.632   8.971   0.857
22194WAT     H266825   8.556   8.883   0.744
22195WAT      O66826   6.542   5.312   2.509
22195WAT     H166827   6.635   5.341   2.533
22195WAT     H266828   6.533   5.214   2.523
22196WAT      O66829   9.024   3.433   9.776
22196WAT     H166830   8.968   3.508   9.742
22196WAT     H266831   9.121   3.455   9.764
22197WAT      O66832   0.533   4.102   7.125
22197WAT     H166833   0.589   4.078   7.046
22197WAT     H266834   0.552   4.196   7.153
22198WAT      O66835   3.052   0.987   0.630
22198WAT     H166836   3.083   1.057   0.695
22198WAT     H266837   3.131   0.941   0.590
22199WAT      O66838   9.638   3.441   3.075
22199WAT     H166839   9.670   3.516   3.017
22199WAT     H266840   9.556   3.401   3.034
22200WAT      O66841   0.152   1.902   1.643
22200WAT     H166842   0.154   1.807   1.673
22200WAT     H266843   0.222   1.955   1.693
22201WAT      O66844   3.251   6.685   5.230
22201WAT     H166845   3.336   6.699   5.281
22201WAT     H266846   3.206   6.602   5.263
22202WAT      O66847   8.472   0.020   7.586
22202WAT     H166848   8.557   0.070   7.602
22202WAT     H266849   8.441   0.037   7.492
22203WAT      O66850   9.572   6.560   3.452
22203WAT     H166851   9.527   6.580   3.364
22203WAT     H266852   9.662   6.520   3.434
22204WAT      O66853   2.356   4.428   2.613
22204WAT     H166854   2.408   4.505   2.576
22204WAT     H266855   2.261   4.456   2.628
22205WAT      O66856   9.023   3.337   5.633
22205WAT     H166857   8.984   3.378   5.550
22205WAT     H266858   9.119   3.314   5.616
22206WAT      O66859   2.306   9.766   2.076
22206WAT     H166860   2.290   9.764   2.175
22206WAT     H266861   2.404   9.772   2.059
22207WAT      O66862   5.747   6.595   5.293
22207WAT     H166863   5.696   6.537   5.230
22207WAT     H266864   5.780   6.676   5.245
22208WAT      O66865   3.836   5.268   7.134
22208WAT     H166866   3.905   5.240   7.201
22208WAT     H266867   3.756   5.208   7.141
22209WAT      O66868   3.386   2.044   9.376
22209WAT     H166869   3.331   2.125   9.395
22209WAT     H266870   3.483   2.070   9.369
22210WAT      O66871   1.520   2.698   4.259
22210WAT     H166872   1.537   2.613   4.209
22210WAT     H266873   1.562   2.691   4.350
22211WAT      O66874   8.800   8.845   2.072
22211WAT     H166875   8.891   8.885   2.065
22211WAT     H266876   8.805   8.756   2.118
22212WAT      O66877   5.268   1.145   6.105
22212WAT     H166878   5.280   1.141   6.204
22212WAT     H266879   5.190   1.089   6.078
22213WAT      O66880   7.195   1.195   2.276
22213WAT     H166881   7.233   1.249   2.201
22213WAT     H266882   7.197   1.248   2.360
22214WAT      O66883   2.815   9.233   9.134
22214WAT     H166884   2.731   9.188   9.163
22214WAT     H266885   2.870   9.257   9.214
22215WAT      O66886   0.910   8.258   6.535
22215WAT     H166887   0.996   8.220   6.501
22215WAT     H266888   0.848   8.273   6.458
22216WAT      O66889   5.174   7.749   5.706
22216WAT     H166890   5.219   7.665   5.737
22216WAT     H266891   5.087   7.726   5.663
22217WAT      O66892   2.822   2.005   1.902
22217WAT     H166893   2.743   2.056   1.867
22217WAT     H266894   2.816   1.910   1.872
22218WAT      O66895   1.691   1.869   8.180
22218WAT     H166896   1.618   1.910   8.125
22218WAT     H266897   1.658   1.782   8.218
22219WAT      O66898   9.513   2.076   7.497
22219WAT     H166899   9.483   2.136   7.571
22219WAT     H266900   9.457   2.093   7.416
22220WAT      O66901   4.005   4.700   8.438
22220WAT     H166902   3.920   4.686   8.388
22220WAT     H266903   4.001   4.786   8.488
22221WAT      O66904   2.155   6.669   7.466
22221WAT     H166905   2.225   6.600   7.445
22221WAT     H266906   2.077   6.625   7.509
22222WAT      O66907   2.814   6.692   7.114
22222WAT     H166908   2.800   6.634   7.194
22222WAT     H266909   2.865   6.774   7.141
22223WAT      O66910   6.707   0.623   3.185
22223WAT     H166911   6.782   0.577   3.137
22223WAT     H266912   6.743   0.698   3.240
22224WAT      O66913   5.825   0.398   1.543
22224WAT     H166914   5.765   0.362   1.472
22224WAT     H266915   5.875   0.323   1.586
22225WAT      O66916   6.809   6.511   8.624
22225WAT     H166917   6.863   6.583   8.668
22225WAT     H266918   6.721   6.548   8.595
22226WAT      O66919   9.015   8.237   5.444
22226WAT     H166920   9.074   8.243   5.525
22226WAT     H266921   8.987   8.329   5.416
22227WAT      O66922   9.556   4.573   6.860
22227WAT     H166923   9.599   4.565   6.950
22227WAT     H266924   9.625   4.600   6.792
22228WAT      O66925   5.123   8.878   8.964
22228WAT     H166926   5.095   8.928   9.046
22228WAT     H266927   5.107   8.780   8.978
22229WAT      O66928   5.747   5.523   0.305
22229WAT     H166929   5.778   5.567   0.390
22229WAT     H266930   5.826   5.482   0.259
22230WAT      O66931   8.790   8.455   3.925
22230WAT     H166932   8.765   8.509   4.006
22230WAT     H266933   8.876   8.490   3.887
22231WAT      O66934   9.415   5.748   8.135
22231WAT     H166935   9.395   5.796   8.050
22231WAT     H266936   9.445   5.814   8.205
22232WAT      O66937   5.472   4.368   2.978
22232WAT     H166938   5.456   4.320   2.892
22232WAT     H266939   5.385   4.408   3.009
22233WAT      O66940   0.482   5.315   9.068
22233WAT     H166941   0.574   5.292   9.036
22233WAT     H266942   0.488   5.391   9.133
22234WAT      O66943   4.489   6.234   9.490
22234WAT     H166944   4.447   6.220   9.400
22234WAT     H266945   4.418   6.238   9.560
22235WAT      O66946   0.052   5.540   0.106
22235WAT     H166947  -0.027   5.551   0.045
22235WAT     H266948   0.102   5.626   0.112
22236WAT      O66949   0.380   0.431   6.713
22236WAT     H166950   0.347   0.525   6.717
22236WAT     H266951   0.365   0.394   6.621
22237WAT      O66952   8.411   7.607   8.231
22237WAT     H166953   8.336   7.550   8.265
22237WAT     H266954   8.439   7.575   8.141
22238WAT      O66955   4.472   0.770   3.614
22238WAT     H166956   4.379   0.739   3.596
22238WAT     H266957   4.538   0.707   3.572
22239WAT      O66958   1.721   2.623   0.076
22239WAT     H166959   1.790   2.658   0.139
22239WAT     H266960   1.632   2.662   0.099
22240WAT      O66961   9.307   1.477   6.622
22240WAT     H166962   9.346   1.405   6.680
22240WAT     H266963   9.297   1.561   6.676
22241WAT      O66964   2.189   9.760   8.953
22241WAT     H166965   2.234   9.681   8.910
22241WAT     H266966   2.112   9.728   9.008
22242WAT      O66967   0.448   5.637   8.845
22242WAT     H166968   0.404   5.700   8.782
22242WAT     H266969   0.427   5.664   8.939
22243WAT      O66970   6.125   1.350   9.212
22243WAT     H166971   6.101   1.258   9.181
22243WAT     H266972   6.223   1.354   9.232
22244WAT      O66973   3.511   2.559   4.939
22244WAT     H166974   3.474   2.613   5.015
22244WAT     H266975   3.576   2.615   4.887
22245WAT      O66976   6.105   8.576   5.230
22245WAT     H166977   6.201   8.590   5.255
22245WAT     H266978   6.088   8.616   5.140
22246WAT      O66979   5.223   9.817   4.154
22246WAT     H166980   5.144   9.878   4.165
22246WAT     H266981   5.302   9.870   4.123
22247WAT      O66982   2.871   4.411   1.406
22247WAT     H166983   2.920   4.375   1.485
22247WAT     H266984   2.798   4.348   1.380
22248WAT      O66985   8.822   2.452   7.388
22248WAT     H166986   8.744   2.420   7.442
22248WAT     H266987   8.833   2.394   7.308
22249WAT      O66988   7.601   3.123   6.045
22249WAT     H166989   7.543   3.204   6.054
22249WAT     H266990   7.620   3.106   5.948
22250WAT      O66991   3.812   1.829   5.753
22250WAT     H166992   3.724   1.810   5.709
22250WAT     H266993   3.814   1.924   5.783
22251WAT      O66994   1.312   5.367   8.581
22251WAT     H166995   1.290   5.403   8.671
22251WAT     H266996   1.388   5.419   8.542
22252WAT      O66997   4.960   9.743   2.768
22252WAT     H166998   4.982   9.738   2.670
22252WAT     H266999   4.862   9.729   2.781
22253WAT      O67000   2.729   3.730   0.685
22253WAT     H167001   2.688   3.672   0.755
22253WAT     H267002   2.676   3.814   0.675
22254WAT      O67003   8.627   7.600   5.775
22254WAT     H167004   8.616   7.503   5.756
22254WAT     H267005   8.672   7.645   5.698
22255WAT      O67006   4.302   5.077   8.333
22255WAT     H167007   4.385   5.133   8.323
22255WAT     H267008   4.296   5.014   8.256
22256WAT      O67009   0.249   6.621   2.399
22256WAT     H167010   0.209   6.530   2.411
22256WAT     H267011   0.254   6.643   2.301
22257WAT      O67012   8.519   9.623   6.385
22257WAT     H167013   8.576   9.651   6.462
22257WAT     H267014   8.560   9.657   6.300
22258WAT      O67015   2.301   2.596   5.682
22258WAT     H167016   2.390   2.552   5.674
22258WAT     H267017   2.240   2.539   5.738
22259WAT      O67018   6.981   9.309   7.585
22259WAT     H167019   7.053   9.258   7.633
22259WAT     H267020   6.926   9.245   7.531
22260WAT      O67021   8.372   4.837   7.240
22260WAT     H167022   8.293   4.818   7.299
22260WAT     H267023   8.390   4.936   7.239
22261WAT      O67024   7.066   7.673   6.079
22261WAT     H167025   7.161   7.646   6.063
22261WAT     H267026   7.033   7.728   6.002
22262WAT      O67027   9.770   2.514   9.138
22262WAT     H167028   9.860   2.496   9.176
22262WAT     H267029   9.709   2.547   9.210
22263WAT      O67030   7.343   6.692   3.002
22263WAT     H167031   7.314   6.786   2.985
22263WAT     H267032   7.428   6.673   2.952
22264WAT      O67033   4.312   1.382   6.403
22264WAT     H167034   4.360   1.431   6.331
22264WAT     H267035   4.213   1.389   6.390
22265WAT      O67036   3.042   1.433   4.605
22265WAT     H167037   2.948   1.431   4.640
22265WAT     H267038   3.058   1.521   4.560
22266WAT      O67039   3.661   7.719   0.277
22266WAT     H167040   3.723   7.794   0.256
22266WAT     H267041   3.710   7.649   0.329
22267WAT      O67042   9.009   5.432   6.888
22267WAT     H167043   8.949   5.509   6.866
22267WAT     H267044   9.100   5.465   6.911
22268WAT      O67045   6.248   5.014   1.244
22268WAT     H167046   6.304   5.096   1.251
22268WAT     H267047   6.186   5.023   1.166
22269WAT      O67048   7.549   2.109   3.500
22269WAT     H167049   7.531   2.105   3.402
22269WAT     H267050   7.591   2.023   3.529
22270WAT      O67051   8.257   8.356   7.348
22270WAT     H167052   8.355   8.372   7.346
22270WAT     H267053   8.209   8.441   7.370
22271WAT      O67054   9.193   9.300   3.568
22271WAT     H167055   9.141   9.261   3.644
22271WAT     H267056   9.263   9.235   3.538
22272WAT      O67057   7.232   1.042   9.110
22272WAT     H167058   7.235   0.981   9.031
22272WAT     H267059   7.235   1.137   9.078
22273WAT      O67060   2.827   1.145   0.369
22273WAT     H167061   2.872   1.056   0.362
22273WAT     H267062   2.760   1.144   0.443
22274WAT      O67063   5.917   7.091   9.524
22274WAT     H167064   5.857   7.169   9.507
22274WAT     H267065   5.998   7.098   9.467
22275WAT      O67066   0.355   7.028   7.911
22275WAT     H167067   0.357   7.105   7.847
22275WAT     H267068   0.428   6.964   7.889
22276WAT      O67069   9.721   6.030   5.891
22276WAT     H167070   9.759   5.938   5.884
22276WAT     H267071   9.631   6.032   5.848
22277WAT      O67072   8.390   6.408   6.980
22277WAT     H167073   8.468   6.391   7.040
22277WAT     H267074   8.305   6.392   7.030
22278WAT      O67075   7.887   2.359   8.776
22278WAT     H167076   7.912   2.263   8.769
22278WAT     H267077   7.832   2.373   8.858
22279WAT      O67078   7.770   9.162   5.508
22279WAT     H167079   7.740   9.077   5.465
22279WAT     H267080   7.691   9.221   5.524
22280WAT      O67081   7.679   4.695   2.855
22280WAT     H167082   7.745   4.715   2.782
22280WAT     H267083   7.711   4.617   2.908
22281WAT      O67084   2.033   8.949   7.434
22281WAT     H167085   2.018   8.875   7.500
22281WAT     H267086   2.125   8.987   7.446
22282WAT      O67087   7.890   4.976   4.350
22282WAT     H167088   7.824   4.914   4.309
22282WAT     H267089   7.843   5.039   4.412
22283WAT      O67090   8.344   7.649   7.661
22283WAT     H167091   8.278   7.700   7.606
22283WAT     H267092   8.406   7.714   7.706
22284WAT      O67093   7.599   5.902   0.880
22284WAT     H167094   7.577   5.999   0.880
22284WAT     H267095   7.680   5.885   0.935
22285WAT      O67096   9.210   2.254   6.585
22285WAT     H167097   9.231   2.187   6.514
22285WAT     H267098   9.292   2.269   6.641
22286WAT      O67099   0.155   6.441   3.841
22286WAT     H167100   0.215   6.364   3.817
22286WAT     H267101   0.177   6.520   3.784
22287WAT      O67102   3.547   8.307   9.471
22287WAT     H167103   3.582   8.247   9.399
22287WAT     H267104   3.624   8.342   9.525
22288WAT      O67105   0.950   3.719   1.714
22288WAT     H167106   0.899   3.652   1.766
22288WAT     H267107   0.998   3.780   1.777
22289WAT      O67108   9.222   3.847   6.404
22289WAT     H167109   9.247   3.884   6.315
22289WAT     H267110   9.191   3.753   6.394
22290WAT      O67111   5.251   2.079   7.369
22290WAT     H167112   5.152   2.078   7.361
22290WAT     H267113   5.278   2.073   7.465
22291WAT      O67114   0.128   1.336   9.693
22291WAT     H167115   0.182   1.361   9.612
22291WAT     H267116   0.173   1.372   9.775
22292WAT      O67117   7.815   1.830   7.834
22292WAT     H167118   7.838   1.741   7.874
22292WAT     H267119   7.876   1.848   7.757
22293WAT      O67120   9.075   8.607   3.251
22293WAT     H167121   8.981   8.591   3.282
22293WAT     H267122   9.074   8.636   3.155
22294WAT      O67123   3.111   8.154   2.354
22294WAT     H167124   3.082   8.084   2.288
22294WAT     H267125   3.033   8.181   2.410
22295WAT      O67126   6.976   1.057   4.987
22295WAT     H167127   6.958   1.097   5.077
22295WAT     H267128   6.927   1.109   4.917
22296WAT      O67129   8.348   9.559   3.781
22296WAT     H167130   8.369   9.619   3.703
22296WAT     H267131   8.305   9.475   3.747
22297WAT      O67132   0.916   7.599   5.051
22297WAT     H167133   0.953   7.630   4.963
22297WAT     H267134   0.822   7.632   5.061
22298WAT      O67135   3.387   4.283   6.315
22298WAT     H167136   3.463   4.286   6.379
22298WAT     H267137   3.337   4.197   6.325
22299WAT      O67138   7.836   6.407   5.986
22299WAT     H167139   7.884   6.433   6.070
22299WAT     H267140   7.739   6.393   6.007
22300WAT      O67141   6.647   7.504   3.384
22300WAT     H167142   6.690   7.553   3.308
22300WAT     H267143   6.717   7.452   3.432
22301WAT      O67144   1.834   1.139   8.931
22301WAT     H167145   1.839   1.198   9.012
22301WAT     H267146   1.854   1.044   8.957
22302WAT      O67147   4.559   0.818   8.993
22302WAT     H167148   4.487   0.869   9.039
22302WAT     H267149   4.533   0.722   8.986
22303WAT      O67150   3.557   0.465   7.215
22303WAT     H167151   3.499   0.546   7.204
22303WAT     H267152   3.500   0.383   7.209
22304WAT      O67153   1.476   8.188   3.018
22304WAT     H167154   1.452   8.216   2.925
22304WAT     H267155   1.466   8.265   3.080
22305WAT      O67156   9.526   4.882   9.110
22305WAT     H167157   9.512   4.948   9.036
22305WAT     H267158   9.611   4.903   9.158
22306WAT      O67159   4.041   4.664   7.351
22306WAT     H167160   4.140   4.666   7.370
22306WAT     H267161   4.004   4.576   7.382
22307WAT      O67162   4.374   8.176   5.747
22307WAT     H167163   4.288   8.213   5.782
22307WAT     H267164   4.354   8.104   5.680
22308WAT      O67165   6.110   2.792   9.873
22308WAT     H167166   6.038   2.807   9.804
22308WAT     H267167   6.160   2.708   9.851
22309WAT      O67168   8.943   8.745   8.507
22309WAT     H167169   9.002   8.708   8.579
22309WAT     H267170   8.847   8.736   8.535
22310WAT      O67171   2.948   0.428   4.167
22310WAT     H167172   2.967   0.448   4.071
22310WAT     H267173   2.941   0.514   4.218
22311WAT      O67174   3.822   4.513   2.284
22311WAT     H167175   3.741   4.455   2.296
22311WAT     H267176   3.807   4.601   2.328
22312WAT      O67177   1.046   8.363   5.143
22312WAT     H167178   1.032   8.266   5.162
22312WAT     H267179   1.143   8.386   5.155
22313WAT      O67180   9.820   0.147   4.063
22313WAT     H167181   9.860   0.204   4.135
22313WAT     H267182   9.727   0.178   4.044
22314WAT      O67183   9.384   6.338   2.973
22314WAT     H167184   9.384   6.373   2.880
22314WAT     H267185   9.410   6.241   2.973
22315WAT      O67186   1.368   0.964   2.000
22315WAT     H167187   1.415   1.048   1.974
22315WAT     H267188   1.285   0.954   1.944
22316WAT      O67189   3.534   7.374   0.373
22316WAT     H167190   3.477   7.366   0.291
22316WAT     H267191   3.630   7.362   0.348
22317WAT      O67192   2.386   7.013   6.492
22317WAT     H167193   2.379   6.916   6.513
22317WAT     H267194   2.301   7.060   6.517
22318WAT      O67195   6.814   6.446   1.051
22318WAT     H167196   6.855   6.483   0.968
22318WAT     H267197   6.755   6.369   1.027
22319WAT      O67198   2.687   0.782   4.420
22319WAT     H167199   2.685   0.845   4.498
22319WAT     H267200   2.606   0.724   4.421
22320WAT      O67201   8.819   9.483   4.021
22320WAT     H167202   8.838   9.446   4.112
22320WAT     H267203   8.727   9.521   4.018
22321WAT      O67204   7.249   9.612   5.207
22321WAT     H167205   7.222   9.666   5.128
22321WAT     H267206   7.253   9.670   5.288
22322WAT      O67207   2.096   0.847   3.646
22322WAT     H167208   1.997   0.834   3.641
22322WAT     H267209   2.140   0.790   3.576
22323WAT      O67210   8.922   0.121   9.809
22323WAT     H167211   8.957   0.160   9.894
22323WAT     H267212   8.830   0.156   9.792
22324WAT      O67213   8.984   1.329   5.285
22324WAT     H167214   8.902   1.273   5.280
22324WAT     H267215   8.967   1.417   5.241
22325WAT      O67216   8.960   0.089   8.809
22325WAT     H167217   9.016   0.020   8.765
22325WAT     H267218   8.997   0.180   8.790
22326WAT      O67219   4.967   7.849   2.003
22326WAT     H167220   5.036   7.780   2.024
22326WAT     H267221   4.940   7.840   1.907
22327WAT      O67222   3.871   8.755   2.684
22327WAT     H167223   3.823   8.776   2.769
22327WAT     H267224   3.838   8.814   2.611
22328WAT      O67225   4.205   2.924   1.524
22328WAT     H167226   4.223   2.848   1.587
22328WAT     H267227   4.253   3.005   1.556
22329WAT      O67228   0.070   4.761   9.792
22329WAT     H167229   0.007   4.732   9.864
22329WAT     H267230   0.029   4.836   9.739
22330WAT      O67231   2.549   8.736   6.757
22330WAT     H167232   2.580   8.678   6.832
22330WAT     H267233   2.450   8.734   6.751
22331WAT      O67234   8.544   4.143   5.361
22331WAT     H167235   8.502   4.196   5.435
22331WAT     H267236   8.620   4.195   5.321
22332WAT      O67237   4.801   1.568   6.054
22332WAT     H167238   4.709   1.599   6.077
22332WAT     H267239   4.831   1.614   5.970
22333WAT      O67240   0.149   0.689   9.327
22333WAT     H167241   0.245   0.715   9.330
22333WAT     H267242   0.103   0.722   9.409
22334WAT      O67243   0.795   7.175   7.584
22334WAT     H167244   0.879   7.121   7.572
22334WAT     H267245   0.717   7.123   7.550
22335WAT      O67246   1.325   9.654   8.050
22335WAT     H167247   1.409   9.685   8.094
22335WAT     H267248   1.253   9.723   8.062
22336WAT      O67249   2.356   0.047   4.043
22336WAT     H167250   2.348   0.021   3.947
22336WAT     H267251   2.404  -0.024   4.094
22337WAT      O67252   8.506   9.642   9.497
22337WAT     H167253   8.414   9.661   9.532
22337WAT     H267254   8.521   9.695   9.414
22338WAT      O67255   4.476   1.010   4.683
22338WAT     H167256   4.430   0.978   4.600
22338WAT     H267257   4.411   1.062   4.739
22339WAT      O67258   7.440   0.005   4.163
22339WAT     H167259   7.375   0.062   4.212
22339WAT     H267260   7.400  -0.026   4.076
22340WAT      O67261   1.337   8.892   8.250
22340WAT     H167262   1.252   8.877   8.200
22340WAT     H267263   1.322   8.875   8.348
22341WAT      O67264   8.901   4.975   2.885
22341WAT     H167265   8.934   4.885   2.859
22341WAT     H267266   8.977   5.040   2.881
22342WAT      O67267   5.994   8.139   1.239
22342WAT     H167268   6.036   8.229   1.235
22342WAT     H267269   5.953   8.126   1.329
22343WAT      O67270   3.565   2.799   5.595
22343WAT     H167271   3.511   2.715   5.600
22343WAT     H267272   3.513   2.875   5.634
22344WAT      O67273   2.141   7.016   8.939
22344WAT     H167274   2.045   7.010   8.968
22344WAT     H267275   2.171   7.111   8.942
22345WAT      O67276   2.843   4.422   0.210
22345WAT     H167277   2.844   4.355   0.136
22345WAT     H267278   2.845   4.374   0.298
22346WAT      O67279   3.855   1.233   3.169
22346WAT     H167280   3.847   1.221   3.268
22346WAT     H267281   3.812   1.155   3.123
22347WAT      O67282   8.154   7.471   4.552
22347WAT     H167283   8.094   7.403   4.595
22347WAT     H267284   8.126   7.483   4.457
22348WAT      O67285   0.299   0.226   6.887
22348WAT     H167286   0.342   0.278   6.813
22348WAT     H267287   0.271   0.136   6.852
22349WAT      O67288   9.581   8.824   6.624
22349WAT     H167289   9.547   8.776   6.543
22349WAT     H267290   9.595   8.759   6.699
22350WAT      O67291   5.062   6.086   3.668
22350WAT     H167292   5.112   6.172   3.660
22350WAT     H267293   5.027   6.060   3.578
22351WAT      O67294   6.376   5.731   1.624
22351WAT     H167295   6.466   5.761   1.591
22351WAT     H267296   6.378   5.724   1.723
22352WAT      O67297   3.979   1.213   2.844
22352WAT     H167298   3.883   1.185   2.839
22352WAT     H267299   4.038   1.133   2.835
22353WAT      O67300   0.460   6.534   4.034
22353WAT     H167301   0.556   6.548   4.059
22353WAT     H267302   0.409   6.620   4.047
22354WAT      O67303   3.171   8.701   2.867
22354WAT     H167304   3.169   8.607   2.833
22354WAT     H267305   3.127   8.705   2.957
22355WAT      O67306   7.121   5.960   6.699
22355WAT     H167307   7.115   6.059   6.712
22355WAT     H267308   7.216   5.930   6.713
22356WAT      O67309   6.687   5.394   9.843
22356WAT     H167310   6.681   5.494   9.851
22356WAT     H267311   6.776   5.370   9.805
22357WAT      O67312   9.465   7.913   7.843
22357WAT     H167313   9.560   7.886   7.826
22357WAT     H267314   9.417   7.922   7.756
22358WAT      O67315   0.432   2.156   0.697
22358WAT     H167316   0.503   2.097   0.733
22358WAT     H267317   0.432   2.151   0.597
22359WAT      O67318   2.316   2.218   4.657
22359WAT     H167319   2.351   2.312   4.650
22359WAT     H267320   2.339   2.181   4.748
22360WAT      O67321   2.315   7.355   9.875
22360WAT     H167322   2.317   7.263   9.838
22360WAT     H267323   2.337   7.353   9.973
22361WAT      O67324   2.804   8.628   5.327
22361WAT     H167325   2.873   8.637   5.256
22361WAT     H267326   2.736   8.701   5.317
22362WAT      O67327   6.047   3.676   2.807
22362WAT     H167328   6.043   3.776   2.812
22362WAT     H267329   6.142   3.647   2.813
22363WAT      O67330   3.654   4.553   9.895
22363WAT     H167331   3.626   4.475   9.840
22363WAT     H267332   3.636   4.637   9.844
22364WAT      O67333   9.313   3.635   4.862
22364WAT     H167334   9.370   3.689   4.801
22364WAT     H267335   9.222   3.676   4.869
22365WAT      O67336   7.483   9.084   0.109
22365WAT     H167337   7.567   9.030   0.106
22365WAT     H267338   7.407   9.029   0.076
22366WAT      O67339   3.592   4.746   2.691
22366WAT     H167340   3.600   4.654   2.730
22366WAT     H267341   3.682   4.789   2.689
22367WAT      O67342   0.748   6.631   0.871
22367WAT     H167343   0.770   6.722   0.836
22367WAT     H267344   0.773   6.625   0.967
22368WAT      O67345   5.261   9.207   3.008
22368WAT     H167346   5.222   9.290   2.968
22368WAT     H267347   5.297   9.228   3.099
22369WAT      O67348   3.401   5.308   1.562
22369WAT     H167349   3.477   5.331   1.501
22369WAT     H267350   3.434   5.244   1.632
22370WAT      O67351   2.415   2.416   2.798
22370WAT     H167352   2.324   2.455   2.811
22370WAT     H267353   2.475   2.483   2.754
22371WAT      O67354   2.917   0.845   8.380
22371WAT     H167355   2.926   0.900   8.297
22371WAT     H267356   2.855   0.890   8.444
22372WAT      O67357   6.628   7.268   6.782
22372WAT     H167358   6.665   7.257   6.690
22372WAT     H267359   6.702   7.267   6.848
22373WAT      O67360   4.038   2.953   1.788
22373WAT     H167361   3.942   2.974   1.803
22373WAT     H267362   4.072   3.008   1.711
22374WAT      O67363   9.502   2.653   1.835
22374WAT     H167364   9.421   2.711   1.846
22374WAT     H267365   9.577   2.692   1.888
22375WAT      O67366   2.457   9.306   9.644
22375WAT     H167367   2.517   9.236   9.605
22375WAT     H267368   2.480   9.395   9.605
22376WAT      O67369   5.141   9.796   8.349
22376WAT     H167370   5.110   9.809   8.443
22376WAT     H267371   5.063   9.774   8.291
22377WAT      O67372   2.048   6.047   2.884
22377WAT     H167373   2.025   5.954   2.913
22377WAT     H267374   2.137   6.047   2.839
22378WAT      O67375   3.579   7.394   2.530
22378WAT     H167376   3.662   7.339   2.534
22378WAT     H267377   3.522   7.364   2.454
22379WAT      O67378   6.150   4.150   1.123
22379WAT     H167379   6.054   4.124   1.117
22379WAT     H267380   6.204   4.093   1.062
22380WAT      O67381   4.953   4.629   9.030
22380WAT     H167382   4.996   4.635   9.120
22380WAT     H267383   5.023   4.622   8.959
22381WAT      O67384   1.853   3.028   9.011
22381WAT     H167385   1.941   2.993   8.980
22381WAT     H267386   1.857   3.128   9.020
22382WAT      O67387   5.341   9.172   9.820
22382WAT     H167388   5.347   9.101   9.891
22382WAT     H267389   5.264   9.151   9.759
22383WAT      O67390   1.146   5.438   9.639
22383WAT     H167391   1.101   5.498   9.573
22383WAT     H267392   1.123   5.343   9.619
22384WAT      O67393   6.534   0.894   4.483
22384WAT     H167394   6.613   0.955   4.490
22384WAT     H267395   6.565   0.804   4.451
22385WAT      O67396   3.027   6.521   5.608
22385WAT     H167397   2.989   6.485   5.523
22385WAT     H267398   3.016   6.453   5.681
22386WAT      O67399   4.836   9.806   6.044
22386WAT     H167400   4.773   9.786   6.118
22386WAT     H267401   4.890   9.724   6.023
22387WAT      O67402   3.305   7.491   6.700
22387WAT     H167403   3.333   7.465   6.607
22387WAT     H267404   3.290   7.590   6.703
22388WAT      O67405   9.391   1.155   4.741
22388WAT     H167406   9.333   1.204   4.676
22388WAT     H267407   9.487   1.177   4.723
22389WAT      O67408   7.830   9.233   6.186
22389WAT     H167409   7.920   9.190   6.190
22389WAT     H267410   7.764   9.179   6.238
22390WAT      O67411   9.640   7.315   3.451
22390WAT     H167412   9.635   7.300   3.549
22390WAT     H267413   9.548   7.330   3.414
22391WAT      O67414   6.396   6.888   9.828
22391WAT     H167415   6.356   6.842   9.908
22391WAT     H267416   6.470   6.948   9.857
22392WAT      O67417   1.710   4.374   6.515
22392WAT     H167418   1.692   4.296   6.455
22392WAT     H267419   1.635   4.440   6.508
22393WAT      O67420   8.113   4.994   1.662
22393WAT     H167421   8.045   5.016   1.592
22393WAT     H267422   8.069   4.942   1.735
22394WAT      O67423   5.426   1.927   0.652
22394WAT     H167424   5.497   1.946   0.720
22394WAT     H267425   5.374   1.846   0.680
22395WAT      O67426   3.938   1.582   2.676
22395WAT     H167427   3.928   1.531   2.761
22395WAT     H267428   3.998   1.660   2.691
22396WAT      O67429   2.853   7.752   3.130
22396WAT     H167430   2.867   7.696   3.212
22396WAT     H267431   2.847   7.848   3.155
22397WAT      O67432   2.256   4.160   9.710
22397WAT     H167433   2.336   4.178   9.654
22397WAT     H267434   2.262   4.214   9.795
22398WAT      O67435   3.054   0.218   1.448
22398WAT     H167436   3.007   0.285   1.391
22398WAT     H267437   2.987   0.162   1.497
22399WAT      O67438   9.062   5.909   1.619
22399WAT     H167439   9.080   5.821   1.576
22399WAT     H267440   9.148   5.954   1.640
22400WAT      O67441   1.502   0.584   7.021
22400WAT     H167442   1.568   0.649   7.059
22400WAT     H267443   1.479   0.611   6.927
22401WAT      O67444   7.193   7.742   9.136
22401WAT     H167445   7.283   7.701   9.120
22401WAT     H267446   7.194   7.837   9.106
22402WAT      O67447   0.219   5.175   3.428
22402WAT     H167448   0.264   5.260   3.401
22402WAT     H267449   0.282   5.099   3.418
22403WAT      O67450   8.861   8.323   8.003
22403WAT     H167451   8.948   8.280   7.982
22403WAT     H267452   8.786   8.273   7.959
22404WAT      O67453   0.107   9.687   1.098
22404WAT     H167454   0.194   9.733   1.118
22404WAT     H267455   0.102   9.665   1.001
22405WAT      O67456   0.903   9.196   3.393
22405WAT     H167457   0.927   9.276   3.339
22405WAT     H267458   0.977   9.176   3.457
22406WAT      O67459   0.010   6.896   9.576
22406WAT     H167460   0.093   6.937   9.615
22406WAT     H267461   0.013   6.796   9.589
22407WAT      O67462   7.326   3.374   7.146
22407WAT     H167463   7.250   3.386   7.209
22407WAT     H267464   7.412   3.381   7.196
22408WAT      O67465   0.960   3.989   1.163
22408WAT     H167466   0.922   3.952   1.248
22408WAT     H267467   1.052   3.952   1.149
22409WAT      O67468   4.784   7.575   9.541
22409WAT     H167469   4.814   7.480   9.547
22409WAT     H267470   4.863   7.635   9.527
22410WAT      O67471   5.184   9.836   0.034
22410WAT     H167472   5.237   9.788   0.104
22410WAT     H267473   5.169   9.775  -0.043
22411WAT      O67474   1.055   5.006   5.449
22411WAT     H167475   0.980   5.006   5.515
22411WAT     H267476   1.029   4.951   5.370
22412WAT      O67477   8.178   5.124   2.003
22412WAT     H167478   8.158   5.109   2.100
22412WAT     H267479   8.232   5.208   1.993
22413WAT      O67480   7.771   0.690   2.669
22413WAT     H167481   7.722   0.694   2.583
22413WAT     H267482   7.849   0.628   2.661
22414WAT      O67483   3.552   9.730   9.173
22414WAT     H167484   3.481   9.794   9.200
22414WAT     H267485   3.611   9.709   9.251
22415WAT      O67486   8.912   4.536   9.753
22415WAT     H167487   8.935   4.571   9.844
22415WAT     H267488   8.848   4.599   9.708
22416WAT      O67489   2.584   6.580   5.170
22416WAT     H167490   2.490   6.581   5.135
22416WAT     H267491   2.627   6.493   5.147
22417WAT      O67492   0.108   5.528   8.924
22417WAT     H167493   0.016   5.515   8.888
22417WAT     H267494   0.139   5.621   8.906
22418WAT      O67495   4.331   6.329   6.535
22418WAT     H167496   4.326   6.252   6.599
22418WAT     H267497   4.385   6.403   6.576
22419WAT      O67498   2.892   6.911   8.272
22419WAT     H167499   2.889   6.950   8.180
22419WAT     H267500   2.798   6.892   8.303
22420WAT      O67501   1.317   2.562   0.473
22420WAT     H167502   1.312   2.463   0.474
22420WAT     H267503   1.410   2.592   0.451
22421WAT      O67504   7.678   9.630   0.077
22421WAT     H167505   7.626   9.545   0.069
22421WAT     H267506   7.771   9.610   0.107
22422WAT      O67507   2.260   9.312   0.370
22422WAT     H167508   2.352   9.281   0.390
22422WAT     H267509   2.194   9.241   0.395
22423WAT      O67510   2.402   7.085   9.674
22423WAT     H167511   2.499   7.104   9.666
22423WAT     H267512   2.353   7.129   9.599
22424WAT      O67513   0.896   8.659   6.172
22424WAT     H167514   0.809   8.665   6.221
22424WAT     H267515   0.879   8.637   6.076
22425WAT      O67516   1.230   8.664   2.799
22425WAT     H167517   1.328   8.644   2.808
22425WAT     H267518   1.178   8.581   2.818
22426WAT      O67519   5.818   3.910   5.671
22426WAT     H167520   5.898   3.853   5.655
22426WAT     H267521   5.827   3.996   5.621
22427WAT      O67522   7.080   6.675   4.023
22427WAT     H167523   7.073   6.692   4.121
22427WAT     H267524   7.144   6.601   4.006
22428WAT      O67525   7.471   7.264   7.251
22428WAT     H167526   7.526   7.200   7.197
22428WAT     H267527   7.528   7.307   7.321
22429WAT      O67528   9.193   9.304   8.461
22429WAT     H167529   9.133   9.258   8.527
22429WAT     H267530   9.246   9.374   8.507
22430WAT      O67531   1.387   8.393   7.701
22430WAT     H167532   1.420   8.362   7.611
22430WAT     H267533   1.380   8.314   7.762
22431WAT      O67534   1.074   6.504   4.136
22431WAT     H167535   1.051   6.600   4.115
22431WAT     H267536   1.004   6.467   4.198
22432WAT      O67537   0.316   9.710   8.096
22432WAT     H167538   0.396   9.732   8.152
22432WAT     H267539   0.257   9.790   8.090
22433WAT      O67540   4.052   7.018   1.047
22433WAT     H167541   4.025   7.095   1.105
22433WAT     H267542   4.006   7.025   0.958
22434WAT      O67543   9.801   6.492   8.563
22434WAT     H167544   9.712   6.526   8.535
22434WAT     H267545   9.850   6.456   8.484
22435WAT      O67546   8.718   8.320   9.293
22435WAT     H167547   8.650   8.388   9.268
22435WAT     H267548   8.688   8.229   9.264
22436WAT      O67549   6.666   6.017   9.654
22436WAT     H167550   6.647   6.088   9.587
22436WAT     H267551   6.740   5.958   9.622
22437WAT      O67552   0.069   7.276   8.862
22437WAT     H167553   0.016   7.262   8.779
22437WAT     H267554   0.034   7.214   8.934
22438WAT      O67555   8.864   4.751   8.062
22438WAT     H167556   8.775   4.727   8.101
22438WAT     H267557   8.888   4.845   8.089
22439WAT      O67558   1.195   8.474   1.348
22439WAT     H167559   1.266   8.405   1.359
22439WAT     H267560   1.124   8.460   1.416
22440WAT      O67561   4.007   0.215   1.226
22440WAT     H167562   4.007   0.145   1.154
22440WAT     H267563   3.924   0.207   1.281
22441WAT      O67564   4.964   5.930   2.755
22441WAT     H167565   5.020   5.863   2.706
22441WAT     H267566   4.911   5.883   2.826
22442WAT      O67567   9.288   9.327   5.441
22442WAT     H167568   9.341   9.334   5.525
22442WAT     H267569   9.196   9.362   5.457
22443WAT      O67570   8.264   7.088   6.311
22443WAT     H167571   8.211   7.170   6.330
22443WAT     H267572   8.245   7.058   6.217
22444WAT      O67573   3.923   5.912   3.993
22444WAT     H167574   3.907   5.869   4.082
22444WAT     H267575   3.970   5.847   3.932
22445WAT      O67576   1.564   4.112   6.088
22445WAT     H167577   1.517   4.151   6.167
22445WAT     H267578   1.632   4.177   6.054
22446WAT      O67579   3.791   9.456   6.273
22446WAT     H167580   3.804   9.374   6.329
22446WAT     H267581   3.740   9.432   6.191
22447WAT      O67582   5.486   6.668   9.666
22447WAT     H167583   5.568   6.666   9.723
22447WAT     H267584   5.444   6.577   9.664
22448WAT      O67585   8.743   5.753   5.815
22448WAT     H167586   8.726   5.750   5.913
22448WAT     H267587   8.656   5.765   5.767
22449WAT      O67588   3.034   0.670   3.278
22449WAT     H167589   2.972   0.746   3.257
22449WAT     H267590   3.126   0.693   3.248
22450WAT      O67591   0.510   9.694   9.000
22450WAT     H167592   0.599   9.648   9.004
22450WAT     H267593   0.495   9.727   8.906
22451WAT      O67594   0.160   0.331   7.386
22451WAT     H167595   0.082   0.340   7.323
22451WAT     H267596   0.211   0.417   7.387
22452WAT      O67597   3.981   3.852   3.833
22452WAT     H167598   3.995   3.845   3.735
22452WAT     H267599   3.990   3.761   3.874
22453WAT      O67600   9.153   3.929   0.788
22453WAT     H167601   9.241   3.956   0.827
22453WAT     H267602   9.140   3.974   0.700
22454WAT      O67603   5.956   5.363   7.032
22454WAT     H167604   6.029   5.295   7.037
22454WAT     H267605   5.869   5.321   7.057
22455WAT      O67606   4.722   8.932   7.422
22455WAT     H167607   4.723   9.016   7.368
22455WAT     H267608   4.811   8.887   7.414
22456WAT      O67609   3.200   3.151   9.630
22456WAT     H167610   3.291   3.192   9.626
22456WAT     H267611   3.208   3.054   9.654
22457WAT      O67612   1.928   5.330   5.072
22457WAT     H167613   1.919   5.381   5.157
22457WAT     H267614   1.928   5.232   5.092
22458WAT      O67615   7.766   8.890   0.381
22458WAT     H167616   7.730   8.817   0.440
22458WAT     H267617   7.865   8.896   0.394
22459WAT      O67618   3.482   3.525   1.517
22459WAT     H167619   3.436   3.613   1.502
22459WAT     H267620   3.453   3.461   1.446
22460WAT      O67621   9.109   0.086   5.205
22460WAT     H167622   9.067   0.002   5.239
22460WAT     H267623   9.045   0.162   5.214
22461WAT      O67624   2.846   3.670   9.720
22461WAT     H167625   2.901   3.695   9.800
22461WAT     H267626   2.756   3.713   9.727
22462WAT      O67627   8.912   0.164   5.465
22462WAT     H167628   8.956   0.079   5.496
22462WAT     H267629   8.825   0.175   5.513
22463WAT      O67630   0.604   1.398   0.024
22463WAT     H167631   0.562   1.478   0.068
22463WAT     H267632   0.579   1.397  -0.073
22464WAT      O67633   9.388   8.519   2.437
22464WAT     H167634   9.462   8.485   2.380
22464WAT     H267635   9.423   8.589   2.499
22465WAT      O67636   3.401   3.374   2.941
22465WAT     H167637   3.433   3.348   3.032
22465WAT     H267638   3.479   3.390   2.882
22466WAT      O67639   4.749   0.840   1.010
22466WAT     H167640   4.674   0.791   0.965
22466WAT     H267641   4.833   0.827   0.958
22467WAT      O67642   9.123   4.573   3.521
22467WAT     H167643   9.057   4.504   3.492
22467WAT     H267644   9.178   4.537   3.596
22468WAT      O67645   3.065   9.498   5.143
22468WAT     H167646   3.086   9.594   5.123
22468WAT     H267647   3.052   9.448   5.057
22469WAT      O67648   6.741   9.801   2.487
22469WAT     H167649   6.660   9.798   2.428
22469WAT     H267650   6.775   9.708   2.501
22470WAT      O67651   0.215   3.042   8.199
22470WAT     H167652   0.278   3.086   8.264
22470WAT     H267653   0.120   3.061   8.227
22471WAT      O67654   0.679   2.521   8.251
22471WAT     H167655   0.652   2.472   8.168
22471WAT     H267656   0.763   2.480   8.287
22472WAT      O67657   6.673   7.738   4.180
22472WAT     H167658   6.626   7.812   4.133
22472WAT     H267659   6.613   7.701   4.252
22473WAT      O67660   7.408   5.261   5.928
22473WAT     H167661   7.389   5.242   6.024
22473WAT     H267662   7.340   5.326   5.893
22474WAT      O67663   3.397   0.903   0.978
22474WAT     H167664   3.375   0.846   0.899
22474WAT     H267665   3.315   0.919   1.033
22475WAT      O67666   6.925   7.201   2.400
22475WAT     H167667   6.979   7.125   2.365
22475WAT     H267668   6.829   7.174   2.404
22476WAT      O67669   4.751   0.998   2.249
22476WAT     H167670   4.737   1.029   2.343
22476WAT     H267671   4.820   0.925   2.248
22477WAT      O67672   4.800   1.127   6.117
22477WAT     H167673   4.760   1.206   6.072
22477WAT     H267674   4.727   1.067   6.151
22478WAT      O67675   0.585   4.505   7.591
22478WAT     H167676   0.491   4.479   7.568
22478WAT     H267677   0.636   4.423   7.617
22479WAT      O67678   4.159   0.910   8.833
22479WAT     H167679   4.217   0.829   8.833
22479WAT     H267680   4.151   0.945   8.926
22480WAT      O67681   2.955   3.220   0.444
22480WAT     H167682   2.901   3.303   0.456
22480WAT     H267683   2.992   3.217   0.351
22481WAT      O67684   2.505   9.254   0.464
22481WAT     H167685   2.542   9.204   0.543
22481WAT     H267686   2.478   9.346   0.492
22482WAT      O67687   4.206   7.325   0.194
22482WAT     H167688   4.113   7.329   0.158
22482WAT     H267689   4.229   7.414   0.235
22483WAT      O67690   0.454   1.292   0.761
22483WAT     H167691   0.457   1.192   0.753
22483WAT     H267692   0.514   1.320   0.836
22484WAT      O67693   1.166   3.056   9.730
22484WAT     H167694   1.130   2.963   9.724
22484WAT     H267695   1.262   3.054   9.758
22485WAT      O67696   7.541   2.670   6.025
22485WAT     H167697   7.441   2.677   6.028
22485WAT     H267698   7.572   2.598   6.087
22486WAT      O67699   7.567   9.450   3.598
22486WAT     H167700   7.567   9.546   3.627
22486WAT     H267701   7.482   9.406   3.627
22487WAT      O67702   9.833   8.180   7.834
22487WAT     H167703   9.758   8.206   7.894
22487WAT     H267704   9.800   8.174   7.739
22488WAT      O67705   8.906   5.156   4.993
22488WAT     H167706   8.905   5.167   4.893
22488WAT     H267707   8.871   5.066   5.018
22489WAT      O67708   8.396   8.912   5.555
22489WAT     H167709   8.390   8.819   5.519
22489WAT     H267710   8.476   8.920   5.614
22490WAT      O67711   7.855   4.523   0.934
22490WAT     H167712   7.756   4.527   0.948
22490WAT     H267713   7.890   4.615   0.922
22491WAT      O67714   6.993   0.333   3.616
22491WAT     H167715   7.071   0.372   3.567
22491WAT     H267716   6.908   0.374   3.583
22492WAT      O67717   3.742   9.593   9.317
22492WAT     H167718   3.838   9.599   9.293
22492WAT     H267719   3.731   9.616   9.414
22493WAT      O67720   6.437   5.647   1.869
22493WAT     H167721   6.463   5.554   1.844
22493WAT     H267722   6.519   5.700   1.891
22494WAT      O67723   1.693   8.052   9.304
22494WAT     H167724   1.664   8.016   9.215
22494WAT     H267725   1.704   8.151   9.298
22495WAT      O67726   6.544   3.251   2.734
22495WAT     H167727   6.643   3.262   2.721
22495WAT     H267728   6.500   3.237   2.646
22496WAT      O67729   1.884   0.165   3.299
22496WAT     H167730   1.936   0.103   3.358
22496WAT     H267731   1.946   0.222   3.246
22497WAT      O67732   5.526   8.912   7.018
22497WAT     H167733   5.492   8.994   6.972
22497WAT     H267734   5.450   8.852   7.040
22498WAT      O67735   5.019   2.858   3.831
22498WAT     H167736   4.987   2.800   3.756
22498WAT     H267737   5.029   2.952   3.799
22499WAT      O67738   8.973   7.096   8.775
22499WAT     H167739   8.912   7.039   8.720
22499WAT     H267740   9.066   7.090   8.739
22500WAT      O67741   3.007   9.683   3.804
22500WAT     H167742   3.050   9.738   3.876
22500WAT     H267743   3.071   9.672   3.728
22501WAT      O67744   7.443   5.505   3.640
22501WAT     H167745   7.375   5.437   3.669
22501WAT     H267746   7.449   5.578   3.708
22502WAT      O67747   9.380   6.662   1.310
22502WAT     H167748   9.399   6.575   1.354
22502WAT     H267749   9.434   6.669   1.226
22503WAT      O67750   1.961   1.276   5.405
22503WAT     H167751   1.863   1.278   5.389
22503WAT     H267752   2.005   1.349   5.352
22504WAT      O67753   2.989   4.282   3.140
22504WAT     H167754   2.975   4.190   3.102
22504WAT     H267755   3.048   4.334   3.079
22505WAT      O67756   0.477   8.328   8.630
22505WAT     H167757   0.504   8.316   8.535
22505WAT     H267758   0.377   8.321   8.637
22506WAT      O67759   5.307   1.451   8.516
22506WAT     H167760   5.296   1.550   8.519
22506WAT     H267761   5.383   1.424   8.577
22507WAT      O67762   7.033   3.748   8.621
22507WAT     H167763   6.987   3.818   8.566
22507WAT     H267764   6.965   3.680   8.652
22508WAT      O67765   3.475   1.878   4.957
22508WAT     H167766   3.414   1.927   5.019
22508WAT     H267767   3.534   1.817   5.011
22509WAT      O67768   9.087   9.618   7.071
22509WAT     H167769   9.159   9.621   7.002
22509WAT     H267770   9.066   9.523   7.094
22510WAT      O67771   9.164   1.640   7.114
22510WAT     H167772   9.135   1.727   7.075
22510WAT     H267773   9.154   1.568   7.046
22511WAT      O67774   3.637   6.088   5.175
22511WAT     H167775   3.733   6.111   5.155
22511WAT     H267776   3.634   6.008   5.234
22512WAT      O67777   8.538   5.268   1.557
22512WAT     H167778   8.484   5.237   1.479
22512WAT     H267779   8.485   5.259   1.641
22513WAT      O67780   4.348   2.031   2.404
22513WAT     H167781   4.308   1.964   2.466
22513WAT     H267782   4.307   2.021   2.313
22514WAT      O67783   2.854   1.503   2.713
22514WAT     H167784   2.763   1.521   2.678
22514WAT     H267785   2.914   1.475   2.638
22515WAT      O67786   2.100   4.540   2.523
22515WAT     H167787   2.023   4.504   2.469
22515WAT     H267788   2.161   4.592   2.464
22516WAT      O67789   6.239   6.385   5.421
22516WAT     H167790   6.277   6.310   5.366
22516WAT     H267791   6.172   6.435   5.367
22517WAT      O67792   4.186   1.958   0.708
22517WAT     H167793   4.099   1.937   0.753
22517WAT     H267794   4.179   2.047   0.662
22518WAT      O67795   0.395   1.150   9.112
22518WAT     H167796   0.337   1.155   9.031
22518WAT     H267797   0.338   1.140   9.194
22519WAT      O67798   8.984   8.165   7.567
22519WAT     H167799   9.051   8.142   7.638
22519WAT     H267800   8.941   8.082   7.533
22520WAT      O67801   8.366   1.265   5.096
22520WAT     H167802   8.416   1.277   5.182
22520WAT     H267803   8.314   1.180   5.099
22521WAT      O67804   0.099   4.722   7.416
22521WAT     H167805   0.042   4.648   7.381
22521WAT     H267806   0.042   4.800   7.440
22522WAT      O67807   1.901   9.715   9.594
22522WAT     H167808   1.828   9.764   9.546
22522WAT     H267809   1.988   9.761   9.579
22523WAT      O67810   9.223   6.579   5.281
22523WAT     H167811   9.287   6.608   5.209
22523WAT     H267812   9.264   6.597   5.370
22524WAT      O67813   2.770   2.303   9.769
22524WAT     H167814   2.718   2.276   9.850
22524WAT     H267815   2.745   2.396   9.742
22525WAT      O67816   3.077   7.874   3.013
22525WAT     H167817   3.049   7.827   3.097
22525WAT     H267818   3.000   7.877   2.950
22526WAT      O67819   1.837   0.743   2.358
22526WAT     H167820   1.785   0.663   2.388
22526WAT     H267821   1.783   0.796   2.293
22527WAT      O67822   3.516   8.057   5.604
22527WAT     H167823   3.448   8.005   5.552
22527WAT     H267824   3.601   8.005   5.609
22528WAT      O67825   3.501   0.683   4.568
22528WAT     H167826   3.529   0.779   4.575
22528WAT     H267827   3.570   0.625   4.611
22529WAT      O67828   1.233   5.763   2.166
22529WAT     H167829   1.292   5.682   2.170
22529WAT     H267830   1.240   5.813   2.252
22530WAT      O67831   0.009   8.344   9.842
22530WAT     H167832   0.043   8.330   9.749
22530WAT     H267833  -0.008   8.255   9.885
22531WAT      O67834   3.153   2.333   7.749
22531WAT     H167835   3.094   2.337   7.668
22531WAT     H267836   3.205   2.418   7.756
22532WAT      O67837   2.383   9.106   1.221
22532WAT     H167838   2.382   9.194   1.174
22532WAT     H267839   2.429   9.116   1.310
22533WAT      O67840   1.404   4.790   7.421
22533WAT     H167841   1.308   4.776   7.401
22533WAT     H267842   1.460   4.750   7.349
22534WAT      O67843   6.394   3.091   7.167
22534WAT     H167844   6.317   3.113   7.107
22534WAT     H267845   6.480   3.107   7.119
22535WAT      O67846   8.422   7.090   7.012
22535WAT     H167847   8.449   7.043   6.928
22535WAT     H267848   8.410   7.023   7.085
22536WAT      O67849   7.002   5.261   4.995
22536WAT     H167850   7.061   5.186   4.965
22536WAT     H267851   7.044   5.348   4.971
22537WAT      O67852   6.143   2.225   0.324
22537WAT     H167853   6.043   2.220   0.325
22537WAT     H267854   6.174   2.242   0.230
22538WAT      O67855   8.327   7.806   7.317
22538WAT     H167856   8.260   7.803   7.392
22538WAT     H267857   8.415   7.840   7.352
22539WAT      O67858   2.389   8.895   2.882
22539WAT     H167859   2.457   8.956   2.922
22539WAT     H267860   2.333   8.945   2.816
22540WAT      O67861   1.760   3.924   2.624
22540WAT     H167862   1.807   3.865   2.690
22540WAT     H267863   1.818   3.936   2.543
22541WAT      O67864   3.766   3.010   1.799
22541WAT     H167865   3.721   3.074   1.862
22541WAT     H267866   3.757   3.043   1.705
22542WAT      O67867   4.788   3.696   6.984
22542WAT     H167868   4.773   3.709   7.082
22542WAT     H267869   4.748   3.609   6.956
22543WAT      O67870   0.504   3.009   3.516
22543WAT     H167871   0.486   3.084   3.580
22543WAT     H267872   0.425   2.997   3.456
22544WAT      O67873   2.469   0.173   4.819
22544WAT     H167874   2.371   0.195   4.819
22544WAT     H267875   2.487   0.102   4.750
22545WAT      O67876   9.359   8.597   5.134
22545WAT     H167877   9.383   8.555   5.047
22545WAT     H267878   9.406   8.685   5.143
22546WAT      O67879   7.389   5.954   6.669
22546WAT     H167880   7.387   6.028   6.601
22546WAT     H267881   7.481   5.948   6.709
22547WAT      O67882   3.199   1.512   5.788
22547WAT     H167883   3.106   1.543   5.770
22547WAT     H267884   3.242   1.571   5.857
22548WAT      O67885   8.749   7.250   6.190
22548WAT     H167886   8.679   7.295   6.246
22548WAT     H267887   8.808   7.319   6.149
22549WAT      O67888   6.511   0.644   1.410
22549WAT     H167889   6.447   0.580   1.453
22549WAT     H267890   6.588   0.660   1.472
22550WAT      O67891   0.372   1.561   3.654
22550WAT     H167892   0.453   1.619   3.654
22550WAT     H267893   0.366   1.512   3.568
22551WAT      O67894   2.362   9.842   0.247
22551WAT     H167895   2.429   9.848   0.173
22551WAT     H267896   2.406   9.863   0.334
22552WAT      O67897   8.101   0.465   6.459
22552WAT     H167898   8.072   0.389   6.516
22552WAT     H267899   8.064   0.551   6.495
22553WAT      O67900   5.627   1.775   1.484
22553WAT     H167901   5.542   1.748   1.439
22553WAT     H267902   5.607   1.829   1.565
22554WAT      O67903   4.122   1.284   3.957
22554WAT     H167904   4.184   1.213   3.923
22554WAT     H267905   4.112   1.356   3.889
22555WAT      O67906   2.179   1.408   4.880
22555WAT     H167907   2.277   1.419   4.859
22555WAT     H267908   2.142   1.495   4.912
22556WAT      O67909   4.562   7.579   7.031
22556WAT     H167910   4.594   7.658   7.084
22556WAT     H267911   4.500   7.610   6.960
22557WAT      O67912   3.280   2.728   1.541
22557WAT     H167913   3.298   2.715   1.443
22557WAT     H267914   3.187   2.763   1.553
22558WAT      O67915   5.360   8.944   4.657
22558WAT     H167916   5.390   8.963   4.750
22558WAT     H267917   5.300   8.864   4.657
22559WAT      O67918   8.860   7.791   1.937
22559WAT     H167919   8.833   7.884   1.960
22559WAT     H267920   8.859   7.780   1.837
22560WAT      O67921   3.123   3.639   8.744
22560WAT     H167922   3.167   3.628   8.655
22560WAT     H267923   3.167   3.712   8.795
22561WAT      O67924   4.127   2.082   5.178
22561WAT     H167925   4.139   2.069   5.276
22561WAT     H267926   4.159   2.174   5.153
22562WAT      O67927   2.898   0.714   7.710
22562WAT     H167928   2.901   0.617   7.733
22562WAT     H267929   2.966   0.733   7.639
22563WAT      O67930   3.945   5.600   6.220
22563WAT     H167931   3.892   5.524   6.181
22563WAT     H267932   3.993   5.648   6.146
22564WAT      O67933   3.464   9.175   3.773
22564WAT     H167934   3.449   9.222   3.860
22564WAT     H267935   3.434   9.235   3.698
22565WAT      O67936   8.728   9.134   0.921
22565WAT     H167937   8.799   9.102   0.984
22565WAT     H267938   8.652   9.171   0.974
22566WAT      O67939   6.527   0.292   5.989
22566WAT     H167940   6.461   0.313   5.916
22566WAT     H267941   6.515   0.357   6.064
22567WAT      O67942   5.293   2.058   7.644
22567WAT     H167943   5.250   2.104   7.722
22567WAT     H267944   5.334   1.972   7.674
22568WAT      O67945   6.625   2.669   3.680
22568WAT     H167946   6.715   2.629   3.697
22568WAT     H267947   6.635   2.762   3.645
22569WAT      O67948   0.663   0.203   1.774
22569WAT     H167949   0.661   0.229   1.871
22569WAT     H267950   0.651   0.104   1.765
22570WAT      O67951   1.668   1.217   5.489
22570WAT     H167952   1.574   1.183   5.484
22570WAT     H267953   1.725   1.153   5.540
22571WAT      O67954   4.619   3.830   0.144
22571WAT     H167955   4.632   3.738   0.181
22571WAT     H267956   4.523   3.856   0.152
22572WAT      O67957   5.194   2.806   1.935
22572WAT     H167958   5.104   2.763   1.944
22572WAT     H267959   5.223   2.804   1.840
22573WAT      O67960   5.330   5.991   1.970
22573WAT     H167961   5.268   5.950   1.903
22573WAT     H267962   5.379   5.918   2.018
22574WAT      O67963   5.130   7.699   0.163
22574WAT     H167964   5.092   7.699   0.256
22574WAT     H267965   5.075   7.759   0.105
22575WAT      O67966   7.787   1.439   2.241
22575WAT     H167967   7.724   1.362   2.230
22575WAT     H267968   7.843   1.450   2.159
22576WAT      O67969   4.695   6.795   8.209
22576WAT     H167970   4.670   6.705   8.172
22576WAT     H267971   4.621   6.829   8.267
22577WAT      O67972   7.502   5.948   2.459
22577WAT     H167973   7.434   5.949   2.533
22577WAT     H267974   7.520   6.041   2.429
22578WAT      O67975   9.357   8.000   9.198
22578WAT     H167976   9.403   8.030   9.115
22578WAT     H267977   9.310   7.914   9.180
22579WAT      O67978   1.857   2.465   6.895
22579WAT     H167979   1.917   2.394   6.930
22579WAT     H267980   1.879   2.484   6.800
22580WAT      O67981   5.849   7.536   3.472
22580WAT     H167982   5.901   7.520   3.556
22580WAT     H267983   5.766   7.586   3.493
22581WAT      O67984   1.019   1.516   5.667
22581WAT     H167985   1.041   1.603   5.622
22581WAT     H267986   0.947   1.530   5.734
22582WAT      O67987   7.413   0.170   6.393
22582WAT     H167988   7.342   0.137   6.455
22582WAT     H267989   7.455   0.253   6.432
22583WAT      O67990   0.826   8.851   1.723
22583WAT     H167991   0.738   8.805   1.739
22583WAT     H267992   0.863   8.883   1.810
22584WAT      O67993   0.013   4.421   2.287
22584WAT     H167994   0.093   4.392   2.339
22584WAT     H267995  -0.063   4.438   2.349
22585WAT      O67996   8.364   8.046   6.658
22585WAT     H167997   8.286   7.989   6.688
22585WAT     H267998   8.329   8.129   6.616
22586WAT      O67999   0.335   9.229   7.426
22586WAT     H168000   0.359   9.299   7.493
22586WAT     H268001   0.339   9.139   7.469
22587WAT      O68002   1.068   4.923   7.455
22587WAT     H168003   1.116   4.980   7.522
22587WAT     H268004   0.987   4.971   7.423
22588WAT      O68005   8.577   7.484   3.671
22588WAT     H168006   8.583   7.388   3.699
22588WAT     H268007   8.590   7.544   3.750
22589WAT      O68008   0.415   1.482   5.107
22589WAT     H168009   0.396   1.428   5.025
22589WAT     H268010   0.503   1.454   5.145
22590WAT      O68011   1.239   9.607   5.862
22590WAT     H168012   1.318   9.551   5.890
22590WAT     H268013   1.196   9.565   5.782
22591WAT      O68014   7.612   9.698   0.477
22591WAT     H168015   7.535   9.696   0.541
22591WAT     H268016   7.604   9.622   0.413
22592WAT      O68017   0.034   0.808   7.198
22592WAT     H168018  -0.059   0.824   7.166
22592WAT     H268019   0.074   0.732   7.145
22593WAT      O68020   3.524   1.257   6.599
22593WAT     H168021   3.574   1.322   6.541
22593WAT     H268022   3.477   1.191   6.541
22594WAT      O68023   4.151   9.330   5.718
22594WAT     H168024   4.201   9.285   5.645
22594WAT     H268025   4.186   9.298   5.806
22595WAT      O68026   1.462   1.763   8.652
22595WAT     H168027   1.534   1.816   8.608
22595WAT     H268028   1.439   1.685   8.594
22596WAT      O68029   8.368   9.301   1.326
22596WAT     H168030   8.295   9.242   1.292
22596WAT     H268031   8.391   9.369   1.256
22597WAT      O68032   8.008   1.752   4.049
22597WAT     H168033   7.962   1.769   4.136
22597WAT     H268034   7.940   1.744   3.976
22598WAT      O68035   2.816   5.516   6.409
22598WAT     H168036   2.909   5.481   6.396
22598WAT     H268037   2.801   5.534   6.506
22599WAT      O68038   8.242   3.474   9.334
22599WAT     H168039   8.197   3.463   9.245
22599WAT     H268040   8.237   3.570   9.362
22600WAT      O68041   9.058   5.612   4.911
22600WAT     H168042   9.117   5.572   4.981
22600WAT     H268043   9.080   5.573   4.822
22601WAT      O68044   2.188   0.081   7.904
22601WAT     H168045   2.183  -0.008   7.949
22601WAT     H268046   2.161   0.152   7.969
22602WAT      O68047   9.430   1.871   0.346
22602WAT     H168048   9.342   1.877   0.298
22602WAT     H268049   9.425   1.923   0.431
22603WAT      O68050   7.067   3.473   7.944
22603WAT     H168051   6.976   3.486   7.905
22603WAT     H268052   7.104   3.384   7.915
22604WAT      O68053   5.691   0.086   3.738
22604WAT     H168054   5.769   0.127   3.690
22604WAT     H268055   5.625   0.052   3.671
22605WAT      O68056   2.302   6.711   9.304
22605WAT     H168057   2.332   6.616   9.292
22605WAT     H268058   2.216   6.724   9.254
22606WAT      O68059   1.973   1.137   8.650
22606WAT     H168060   1.957   1.139   8.749
22606WAT     H268061   2.070   1.119   8.632
22607WAT      O68062   5.468   0.805   2.857
22607WAT     H168063   5.494   0.827   2.952
22607WAT     H268064   5.474   0.888   2.801
22608WAT      O68065   6.823   6.650   8.284
22608WAT     H168066   6.896   6.631   8.350
22608WAT     H268067   6.787   6.563   8.249
22609WAT      O68068   3.377   3.712   6.215
22609WAT     H168069   3.465   3.691   6.259
22609WAT     H268070   3.358   3.809   6.223
22610WAT      O68071   5.019   7.647   9.455
22610WAT     H168072   5.075   7.574   9.496
22610WAT     H268073   5.078   7.725   9.432
22611WAT      O68074   4.021   1.062   6.018
22611WAT     H168075   3.953   0.994   5.990
22611WAT     H268076   4.094   1.067   5.950
22612WAT      O68077   6.274   1.116   6.491
22612WAT     H168078   6.237   1.023   6.501
22612WAT     H268079   6.211   1.170   6.435
22613WAT      O68080   7.206   1.248   0.919
22613WAT     H168081   7.117   1.293   0.929
22613WAT     H268082   7.251   1.281   0.836
22614WAT      O68083   0.368   2.854   6.990
22614WAT     H168084   0.345   2.946   6.960
22614WAT     H268085   0.380   2.853   7.089
22615WAT      O68086   7.996   1.622   7.737
22615WAT     H168087   7.951   1.662   7.657
22615WAT     H268088   8.095   1.636   7.730
22616WAT      O68089   2.325   4.264   6.072
22616WAT     H168090   2.254   4.320   6.030
22616WAT     H268091   2.350   4.189   6.011
22617WAT      O68092   7.976   2.183   3.417
22617WAT     H168093   8.009   2.277   3.423
22617WAT     H268094   7.884   2.182   3.376
22618WAT      O68095   0.534   4.064   5.472
22618WAT     H168096   0.617   4.102   5.430
22618WAT     H268097   0.454   4.098   5.423
22619WAT      O68098   1.397   6.944   5.656
22619WAT     H168099   1.389   7.016   5.587
22619WAT     H268100   1.486   6.899   5.647
22620WAT      O68101   9.189   7.908   1.410
22620WAT     H168102   9.128   7.946   1.480
22620WAT     H268103   9.149   7.823   1.374
22621WAT      O68104   6.082   4.069   9.439
22621WAT     H168105   6.075   4.068   9.339
22621WAT     H268106   6.176   4.090   9.466
22622WAT      O68107   0.366   5.181   9.305
22622WAT     H168108   0.413   5.220   9.226
22622WAT     H268109   0.385   5.236   9.386
22623WAT      O68110   4.758   6.282   7.141
22623WAT     H168111   4.829   6.246   7.081
22623WAT     H268112   4.671   6.238   7.120
22624WAT      O68113   6.624   5.669   9.596
22624WAT     H168114   6.635   5.664   9.695
22624WAT     H268115   6.704   5.714   9.556
22625WAT      O68116   2.489   2.477   6.462
22625WAT     H168117   2.509   2.396   6.408
22625WAT     H268118   2.404   2.464   6.512
22626WAT      O68119   2.327   5.780   0.039
22626WAT     H168120   2.279   5.772  -0.048
22626WAT     H268121   2.270   5.743   0.113
22627WAT      O68122   0.009   5.499   5.536
22627WAT     H168123  -0.021   5.518   5.630
22627WAT     H268124   0.096   5.449   5.539
22628WAT      O68125   9.160   8.097   8.175
22628WAT     H168126   9.188   8.021   8.116
22628WAT     H268127   9.181   8.074   8.270
22629WAT      O68128   2.344   3.496   0.261
22629WAT     H168129   2.319   3.416   0.315
22629WAT     H268130   2.314   3.484   0.166
22630WAT      O68131   8.076   0.255   6.660
22630WAT     H168132   8.165   0.241   6.703
22630WAT     H268133   8.003   0.236   6.726
22631WAT      O68134   8.336   0.954   5.398
22631WAT     H168135   8.402   1.009   5.448
22631WAT     H268136   8.290   0.891   5.461
22632WAT      O68137   7.536   4.968   9.166
22632WAT     H168138   7.623   4.967   9.215
22632WAT     H268139   7.483   4.886   9.189
22633WAT      O68140   8.574   7.898   5.773
22633WAT     H168141   8.600   7.865   5.683
22633WAT     H268142   8.635   7.859   5.842
22634WAT      O68143   2.936   2.084   6.189
22634WAT     H168144   2.884   2.070   6.104
22634WAT     H268145   2.997   2.163   6.178
22635WAT      O68146   3.798   9.617   8.561
22635WAT     H168147   3.824   9.523   8.539
22635WAT     H268148   3.870   9.679   8.530
22636WAT      O68149   8.782   5.820   8.018
22636WAT     H168150   8.793   5.851   7.923
22636WAT     H268151   8.866   5.776   8.049
22637WAT      O68152   0.529   3.943   6.746
22637WAT     H168153   0.444   3.891   6.754
22637WAT     H268154   0.607   3.881   6.740
22638WAT      O68155   6.437   2.263   8.950
22638WAT     H168156   6.506   2.332   8.969
22638WAT     H268157   6.480   2.173   8.942
22639WAT      O68158   3.966   1.759   0.412
22639WAT     H168159   3.927   1.717   0.331
22639WAT     H268160   4.052   1.804   0.389
22640WAT      O68161   3.868   9.033   4.643
22640WAT     H168162   3.793   9.048   4.708
22640WAT     H268163   3.851   8.948   4.593
22641WAT      O68164   5.216   2.735   2.356
22641WAT     H168165   5.256   2.693   2.437
22641WAT     H268166   5.284   2.790   2.309
22642WAT      O68167   9.178   6.214   8.501
22642WAT     H168168   9.152   6.118   8.507
22642WAT     H268169   9.234   6.238   8.580
22643WAT      O68170   0.576   6.844   0.028
22643WAT     H168171   0.627   6.876   0.108
22643WAT     H268172   0.478   6.852   0.046
22644WAT      O68173   4.879   4.801   2.446
22644WAT     H168174   4.810   4.863   2.483
22644WAT     H268175   4.833   4.723   2.402
22645WAT      O68176   6.964   1.471   3.174
22645WAT     H168177   6.915   1.443   3.256
22645WAT     H268178   6.988   1.568   3.180
22646WAT      O68179   5.855   3.191   3.611
22646WAT     H168180   5.851   3.182   3.711
22646WAT     H268181   5.866   3.287   3.587
22647WAT      O68182   9.012   9.230   3.754
22647WAT     H168183   8.928   9.191   3.790
22647WAT     H268184   9.090   9.197   3.807
22648WAT      O68185   8.968   5.693   2.922
22648WAT     H168186   8.919   5.636   2.989
22648WAT     H268187   8.925   5.783   2.917
22649WAT      O68188   8.966   0.325   5.273
22649WAT     H168189   8.934   0.268   5.349
22649WAT     H268190   9.033   0.390   5.307
22650WAT      O68191   4.624   7.238   8.876
22650WAT     H168192   4.587   7.146   8.864
22650WAT     H268193   4.578   7.301   8.813
22651WAT      O68194   7.383   9.844   0.295
22651WAT     H168195   7.433   9.758   0.308
22651WAT     H268196   7.300   9.826   0.242
22652WAT      O68197   4.030   4.210   4.365
22652WAT     H168198   4.074   4.259   4.290
22652WAT     H268199   4.044   4.112   4.354
22653WAT      O68200   5.768   0.967   0.241
22653WAT     H168201   5.705   1.045   0.236
22653WAT     H268202   5.850   0.994   0.292
22654WAT      O68203   1.294   0.162   8.091
22654WAT     H168204   1.221   0.120   8.038
22654WAT     H268205   1.301   0.118   8.180
22655WAT      O68206   5.794   4.149   8.003
22655WAT     H168207   5.710   4.195   8.030
22655WAT     H268208   5.842   4.204   7.935
22656WAT      O68209   0.242   5.353   5.581
22656WAT     H168210   0.311   5.385   5.645
22656WAT     H268211   0.281   5.352   5.488
22657WAT      O68212   6.583   4.423   1.886
22657WAT     H168213   6.656   4.365   1.922
22657WAT     H268214   6.624   4.501   1.839
22658WAT      O68215   6.421   3.013   1.178
22658WAT     H168216   6.476   3.039   1.258
22658WAT     H268217   6.360   2.938   1.203
22659WAT      O68218   6.498   7.908   8.585
22659WAT     H168219   6.549   7.872   8.663
22659WAT     H268220   6.560   7.926   8.509
22660WAT      O68221   4.325   0.900   9.092
22660WAT     H168222   4.313   0.994   9.062
22660WAT     H268223   4.264   0.881   9.169
22661WAT      O68224   1.843   1.609   4.320
22661WAT     H168225   1.877   1.685   4.263
22661WAT     H268226   1.918   1.546   4.340
22662WAT      O68227   8.527   1.068   5.572
22662WAT     H168228   8.581   1.150   5.592
22662WAT     H268229   8.585   0.987   5.579
22663WAT      O68230   1.462   4.741   1.577
22663WAT     H168231   1.442   4.646   1.552
22663WAT     H268232   1.549   4.745   1.627
22664WAT      O68233   0.382   7.499   1.572
22664WAT     H168234   0.327   7.508   1.489
22664WAT     H268235   0.333   7.443   1.638
22665WAT      O68236   2.780   0.263   4.306
22665WAT     H168237   2.851   0.316   4.260
22665WAT     H268238   2.785   0.279   4.405
22666WAT      O68239   9.372   2.923   1.170
22666WAT     H168240   9.352   2.831   1.202
22666WAT     H268241   9.358   2.928   1.071
22667WAT      O68242   6.141   6.940   9.689
22667WAT     H168243   6.129   6.907   9.596
22667WAT     H268244   6.226   6.904   9.727
22668WAT      O68245   4.330   4.497   6.692
22668WAT     H168246   4.426   4.509   6.717
22668WAT     H268247   4.286   4.586   6.686
22669WAT      O68248   0.661   5.232   8.634
22669WAT     H168249   0.563   5.251   8.635
22669WAT     H268250   0.694   5.229   8.539
22670WAT      O68251   7.285   2.304   2.384
22670WAT     H168252   7.210   2.328   2.445
22670WAT     H268253   7.269   2.212   2.346
22671WAT      O68254   3.182   7.998   9.087
22671WAT     H168255   3.276   7.973   9.061
22671WAT     H268256   3.133   7.916   9.117
22672WAT      O68257   2.033   6.361   7.278
22672WAT     H168258   2.047   6.285   7.215
22672WAT     H268259   1.934   6.377   7.289
22673WAT      O68260   4.807   6.964   0.388
22673WAT     H168261   4.836   6.882   0.437
22673WAT     H268262   4.839   7.045   0.437
22674WAT      O68263   1.577   2.513   0.708
22674WAT     H168264   1.500   2.450   0.718
22674WAT     H268265   1.580   2.547   0.615
22675WAT      O68266   5.020   1.226   3.698
22675WAT     H168267   4.975   1.285   3.764
22675WAT     H268268   5.076   1.159   3.746
22676WAT      O68269   8.055   0.708   2.129
22676WAT     H168270   8.112   0.776   2.174
22676WAT     H268271   7.990   0.670   2.195
22677WAT      O68272   0.711   7.194   4.830
22677WAT     H168273   0.790   7.231   4.880
22677WAT     H268274   0.741   7.118   4.772
22678WAT      O68275   8.220   4.383   4.528
22678WAT     H168276   8.141   4.333   4.562
22678WAT     H268277   8.224   4.473   4.572
22679WAT      O68278   8.718   6.103   4.659
22679WAT     H168279   8.770   6.023   4.688
22679WAT     H268280   8.630   6.074   4.623
22680WAT      O68281   1.788   0.498   0.246
22680WAT     H168282   1.809   0.462   0.155
22680WAT     H268283   1.862   0.474   0.309
22681WAT      O68284   1.644   3.105   6.678
22681WAT     H168285   1.628   3.025   6.736
22681WAT     H268286   1.581   3.178   6.703
22682WAT      O68287   8.178   1.915   0.022
22682WAT     H168288   8.244   1.940   0.092
22682WAT     H268289   8.205   1.829  -0.021
22683WAT      O68290   7.100   9.667   0.743
22683WAT     H168291   7.050   9.657   0.829
22683WAT     H268292   7.046   9.722   0.680
22684WAT      O68293   8.031   2.519   9.092
22684WAT     H168294   8.081   2.484   9.171
22684WAT     H268295   7.949   2.462   9.078
22685WAT      O68296   2.306   5.459   3.473
22685WAT     H168297   2.231   5.411   3.427
22685WAT     H268298   2.299   5.557   3.453
22686WAT      O68299   5.850   0.136   5.631
22686WAT     H168300   5.880   0.114   5.724
22686WAT     H268301   5.910   0.091   5.565
22687WAT      O68302   9.079   5.804   7.976
22687WAT     H168303   9.067   5.873   8.047
22687WAT     H268304   9.172   5.808   7.941
22688WAT      O68305   3.045   4.010   7.010
22688WAT     H168306   3.015   3.930   7.062
22688WAT     H268307   2.971   4.077   7.006
22689WAT      O68308   7.904   9.704   7.334
22689WAT     H168309   7.830   9.762   7.301
22689WAT     H268310   7.932   9.640   7.262
22690WAT      O68311   1.039   8.230   0.895
22690WAT     H168312   0.966   8.297   0.898
22690WAT     H268313   1.048   8.185   0.984
22691WAT      O68314   6.700   0.459   2.901
22691WAT     H168315   6.785   0.465   2.953
22691WAT     H268316   6.633   0.407   2.953
22692WAT      O68317   3.644   0.281   4.829
22692WAT     H168318   3.597   0.195   4.844
22692WAT     H268319   3.685   0.313   4.915
22693WAT      O68320   5.605   9.837   5.799
22693WAT     H168321   5.647   9.880   5.719
22693WAT     H268322   5.506   9.834   5.786
22694WAT      O68323   8.569   5.026   5.044
22694WAT     H168324   8.530   5.066   5.127
22694WAT     H268325   8.652   4.975   5.066
22695WAT      O68326   3.957   0.980   8.682
22695WAT     H168327   3.920   1.062   8.726
22695WAT     H268328   4.034   0.946   8.735
22696WAT      O68329   0.805   3.061   2.902
22696WAT     H168330   0.840   3.032   2.813
22696WAT     H268331   0.880   3.097   2.957
22697WAT      O68332   8.149   9.270   0.483
22697WAT     H168333   8.138   9.207   0.406
22697WAT     H268334   8.136   9.364   0.450
22698WAT      O68335   9.132   0.394   9.477
22698WAT     H168336   9.100   0.396   9.383
22698WAT     H268337   9.065   0.437   9.537
22699WAT      O68338   9.118   7.461   5.239
22699WAT     H168339   9.052   7.387   5.256
22699WAT     H268340   9.103   7.534   5.306
22700WAT      O68341   0.687   4.855   2.453
22700WAT     H168342   0.675   4.786   2.524
22700WAT     H268343   0.775   4.840   2.407
22701WAT      O68344   8.464   1.541   9.703
22701WAT     H168345   8.542   1.566   9.645
22701WAT     H268346   8.497   1.499   9.787
22702WAT      O68347   2.233   8.247   7.497
22702WAT     H168348   2.328   8.223   7.518
22702WAT     H268349   2.231   8.328   7.439
22703WAT      O68350   2.451   9.496   1.579
22703WAT     H168351   2.501   9.519   1.495
22703WAT     H268352   2.394   9.574   1.606
22704WAT      O68353   6.090   0.571   9.735
22704WAT     H168354   6.183   0.583   9.699
22704WAT     H268355   6.090   0.592   9.833
22705WAT      O68356   5.374   9.634   5.117
22705WAT     H168357   5.289   9.658   5.070
22705WAT     H268358   5.408   9.714   5.167
22706WAT      O68359   4.743   5.791   7.818
22706WAT     H168360   4.836   5.827   7.828
22706WAT     H268361   4.698   5.793   7.907
22707WAT      O68362   3.051   9.157   8.963
22707WAT     H168363   3.126   9.184   9.023
22707WAT     H268364   2.964   9.181   9.007
22708WAT      O68365   1.530   3.718   4.824
22708WAT     H168366   1.434   3.707   4.853
22708WAT     H268367   1.583   3.755   4.900
22709WAT      O68368   1.355   7.055   3.028
22709WAT     H168369   1.303   6.998   3.092
22709WAT     H268370   1.352   7.014   2.937
22710WAT      O68371   3.343   9.314   6.036
22710WAT     H168372   3.302   9.380   6.099
22710WAT     H268373   3.331   9.221   6.073
22711WAT      O68374   8.894   1.177   4.711
22711WAT     H168375   8.828   1.251   4.726
22711WAT     H268376   8.954   1.200   4.635
22712WAT      O68377   9.250   0.102   9.696
22712WAT     H168378   9.152   0.119   9.704
22712WAT     H268379   9.301   0.185   9.720
22713WAT      O68380   4.033   7.147   9.043
22713WAT     H168381   3.947   7.099   9.027
22713WAT     H268382   4.035   7.230   8.988
22714WAT      O68383   9.083   5.378   2.142
22714WAT     H168384   9.112   5.286   2.115
22714WAT     H268385   8.984   5.380   2.151
22715WAT      O68386   0.043   0.417   3.231
22715WAT     H168387   0.109   0.490   3.246
22715WAT     H268388  -0.037   0.453   3.183
22716WAT      O68389   7.003   4.816   5.909
22716WAT     H168390   6.907   4.793   5.895
22716WAT     H268391   7.012   4.877   5.987
22717WAT      O68392   8.315   3.176   3.087
22717WAT     H168393   8.372   3.257   3.094
22717WAT     H268394   8.253   3.172   3.166
22718WAT      O68395   2.850   3.775   9.012
22718WAT     H168396   2.799   3.747   9.094
22718WAT     H268397   2.852   3.698   8.947
22719WAT      O68398   6.322   8.852   3.935
22719WAT     H168399   6.254   8.795   3.982
22719WAT     H268400   6.374   8.904   4.003
22720WAT      O68401   5.657   0.822   2.329
22720WAT     H168402   5.559   0.841   2.322
22720WAT     H268403   5.670   0.731   2.370
22721WAT      O68404   8.465   0.314   8.835
22721WAT     H168405   8.387   0.273   8.884
22721WAT     H268406   8.537   0.246   8.824
22722WAT      O68407   1.616   4.208   1.234
22722WAT     H168408   1.544   4.278   1.240
22722WAT     H268409   1.634   4.188   1.137
22723WAT      O68410   1.443   2.051   3.587
22723WAT     H168411   1.421   2.140   3.626
22723WAT     H268412   1.472   2.062   3.492
22724WAT      O68413   3.463   3.100   1.592
22724WAT     H168414   3.562   3.087   1.583
22724WAT     H268415   3.434   3.072   1.683
22725WAT      O68416   5.197   4.225   1.281
22725WAT     H168417   5.141   4.252   1.360
22725WAT     H268418   5.139   4.222   1.199
22726WAT      O68419   4.327   5.626   2.935
22726WAT     H168420   4.355   5.530   2.943
22726WAT     H268421   4.227   5.632   2.936
22727WAT      O68422   0.675   7.690   2.969
22727WAT     H168423   0.696   7.787   2.981
22727WAT     H268424   0.727   7.636   3.035
22728WAT      O68425   6.278   2.832   3.292
22728WAT     H168426   6.324   2.917   3.266
22728WAT     H268427   6.181   2.839   3.270
22729WAT      O68428   1.390   8.285   7.416
22729WAT     H168429   1.308   8.244   7.455
22729WAT     H268430   1.470   8.233   7.447
22730WAT      O68431   9.597   8.273   3.054
22730WAT     H168432   9.516   8.224   3.084
22730WAT     H268433   9.612   8.352   3.113
22731WAT      O68434   0.690   0.207   6.907
22731WAT     H168435   0.770   0.193   6.850
22731WAT     H268436   0.641   0.120   6.917
22732WAT      O68437   6.635   3.731   0.999
22732WAT     H168438   6.632   3.741   0.900
22732WAT     H268439   6.592   3.645   1.025
22733WAT      O68440   6.864   0.179   3.183
22733WAT     H168441   6.944   0.238   3.171
22733WAT     H268442   6.888   0.085   3.161
22734WAT      O68443   0.965   5.808   3.487
22734WAT     H168444   1.049   5.754   3.479
22734WAT     H268445   0.940   5.817   3.583
22735WAT      O68446   5.508   6.259   9.770
22735WAT     H168447   5.588   6.304   9.731
22735WAT     H268448   5.523   6.160   9.773
22736WAT      O68449   0.604   8.657   6.142
22736WAT     H168450   0.635   8.751   6.150
22736WAT     H268451   0.570   8.640   6.050
22737WAT      O68452   2.414   2.130   7.502
22737WAT     H168453   2.362   2.210   7.532
22737WAT     H268454   2.385   2.050   7.554
22738WAT      O68455   6.725   7.594   2.503
22738WAT     H168456   6.674   7.524   2.453
22738WAT     H268457   6.810   7.613   2.454
22739WAT      O68458   2.227   1.374   4.538
22739WAT     H168459   2.207   1.342   4.630
22739WAT     H268460   2.226   1.296   4.475
22740WAT      O68461   8.499   2.741   7.003
22740WAT     H168462   8.537   2.686   7.078
22740WAT     H268463   8.426   2.690   6.958
22741WAT      O68464   6.372   1.306   4.794
22741WAT     H168465   6.335   1.230   4.849
22741WAT     H268466   6.463   1.283   4.761
22742WAT      O68467   5.648   9.168   8.499
22742WAT     H168468   5.689   9.216   8.422
22742WAT     H268469   5.602   9.085   8.467
22743WAT      O68470   4.635   0.859   2.616
22743WAT     H168471   4.652   0.814   2.703
22743WAT     H268472   4.614   0.791   2.546
22744WAT      O68473   1.376   9.782   4.380
22744WAT     H168474   1.407   9.732   4.299
22744WAT     H268475   1.342   9.717   4.448
22745WAT      O68476   9.050   3.981   2.217
22745WAT     H168477   9.074   3.891   2.253
22745WAT     H268478   8.952   3.997   2.230
22746WAT      O68479   0.597   0.894   4.485
22746WAT     H168480   0.616   0.835   4.563
22746WAT     H268481   0.505   0.934   4.495
22747WAT      O68482   1.159   5.288   5.748
22747WAT     H168483   1.128   5.372   5.794
22747WAT     H268484   1.087   5.255   5.687
22748WAT      O68485   4.009   4.140   4.806
22748WAT     H168486   4.029   4.101   4.716
22748WAT     H268487   3.980   4.067   4.868
22749WAT      O68488   0.699   6.919   7.600
22749WAT     H168489   0.720   6.823   7.619
22749WAT     H268490   0.750   6.949   7.518
22750WAT      O68491   7.844   6.814   1.309
22750WAT     H168492   7.864   6.784   1.215
22750WAT     H268493   7.909   6.772   1.372
22751WAT      O68494   8.847   8.942   0.660
22751WAT     H168495   8.784   9.017   0.639
22751WAT     H268496   8.817   8.896   0.744
22752WAT      O68497   0.943   2.372   6.621
22752WAT     H168498   0.944   2.274   6.600
22752WAT     H268499   1.023   2.416   6.580
22753WAT      O68500   9.811   3.916   3.881
22753WAT     H168501   9.812   3.938   3.978
22753WAT     H268502   9.811   3.817   3.868
22754WAT      O68503   5.306   8.631   4.442
22754WAT     H168504   5.289   8.699   4.370
22754WAT     H268505   5.400   8.599   4.436
22755WAT      O68506   6.859   4.923   0.069
22755WAT     H168507   6.859   4.862  -0.011
22755WAT     H268508   6.773   4.974   0.071
22756WAT      O68509   7.347   7.063   4.741
22756WAT     H168510   7.318   7.156   4.761
22756WAT     H268511   7.285   7.021   4.675
22757WAT      O68512   8.073   6.906   7.133
22757WAT     H168513   8.040   6.881   7.224
22757WAT     H268514   8.170   6.883   7.126
22758WAT      O68515   3.794   7.890   8.656
22758WAT     H168516   3.815   7.807   8.707
22758WAT     H268517   3.701   7.920   8.678
22759WAT      O68518   8.061   7.493   4.867
22759WAT     H168519   8.078   7.394   4.866
22759WAT     H268520   8.126   7.537   4.929
22760WAT      O68521   4.489   8.229   3.576
22760WAT     H168522   4.542   8.157   3.621
22760WAT     H268523   4.409   8.251   3.631
22761WAT      O68524   7.560   7.744   4.975
22761WAT     H168525   7.552   7.836   4.937
22761WAT     H268526   7.586   7.679   4.903
22762WAT      O68527   5.711   5.185   6.855
22762WAT     H168528   5.756   5.101   6.825
22762WAT     H268529   5.718   5.192   6.955
22763WAT      O68530   9.136   7.842   5.236
22763WAT     H168531   9.206   7.914   5.230
22763WAT     H268532   9.110   7.814   5.143
22764WAT      O68533   9.376   2.453   0.137
22764WAT     H168534   9.436   2.421   0.063
22764WAT     H268535   9.282   2.427   0.116
22765WAT      O68536   7.499   6.785   8.868
22765WAT     H168537   7.491   6.715   8.939
22765WAT     H268538   7.485   6.742   8.778
22766WAT      O68539   0.347   7.480   5.114
22766WAT     H168540   0.399   7.504   5.032
22766WAT     H268541   0.327   7.562   5.166
22767WAT      O68542   0.582   4.179   7.706
22767WAT     H168543   0.637   4.123   7.768
22767WAT     H268544   0.522   4.120   7.652
22768WAT      O68545   3.651   6.939   2.581
22768WAT     H168546   3.676   7.018   2.525
22768WAT     H268547   3.705   6.940   2.665
22769WAT      O68548   5.211   1.798   1.137
22769WAT     H168549   5.283   1.849   1.183
22769WAT     H268550   5.208   1.705   1.172
22770WAT      O68551   1.471   2.685   2.147
22770WAT     H168552   1.392   2.745   2.162
22770WAT     H268553   1.438   2.593   2.126
22771WAT      O68554   0.135   5.227   2.046
22771WAT     H168555   0.217   5.225   2.102
22771WAT     H268556   0.150   5.285   1.966
22772WAT      O68557   5.239   5.571   5.323
22772WAT     H168558   5.257   5.481   5.362
22772WAT     H268559   5.141   5.591   5.330
22773WAT      O68560   3.699   9.704   1.196
22773WAT     H168561   3.796   9.681   1.206
22773WAT     H268562   3.683   9.796   1.233
22774WAT      O68563   4.286   1.274   2.210
22774WAT     H168564   4.293   1.212   2.132
22774WAT     H268565   4.215   1.242   2.272
22775WAT      O68566   1.532   7.729   3.276
22775WAT     H168567   1.459   7.747   3.342
22775WAT     H268568   1.533   7.632   3.253
22776WAT      O68569   8.768   1.060   8.291
22776WAT     H168570   8.779   0.999   8.213
22776WAT     H268571   8.788   1.154   8.262
22777WAT      O68572   6.655   6.198   9.420
22777WAT     H168573   6.648   6.269   9.490
22777WAT     H268574   6.728   6.223   9.356
22778WAT      O68575   5.823   4.964   0.048
22778WAT     H168576   5.903   5.015   0.016
22778WAT     H268577   5.747   5.028   0.062
22779WAT      O68578   1.429   0.118   3.172
22779WAT     H168579   1.505   0.104   3.109
22779WAT     H268580   1.397   0.213   3.165
22780WAT      O68581   4.086   8.984   2.927
22780WAT     H168582   4.142   8.902   2.919
22780WAT     H268583   3.992   8.959   2.951
22781WAT      O68584   8.102   6.460   1.331
22781WAT     H168585   8.052   6.425   1.252
22781WAT     H268586   8.048   6.448   1.414
22782WAT      O68587   4.853   4.031   8.756
22782WAT     H168588   4.765   3.985   8.742
22782WAT     H268589   4.872   4.038   8.854
22783WAT      O68590   3.779   0.877   0.620
22783WAT     H168591   3.876   0.887   0.642
22783WAT     H268592   3.745   0.791   0.658
22784WAT      O68593   6.691   5.828   9.219
22784WAT     H168594   6.619   5.871   9.275
22784WAT     H268595   6.780   5.844   9.262
22785WAT      O68596   3.446   4.870   2.504
22785WAT     H168597   3.427   4.803   2.432
22785WAT     H268598   3.467   4.822   2.589
22786WAT      O68599   1.145   6.038   8.918
22786WAT     H168600   1.182   5.980   8.990
22786WAT     H268601   1.048   6.018   8.905
22787WAT      O68602   7.926   0.548   9.159
22787WAT     H168603   7.942   0.591   9.248
22787WAT     H268604   7.862   0.604   9.106
22788WAT      O68605   4.999   9.544   6.064
22788WAT     H168606   5.088   9.587   6.077
22788WAT     H268607   4.970   9.500   6.149
22789WAT      O68608   7.111   7.150   1.869
22789WAT     H168609   7.052   7.075   1.839
22789WAT     H268610   7.206   7.119   1.872
22790WAT      O68611   9.668   1.668   3.622
22790WAT     H168612   9.674   1.597   3.692
22790WAT     H268613   9.660   1.757   3.666
22791WAT      O68614   7.494   5.182   7.881
22791WAT     H168615   7.518   5.237   7.802
22791WAT     H268616   7.577   5.143   7.921
22792WAT      O68617   4.800   5.023   5.597
22792WAT     H168618   4.827   4.971   5.678
22792WAT     H268619   4.710   4.993   5.567
22793WAT      O68620   7.753   9.540   1.019
22793WAT     H168621   7.750   9.629   1.064
22793WAT     H268622   7.783   9.470   1.085
22794WAT      O68623   0.762   4.741   4.717
22794WAT     H168624   0.748   4.649   4.755
22794WAT     H268625   0.723   4.744   4.624
22795WAT      O68626  -0.002   8.599   1.920
22795WAT     H168627   0.095   8.577   1.907
22795WAT     H268628  -0.011   8.659   2.000
22796WAT      O68629   5.871   6.742   4.719
22796WAT     H168630   5.933   6.796   4.777
22796WAT     H268631   5.797   6.704   4.775
22797WAT      O68632   6.540   3.971   7.000
22797WAT     H168633   6.451   3.967   6.955
22797WAT     H268634   6.532   4.023   7.085
22798WAT      O68635   5.852   0.968   0.794
22798WAT     H168636   5.756   0.942   0.799
22798WAT     H268637   5.902   0.927   0.871
22799WAT      O68638   1.123   2.776   3.149
22799WAT     H168639   1.065   2.819   3.218
22799WAT     H268640   1.108   2.819   3.061
22800WAT      O68641   1.971   9.308   6.047
22800WAT     H168642   1.943   9.395   6.087
22800WAT     H268643   1.910   9.235   6.080
22801WAT      O68644   1.779   3.689   5.786
22801WAT     H168645   1.716   3.637   5.843
22801WAT     H268646   1.763   3.787   5.799
22802WAT      O68647   3.067   2.440   9.751
22802WAT     H168648   3.015   2.407   9.829
22802WAT     H268649   3.106   2.363   9.701
22803WAT      O68650   0.020   9.184   4.496
22803WAT     H168651  -0.066   9.221   4.461
22803WAT     H268652   0.086   9.175   4.421
22804WAT      O68653   1.416   0.707   5.808
22804WAT     H168654   1.350   0.632   5.807
22804WAT     H268655   1.387   0.777   5.742
22805WAT      O68656   5.285   6.282   4.949
22805WAT     H168657   5.338   6.279   4.864
22805WAT     H268658   5.201   6.229   4.938
22806WAT      O68659   6.486   3.139   9.625
22806WAT     H168660   6.560   3.160   9.560
22806WAT     H268661   6.443   3.052   9.599
22807WAT      O68662   0.929   0.255   2.567
22807WAT     H168663   0.847   0.291   2.611
22807WAT     H268664   0.991   0.330   2.545
22808WAT      O68665   4.151   4.893   1.832
22808WAT     H168666   4.128   4.990   1.837
22808WAT     H268667   4.139   4.851   1.922
22809WAT      O68668   8.725   5.582   8.709
22809WAT     H168669   8.658   5.625   8.770
22809WAT     H268670   8.764   5.652   8.648
22810WAT      O68671   4.512   3.366   4.024
22810WAT     H168672   4.608   3.343   4.043
22810WAT     H268673   4.506   3.461   3.993
22811WAT      O68674   4.305   3.417   8.470
22811WAT     H168675   4.348   3.331   8.499
22811WAT     H268676   4.347   3.493   8.520
22812WAT      O68677   4.180   0.053   9.273
22812WAT     H168678   4.165  -0.023   9.336
22812WAT     H268679   4.093   0.098   9.255
22813WAT      O68680   1.832   5.666   7.456
22813WAT     H168681   1.801   5.709   7.372
22813WAT     H268682   1.916   5.710   7.488
22814WAT      O68683   4.923   7.188   4.557
22814WAT     H168684   4.939   7.183   4.458
22814WAT     H268685   4.852   7.256   4.576
22815WAT      O68686   2.837   7.384   2.135
22815WAT     H168687   2.820   7.458   2.199
22815WAT     H268688   2.878   7.307   2.184
22816WAT      O68689   5.752   5.261   1.583
22816WAT     H168690   5.657   5.232   1.578
22816WAT     H268691   5.756   5.358   1.608
22817WAT      O68692   7.070   7.309   1.032
22817WAT     H168693   7.147   7.246   1.021
22817WAT     H268694   6.999   7.265   1.087
22818WAT      O68695   9.353   7.912   7.596
22818WAT     H168696   9.416   7.834   7.592
22818WAT     H268697   9.273   7.893   7.538
22819WAT      O68698   7.425   9.433   2.487
22819WAT     H168699   7.506   9.472   2.443
22819WAT     H268700   7.386   9.500   2.551
22820WAT      O68701   9.422   8.683   2.665
22820WAT     H168702   9.477   8.601   2.683
22820WAT     H268703   9.454   8.758   2.722
22821WAT      O68704   1.047   0.767   3.399
22821WAT     H168705   1.130   0.799   3.354
22821WAT     H268706   1.039   0.810   3.489
22822WAT      O68707   5.107   2.389   7.317
22822WAT     H168708   5.042   2.344   7.256
22822WAT     H268709   5.057   2.452   7.377
22823WAT      O68710   5.567   2.049   5.301
22823WAT     H168711   5.622   2.069   5.220
22823WAT     H268712   5.470   2.045   5.274
22824WAT      O68713   9.007   1.966   9.589
22824WAT     H168714   8.995   1.905   9.667
22824WAT     H268715   8.997   1.914   9.504
22825WAT      O68716   9.309   5.576   9.711
22825WAT     H168717   9.213   5.559   9.736
22825WAT     H268718   9.368   5.541   9.783
22826WAT      O68719   2.938   3.085   1.778
22826WAT     H168720   2.962   3.159   1.714
22826WAT     H268721   2.849   3.104   1.819
22827WAT      O68722   8.967   1.149   4.997
22827WAT     H168723   8.978   1.157   4.898
22827WAT     H268724   8.871   1.165   5.021
22828WAT      O68725   7.116   8.209   4.415
22828WAT     H168726   7.142   8.135   4.477
22828WAT     H268727   7.016   8.212   4.407
22829WAT      O68728   9.512   9.460   5.914
22829WAT     H168729   9.492   9.549   5.954
22829WAT     H268730   9.483   9.388   5.977
22830WAT      O68731   0.088   6.684   9.167
22830WAT     H168732   0.117   6.619   9.237
22830WAT     H268733   0.018   6.641   9.109
22831WAT      O68734   2.593   2.398   9.414
22831WAT     H168735   2.498   2.394   9.383
22831WAT     H268736   2.627   2.492   9.403
22832WAT      O68737   3.784   2.355   2.203
22832WAT     H168738   3.698   2.405   2.188
22832WAT     H268739   3.811   2.310   2.118
22833WAT      O68740   1.845   3.074   7.340
22833WAT     H168741   1.928   3.088   7.393
22833WAT     H268742   1.869   3.036   7.250
22834WAT      O68743   5.286   8.031   6.434
22834WAT     H168744   5.373   8.065   6.470
22834WAT     H268745   5.300   7.940   6.396
22835WAT      O68746   1.616   9.793   7.450
22835WAT     H168747   1.598   9.889   7.470
22835WAT     H268748   1.685   9.786   7.379
22836WAT      O68749   4.950   2.215   6.573
22836WAT     H168750   5.023   2.247   6.633
22836WAT     H268751   4.862   2.248   6.607
22837WAT      O68752   2.405   3.046   9.048
22837WAT     H168753   2.431   3.096   8.965
22837WAT     H268754   2.465   2.967   9.059
22838WAT      O68755   4.886   0.247   2.217
22838WAT     H168756   4.883   0.287   2.125
22838WAT     H268757   4.810   0.183   2.227
22839WAT      O68758   0.011   3.898   9.258
22839WAT     H168759  -0.036   3.811   9.276
22839WAT     H268760  -0.033   3.971   9.310
22840WAT      O68761   3.438   1.514   8.545
22840WAT     H168762   3.435   1.459   8.461
22840WAT     H268763   3.533   1.523   8.575
22841WAT      O68764   4.849   3.935   0.570
22841WAT     H168765   4.783   3.984   0.627
22841WAT     H268766   4.826   3.838   0.568
22842WAT      O68767   9.534   9.038   9.420
22842WAT     H168768   9.495   8.950   9.447
22842WAT     H268769   9.634   9.032   9.423
22843WAT      O68770   4.183   7.067   2.689
22843WAT     H168771   4.155   6.971   2.684
22843WAT     H268772   4.283   7.073   2.685
22844WAT      O68773   4.680   5.695   3.502
22844WAT     H168774   4.735   5.744   3.434
22844WAT     H268775   4.589   5.736   3.508
22845WAT      O68776   7.289   6.390   0.019
22845WAT     H168777   7.213   6.439   0.063
22845WAT     H268778   7.309   6.306   0.069
22846WAT      O68779   2.063   4.415   6.075
22846WAT     H168780   2.054   4.471   6.157
22846WAT     H268781   2.130   4.456   6.013
22847WAT      O68782   2.412   6.041   3.859
22847WAT     H168783   2.427   5.968   3.925
22847WAT     H268784   2.429   6.129   3.904
22848WAT      O68785   8.039   0.164   2.931
22848WAT     H168786   7.968   0.182   2.863
22848WAT     H268787   7.998   0.156   3.022
22849WAT      O68788   3.106   5.386   7.533
22849WAT     H168789   3.126   5.429   7.445
22849WAT     H268790   3.022   5.424   7.571
22850WAT      O68791   0.420   3.052   1.268
22850WAT     H168792   0.465   3.063   1.179
22850WAT     H268793   0.400   2.956   1.284
22851WAT      O68794   4.506   0.044   5.805
22851WAT     H168795   4.457   0.117   5.758
22851WAT     H268796   4.603   0.047   5.780
22852WAT      O68797   9.045   1.287   9.825
22852WAT     H168798   9.122   1.275   9.762
22852WAT     H268799   8.967   1.323   9.775
22853WAT      O68800   6.401   8.721   3.719
22853WAT     H168801   6.337   8.708   3.643
22853WAT     H268802   6.362   8.785   3.785
22854WAT      O68803   2.665   4.937   3.607
22854WAT     H168804   2.590   4.976   3.661
22854WAT     H268805   2.627   4.887   3.529
22855WAT      O68806   7.868   0.242   6.865
22855WAT     H168807   7.854   0.151   6.826
22855WAT     H268808   7.897   0.234   6.961
22856WAT      O68809   3.569   5.367   3.410
22856WAT     H168810   3.519   5.439   3.362
22856WAT     H268811   3.533   5.357   3.503
22857WAT      O68812   5.980   5.550   8.939
22857WAT     H168813   6.078   5.537   8.951
22857WAT     H268814   5.960   5.561   8.841
22858WAT      O68815   6.603   1.331   9.167
22858WAT     H168816   6.512   1.351   9.202
22858WAT     H268817   6.612   1.232   9.152
22859WAT      O68818   1.276   1.633   1.711
22859WAT     H168819   1.301   1.592   1.624
22859WAT     H268820   1.354   1.627   1.774
22860WAT      O68821   1.736   3.358   6.919
22860WAT     H168822   1.797   3.403   6.854
22860WAT     H268823   1.676   3.426   6.961
22861WAT      O68824   4.662   0.433   8.669
22861WAT     H168825   4.585   0.373   8.695
22861WAT     H268826   4.703   0.471   8.752
22862WAT      O68827   9.271   3.477   7.791
22862WAT     H168828   9.262   3.536   7.711
22862WAT     H268829   9.337   3.518   7.854
22863WAT      O68830   3.783   7.631   7.930
22863WAT     H168831   3.832   7.653   7.845
22863WAT     H268832   3.802   7.536   7.955
22864WAT      O68833   1.188   4.834   2.349
22864WAT     H168834   1.239   4.769   2.294
22864WAT     H268835   1.102   4.857   2.303
22865WAT      O68836   1.891   8.489   5.268
22865WAT     H168837   1.834   8.449   5.340
22865WAT     H268838   1.936   8.571   5.303
22866WAT      O68839   5.621   2.690   2.941
22866WAT     H168840   5.701   2.725   2.991
22866WAT     H268841   5.565   2.767   2.909
22867WAT      O68842   7.816   3.556   6.711
22867WAT     H168843   7.821   3.456   6.716
22867WAT     H268844   7.742   3.588   6.770
22868WAT      O68845   1.523   8.172   6.271
22868WAT     H168846   1.546   8.080   6.303
22868WAT     H268847   1.524   8.235   6.349
22869WAT      O68848   7.630   3.566   8.717
22869WAT     H168849   7.611   3.663   8.732
22869WAT     H268850   7.608   3.541   8.623
22870WAT      O68851   5.345   6.552   2.640
22870WAT     H168852   5.315   6.517   2.729
22870WAT     H268853   5.341   6.479   2.572
22871WAT      O68854   8.431   1.039   6.257
22871WAT     H168855   8.341   1.021   6.297
22871WAT     H268856   8.474   0.953   6.231
22872WAT      O68857   3.502   3.848   9.526
22872WAT     H168858   3.482   3.887   9.436
22872WAT     H268859   3.501   3.748   9.519
22873WAT      O68860   4.670   7.352   1.960
22873WAT     H168861   4.600   7.347   2.031
22873WAT     H268862   4.627   7.351   1.870
22874WAT      O68863   7.573   1.400   3.472
22874WAT     H168864   7.562   1.301   3.458
22874WAT     H268865   7.664   1.419   3.508
22875WAT      O68866   5.864   0.093   9.135
22875WAT     H168867   5.933   0.071   9.066
22875WAT     H268868   5.773   0.069   9.100
22876WAT      O68869   6.999   4.821   0.281
22876WAT     H168870   6.946   4.841   0.199
22876WAT     H268871   6.939   4.780   0.350
22877WAT      O68872   1.608   7.473   4.681
22877WAT     H168873   1.615   7.393   4.740
22877WAT     H268874   1.700   7.505   4.656
22878WAT      O68875   9.248   0.549   5.119
22878WAT     H168876   9.165   0.556   5.174
22878WAT     H268877   9.240   0.609   5.039
22879WAT      O68878   7.190   1.870   1.272
22879WAT     H168879   7.265   1.935   1.283
22879WAT     H268880   7.227   1.780   1.250
22880WAT      O68881   1.500   7.479   7.166
22880WAT     H168882   1.434   7.409   7.193
22880WAT     H268883   1.481   7.508   7.072
22881WAT      O68884   0.524   8.383   7.425
22881WAT     H168885   0.477   8.472   7.431
22881WAT     H268886   0.572   8.366   7.511
22882WAT      O68887   7.097   0.245   5.831
22882WAT     H168888   7.050   0.283   5.911
22882WAT     H268889   7.180   0.198   5.860
22883WAT      O68890   1.526   8.218   0.288
22883WAT     H168891   1.576   8.259   0.213
22883WAT     H268892   1.438   8.263   0.299
22884WAT      O68893   8.162   6.252   9.583
22884WAT     H168894   8.143   6.222   9.490
22884WAT     H268895   8.142   6.349   9.591
22885WAT      O68896   1.562   4.374   7.121
22885WAT     H168897   1.560   4.385   7.220
22885WAT     H268898   1.556   4.276   7.098
22886WAT      O68899   5.229   7.265   0.341
22886WAT     H168900   5.240   7.167   0.358
22886WAT     H268901   5.137   7.293   0.367
22887WAT      O68902   0.501   8.114   4.119
22887WAT     H168903   0.577   8.178   4.109
22887WAT     H268904   0.522   8.049   4.193
22888WAT      O68905   2.581   1.414   6.370
22888WAT     H168906   2.562   1.429   6.467
22888WAT     H268907   2.495   1.393   6.323
22889WAT      O68908   8.260   6.380   4.752
22889WAT     H168909   8.330   6.413   4.815
22889WAT     H268910   8.198   6.455   4.728
22890WAT      O68911   6.980   2.877   9.521
22890WAT     H168912   6.897   2.854   9.471
22890WAT     H268913   6.963   2.870   9.619
22891WAT      O68914   1.173   3.936   2.977
22891WAT     H168915   1.177   3.952   2.878
22891WAT     H268916   1.154   4.022   3.024
22892WAT      O68917   6.167   7.782   6.738
22892WAT     H168918   6.107   7.803   6.661
22892WAT     H268919   6.121   7.718   6.800
22893WAT      O68920   2.070   6.637   9.627
22893WAT     H168921   2.061   6.548   9.671
22893WAT     H268922   2.153   6.682   9.661
22894WAT      O68923   1.048   9.011   1.114
22894WAT     H168924   1.140   8.998   1.076
22894WAT     H268925   0.995   8.927   1.102
22895WAT      O68926   4.819   0.363   1.948
22895WAT     H168927   4.878   0.417   1.888
22895WAT     H268928   4.733   0.411   1.963
22896WAT      O68929   8.759   1.093   0.471
22896WAT     H168930   8.694   1.037   0.421
22896WAT     H268931   8.852   1.072   0.440
22897WAT      O68932   3.704   1.186   3.452
22897WAT     H168933   3.667   1.233   3.532
22897WAT     H268934   3.642   1.113   3.425
22898WAT      O68935   1.223   5.149   9.106
22898WAT     H168936   1.239   5.119   9.200
22898WAT     H268937   1.300   5.206   9.076
22899WAT      O68938   1.124   6.337   5.224
22899WAT     H168939   1.186   6.307   5.152
22899WAT     H268940   1.060   6.405   5.187
22900WAT      O68941   2.315   2.240   0.614
22900WAT     H168942   2.407   2.207   0.594
22900WAT     H268943   2.320   2.331   0.655
22901WAT      O68944   2.701   2.856   4.853
22901WAT     H168945   2.778   2.920   4.857
22901WAT     H268946   2.616   2.907   4.842
22902WAT      O68947   2.159   9.006   7.092
22902WAT     H168948   2.088   9.074   7.113
22902WAT     H268949   2.246   9.053   7.077
22903WAT      O68950   0.899   7.835   8.532
22903WAT     H168951   0.952   7.897   8.475
22903WAT     H268952   0.863   7.885   8.612
22904WAT      O68953   1.446   5.682   6.326
22904WAT     H168954   1.405   5.686   6.235
22904WAT     H268955   1.465   5.587   6.350
22905WAT      O68956   9.624   0.082   3.735
22905WAT     H168957   9.577   0.078   3.646
22905WAT     H268958   9.566   0.040   3.805
22906WAT      O68959   6.488   1.043   6.877
22906WAT     H168960   6.474   1.105   6.954
22906WAT     H268961   6.565   1.075   6.822
22907WAT      O68962   0.054   3.188   9.509
22907WAT     H168963  -0.014   3.176   9.437
22907WAT     H268964   0.010   3.227   9.591
22908WAT      O68965   3.313   7.528   2.873
22908WAT     H168966   3.399   7.505   2.826
22908WAT     H268967   3.294   7.459   2.943
22909WAT      O68968   0.317   0.732   7.602
22909WAT     H168969   0.243   0.783   7.558
22909WAT     H268970   0.397   0.791   7.611
22910WAT      O68971   8.601   7.116   9.364
22910WAT     H168972   8.646   7.085   9.280
22910WAT     H268973   8.608   7.216   9.370
22911WAT      O68974   2.814   6.424   1.214
22911WAT     H168975   2.856   6.513   1.200
22911WAT     H268976   2.726   6.435   1.260
22912WAT      O68977   3.080   2.032   7.954
22912WAT     H168978   3.030   1.985   8.027
22912WAT     H268979   3.038   2.121   7.937
22913WAT      O68980   4.728   1.233   6.651
22913WAT     H168981   4.691   1.142   6.636
22913WAT     H268982   4.828   1.229   6.653
22914WAT      O68983   2.013   7.123   0.490
22914WAT     H168984   1.934   7.184   0.503
22914WAT     H268985   2.072   7.127   0.570
22915WAT      O68986   1.267   5.732   7.489
22915WAT     H168987   1.331   5.666   7.529
22915WAT     H268988   1.317   5.792   7.426
22916WAT      O68989   9.062   7.355   6.369
22916WAT     H168990   9.117   7.416   6.426
22916WAT     H268991   9.118   7.322   6.293
22917WAT      O68992   6.451   9.711   1.615
22917WAT     H168993   6.415   9.768   1.690
22917WAT     H268994   6.532   9.755   1.576
22918WAT      O68995   2.826   9.234   8.013
22918WAT     H168996   2.840   9.317   8.068
22918WAT     H268997   2.748   9.183   8.049
22919WAT      O68998   0.663   5.282   3.998
22919WAT     H168999   0.579   5.248   3.955
22919WAT     H269000   0.733   5.211   3.992
22920WAT      O69001   1.271   6.901   0.491
22920WAT     H169002   1.290   6.802   0.491
22920WAT     H269003   1.354   6.951   0.516
22921WAT      O69004   7.682   3.784   1.941
22921WAT     H169005   7.731   3.855   1.890
22921WAT     H269006   7.743   3.741   2.008
22922WAT      O69007   4.637   7.905   8.177
22922WAT     H169008   4.558   7.847   8.195
22922WAT     H269009   4.719   7.861   8.212
22923WAT      O69010   8.074   5.780   6.600
22923WAT     H169011   8.035   5.835   6.674
22923WAT     H269012   8.166   5.751   6.625
22924WAT      O69013   2.374   4.306   4.090
22924WAT     H169014   2.289   4.353   4.069
22924WAT     H269015   2.405   4.331   4.182
22925WAT      O69016   0.628   3.118   4.363
22925WAT     H169017   0.653   3.046   4.298
22925WAT     H269018   0.595   3.076   4.448
22926WAT      O69019   3.935   5.536   2.415
22926WAT     H169020   3.843   5.537   2.378
22926WAT     H269021   3.934   5.570   2.509
22927WAT      O69022   0.269   5.847   3.913
22927WAT     H169023   0.268   5.851   4.013
22927WAT     H269024   0.309   5.931   3.877
22928WAT      O69025   5.082   9.468   3.360
22928WAT     H169026   5.051   9.374   3.352
22928WAT     H269027   5.117   9.484   3.453
22929WAT      O69028   0.299   8.495   2.482
22929WAT     H169029   0.209   8.511   2.442
22929WAT     H269030   0.305   8.542   2.570
22930WAT      O69031   0.932   9.139   8.451
22930WAT     H169032   1.023   9.163   8.417
22930WAT     H269033   0.925   9.165   8.548
22931WAT      O69034   5.205   5.872   2.466
22931WAT     H169035   5.169   5.957   2.429
22931WAT     H269036   5.130   5.819   2.506
22932WAT      O69037   8.246   5.654   6.225
22932WAT     H169038   8.271   5.566   6.184
22932WAT     H269039   8.159   5.645   6.272
22933WAT      O69040   6.762   8.494   4.772
22933WAT     H169041   6.810   8.425   4.719
22933WAT     H269042   6.827   8.561   4.807
22934WAT      O69043   5.728   1.995   5.067
22934WAT     H169044   5.822   2.029   5.075
22934WAT     H269045   5.699   2.003   4.972
22935WAT      O69046   8.499   1.011   0.419
22935WAT     H169047   8.441   1.065   0.480
22935WAT     H269048   8.454   1.003   0.330
22936WAT      O69049   5.882   1.156   0.610
22936WAT     H169050   5.979   1.179   0.617
22936WAT     H269051   5.861   1.081   0.674
22937WAT      O69052   4.593   9.572   0.233
22937WAT     H169053   4.637   9.660   0.222
22937WAT     H269054   4.595   9.522   0.146
22938WAT      O69055   0.171   4.230   4.102
22938WAT     H169056   0.248   4.280   4.140
22938WAT     H269057   0.140   4.161   4.168
22939WAT      O69058   1.714   1.467   5.292
22939WAT     H169059   1.633   1.454   5.350
22939WAT     H269060   1.724   1.564   5.269
22940WAT      O69061   5.304   4.919   0.861
22940WAT     H169062   5.370   4.942   0.932
22940WAT     H269063   5.352   4.876   0.784
22941WAT      O69064   9.424   5.679   3.621
22941WAT     H169065   9.499   5.680   3.686
22941WAT     H269066   9.389   5.585   3.612
22942WAT      O69067   9.576   7.171   1.598
22942WAT     H169068   9.481   7.192   1.620
22942WAT     H269069   9.636   7.234   1.647
22943WAT      O69070   1.282   5.343   7.035
22943WAT     H169071   1.297   5.267   6.973
22943WAT     H269072   1.369   5.367   7.080
22944WAT      O69073   0.040   6.402   1.563
22944WAT     H169074   0.076   6.471   1.625
22944WAT     H269075   0.115   6.347   1.526
22945WAT      O69076   2.631   4.771   3.358
22945WAT     H169077   2.578   4.688   3.376
22945WAT     H269078   2.697   4.753   3.284
22946WAT      O69079   8.511   3.486   2.189
22946WAT     H169080   8.503   3.389   2.166
22946WAT     H269081   8.431   3.535   2.156
22947WAT      O69082   4.737   7.988   4.394
22947WAT     H169083   4.685   8.027   4.470
22947WAT     H269084   4.676   7.933   4.337
22948WAT      O69085   0.089   1.027   4.929
22948WAT     H169086   0.074   1.110   4.983
22948WAT     H269087   0.052   0.948   4.977
22949WAT      O69088   6.538   6.229   9.068
22949WAT     H169089   6.526   6.190   8.977
22949WAT     H269090   6.493   6.170   9.135
22950WAT      O69091   9.802   6.956   9.822
22950WAT     H169092   9.765   7.049   9.817
22950WAT     H269093   9.847   6.933   9.736
22951WAT      O69094   0.236   9.587   8.945
22951WAT     H169095   0.312   9.584   9.010
22951WAT     H269096   0.270   9.615   8.855
22952WAT      O69097   1.662   6.238   3.912
22952WAT     H169098   1.732   6.175   3.878
22952WAT     H269099   1.587   6.185   3.952
22953WAT      O69100   8.178   8.081   3.827
22953WAT     H169101   8.137   8.016   3.763
22953WAT     H269102   8.255   8.038   3.873
22954WAT      O69103   1.943   0.524   5.965
22954WAT     H169104   1.976   0.590   5.897
22954WAT     H269105   1.998   0.532   6.048
22955WAT      O69106   1.818   1.643   7.271
22955WAT     H169107   1.725   1.657   7.305
22955WAT     H269108   1.840   1.714   7.204
22956WAT      O69109   7.607   2.271   8.610
22956WAT     H169110   7.579   2.363   8.634
22956WAT     H269111   7.663   2.273   8.527
22957WAT      O69112   8.558   8.251   0.407
22957WAT     H169113   8.602   8.275   0.320
22957WAT     H269114   8.459   8.259   0.397
22958WAT      O69115   6.588   9.481   1.607
22958WAT     H169116   6.684   9.492   1.580
22958WAT     H269117   6.546   9.571   1.619
22959WAT      O69118   9.323   9.812   9.423
22959WAT     H169119   9.411   9.857   9.409
22959WAT     H269120   9.313   9.788   9.519
22960WAT      O69121   3.142   1.669   6.525
22960WAT     H169122   3.081   1.665   6.446
22960WAT     H269123   3.126   1.755   6.574
22961WAT      O69124   2.790   5.875   0.595
22961WAT     H169125   2.745   5.914   0.515
22961WAT     H269126   2.876   5.923   0.611
22962WAT      O69127   7.110   3.201   5.159
22962WAT     H169128   7.137   3.261   5.084
22962WAT     H269129   7.185   3.139   5.181
22963WAT      O69130   5.975   0.679   2.335
22963WAT     H169131   5.905   0.610   2.355
22963WAT     H269132   5.952   0.764   2.383
22964WAT      O69133   2.981   8.968   9.798
22964WAT     H169134   2.971   9.052   9.852
22964WAT     H269135   2.919   8.971   9.720
22965WAT      O69136   3.725   3.291   3.080
22965WAT     H169137   3.795   3.329   3.020
22965WAT     H269138   3.767   3.249   3.160
22966WAT      O69139   1.865   0.619   7.845
22966WAT     H169140   1.834   0.577   7.760
22966WAT     H269141   1.797   0.602   7.917
22967WAT      O69142   3.031   4.036   9.310
22967WAT     H169143   3.048   3.958   9.370
22967WAT     H269144   3.084   4.115   9.341
22968WAT      O69145   2.322   9.226   3.065
22968WAT     H169146   2.248   9.265   3.120
22968WAT     H269147   2.410   9.257   3.101
22969WAT      O69148   8.525   2.038   4.706
22969WAT     H169149   8.536   2.013   4.802
22969WAT     H269150   8.498   1.958   4.653
22970WAT      O69151   5.309   7.964   5.633
22970WAT     H169152   5.401   7.948   5.598
22970WAT     H269153   5.270   7.877   5.663
22971WAT      O69154   3.400   9.147   0.411
22971WAT     H169155   3.316   9.098   0.388
22971WAT     H269156   3.408   9.228   0.354
22972WAT      O69157   6.853   3.980   1.448
22972WAT     H169158   6.910   4.001   1.527
22972WAT     H269159   6.756   3.987   1.473
22973WAT      O69160   0.951   7.332   4.951
22973WAT     H169161   0.953   7.427   4.983
22973WAT     H269162   1.001   7.325   4.865
22974WAT      O69163   4.751   2.630   6.483
22974WAT     H169164   4.765   2.586   6.572
22974WAT     H269165   4.659   2.668   6.478
22975WAT      O69166   5.561   8.074   9.562
22975WAT     H169167   5.640   8.127   9.532
22975WAT     H269168   5.572   7.979   9.532
22976WAT      O69169   7.701   4.375   6.865
22976WAT     H169170   7.643   4.422   6.800
22976WAT     H269171   7.645   4.317   6.924
22977WAT      O69172   8.679   8.794   8.578
22977WAT     H169173   8.674   8.865   8.507
22977WAT     H269174   8.645   8.708   8.542
22978WAT      O69175   7.557   7.751   5.384
22978WAT     H169176   7.566   7.826   5.450
22978WAT     H269177   7.613   7.772   5.304
22979WAT      O69178   6.756   2.385   2.364
22979WAT     H169179   6.732   2.445   2.288
22979WAT     H269180   6.779   2.294   2.330
22980WAT      O69181   6.694   1.840   0.152
22980WAT     H169182   6.622   1.906   0.130
22980WAT     H269183   6.653   1.752   0.176
22981WAT      O69184   5.987   4.733   1.126
22981WAT     H169185   6.001   4.718   1.028
22981WAT     H269186   5.890   4.729   1.147
22982WAT      O69187   3.875   3.324   7.689
22982WAT     H169188   3.923   3.368   7.613
22982WAT     H269189   3.905   3.229   7.696
22983WAT      O69190   0.914   1.656   1.842
22983WAT     H169191   0.870   1.606   1.917
22983WAT     H269192   0.844   1.688   1.778
22984WAT      O69193   9.470   3.175   7.478
22984WAT     H169194   9.515   3.198   7.564
22984WAT     H269195   9.374   3.202   7.482
22985WAT      O69196   7.308   8.257   7.061
22985WAT     H169197   7.382   8.307   7.107
22985WAT     H269198   7.229   8.252   7.122
22986WAT      O69199   4.826   5.074   9.761
22986WAT     H169200   4.860   5.060   9.854
22986WAT     H269201   4.743   5.020   9.747
22987WAT      O69202   7.057   9.268   2.606
22987WAT     H169203   7.038   9.294   2.701
22987WAT     H269204   7.149   9.229   2.600
22988WAT      O69205   1.475   2.897   8.796
22988WAT     H169206   1.523   2.982   8.817
22988WAT     H269207   1.391   2.917   8.746
22989WAT      O69208   4.087   2.690   8.563
22989WAT     H169209   4.080   2.788   8.582
22989WAT     H269210   4.085   2.639   8.648
22990WAT      O69211   1.769   7.689   1.046
22990WAT     H169212   1.835   7.653   0.981
22990WAT     H269213   1.722   7.613   1.092
22991WAT      O69214   1.927   8.521   7.063
22991WAT     H169215   1.960   8.547   6.972
22991WAT     H269216   1.924   8.601   7.122
22992WAT      O69217   4.267   1.555   5.139
22992WAT     H169218   4.299   1.479   5.196
22992WAT     H269219   4.172   1.538   5.111
22993WAT      O69220   1.521   1.144   4.380
22993WAT     H169221   1.461   1.130   4.302
22993WAT     H269222   1.479   1.208   4.444
22994WAT      O69223   5.246   6.990   2.473
22994WAT     H169224   5.153   7.027   2.478
22994WAT     H269225   5.278   6.994   2.378
22995WAT      O69226   5.895   5.196   4.109
22995WAT     H169227   5.876   5.144   4.025
22995WAT     H269228   5.828   5.270   4.118
22996WAT      O69229   1.998   8.401   8.973
22996WAT     H169230   2.030   8.471   8.910
22996WAT     H269231   1.956   8.326   8.922
22997WAT      O69232   2.413   4.377   4.974
22997WAT     H169233   2.454   4.453   5.024
22997WAT     H269234   2.342   4.335   5.030
22998WAT      O69235   1.659   2.134   9.258
22998WAT     H169236   1.722   2.066   9.219
22998WAT     H269237   1.599   2.090   9.324
22999WAT      O69238   7.062   2.854   6.970
22999WAT     H169239   7.027   2.939   7.009
22999WAT     H269240   7.011   2.777   7.008
23000WAT      O69241   2.987   5.237   9.673
23000WAT     H169242   2.971   5.308   9.741
23000WAT     H269243   2.936   5.155   9.697
23001WAT      O69244   9.007   0.230   9.275
23001WAT     H169245   8.979   0.219   9.371
23001WAT     H269246   8.975   0.152   9.222
23002WAT      O69247   6.757   4.695   5.328
23002WAT     H169248   6.711   4.610   5.354
23002WAT     H269249   6.719   4.771   5.382
23003WAT      O69250   4.040   6.663   0.958
23003WAT     H169251   3.972   6.712   1.013
23003WAT     H269252   4.029   6.686   0.862
23004WAT      O69253   1.857   6.037   8.293
23004WAT     H169254   1.824   6.066   8.203
23004WAT     H269255   1.791   5.972   8.333
23005WAT      O69256   5.052   1.612   3.265
23005WAT     H169257   5.007   1.695   3.297
23005WAT     H269258   5.133   1.594   3.322
23006WAT      O69259   6.375   1.097   1.626
23006WAT     H169260   6.442   1.026   1.607
23006WAT     H269261   6.284   1.057   1.635
23007WAT      O69262   8.150   5.584   1.957
23007WAT     H169263   8.195   5.627   1.879
23007WAT     H269264   8.053   5.610   1.959
23008WAT      O69265   7.233   9.683   1.062
23008WAT     H169266   7.149   9.651   1.017
23008WAT     H269267   7.270   9.609   1.118
23009WAT      O69268   8.362   7.111   5.858
23009WAT     H169269   8.432   7.179   5.880
23009WAT     H269270   8.272   7.147   5.884
23010WAT      O69271   8.406   4.689   4.822
23010WAT     H169272   8.466   4.646   4.889
23010WAT     H269273   8.428   4.786   4.815
23011WAT      O69274   1.742   4.741   8.584
23011WAT     H169275   1.791   4.702   8.506
23011WAT     H269276   1.691   4.822   8.553
23012WAT      O69277   4.364   0.000   0.418
23012WAT     H169278   4.377   0.078   0.480
23012WAT     H269279   4.432  -0.070   0.439
23013WAT      O69280   0.283   0.490   3.952
23013WAT     H169281   0.218   0.551   3.908
23013WAT     H269282   0.249   0.396   3.947
23014WAT      O69283   6.171   8.655   0.023
23014WAT     H169284   6.171   8.555   0.028
23014WAT     H269285   6.088   8.686  -0.023
23015WAT      O69286   4.896   8.087   2.106
23015WAT     H169287   4.841   8.138   2.040
23015WAT     H269288   4.932   8.005   2.063
23016WAT      O69289   3.004   8.698   7.590
23016WAT     H169290   2.962   8.615   7.554
23016WAT     H269291   2.933   8.765   7.611
23017WAT      O69292   9.632   3.556   7.646
23017WAT     H169293   9.723   3.535   7.680
23017WAT     H269294   9.575   3.473   7.648
23018WAT      O69295   6.618   3.024   8.100
23018WAT     H169296   6.548   3.031   8.030
23018WAT     H269297   6.639   3.114   8.137
23019WAT      O69298   0.647   3.598   0.337
23019WAT     H169299   0.632   3.633   0.244
23019WAT     H269300   0.670   3.501   0.333
23020WAT      O69301   0.963   5.898   0.049
23020WAT     H169302   1.011   5.891  -0.038
23020WAT     H269303   0.971   5.991   0.085
23021WAT      O69304   4.026   0.970   4.090
23021WAT     H169305   4.111   1.023   4.092
23021WAT     H269306   4.007   0.941   3.996
23022WAT      O69307   8.060   6.304   0.159
23022WAT     H169308   8.000   6.343   0.089
23022WAT     H269309   8.146   6.274   0.116
23023WAT      O69310   8.240   2.062   5.833
23023WAT     H169311   8.299   2.050   5.753
23023WAT     H269312   8.174   2.135   5.815
23024WAT      O69313   5.229   5.909   5.417
23024WAT     H169314   5.250   5.864   5.330
23024WAT     H269315   5.174   5.991   5.399
23025WAT      O69316   1.070   8.945   7.203
23025WAT     H169317   1.163   8.965   7.174
23025WAT     H269318   1.040   9.012   7.271
23026WAT      O69319   0.895   4.845   2.227
23026WAT     H169320   0.931   4.858   2.134
23026WAT     H269321   0.870   4.934   2.266
23027WAT      O69322   0.065   6.011   3.073
23027WAT     H169323   0.093   6.058   3.157
23027WAT     H269324   0.146   5.987   3.020
23028WAT      O69325   4.719   0.187   1.207
23028WAT     H169326   4.802   0.241   1.217
23028WAT     H269327   4.644   0.233   1.254
23029WAT      O69328   8.516   1.331   0.999
23029WAT     H169329   8.589   1.363   1.058
23029WAT     H269330   8.491   1.402   0.934
23030WAT      O69331   1.333   8.392   9.285
23030WAT     H169332   1.327   8.392   9.186
23030WAT     H269333   1.261   8.449   9.324
23031WAT      O69334   4.775   1.452   4.717
23031WAT     H169335   4.724   1.391   4.656
23031WAT     H269336   4.861   1.479   4.674
23032WAT      O69337   3.541   8.867   8.249
23032WAT     H169338   3.492   8.829   8.170
23032WAT     H269339   3.476   8.914   8.309
23033WAT      O69340   4.244   3.279   5.582
23033WAT     H169341   4.218   3.216   5.655
23033WAT     H269342   4.167   3.338   5.560
23034WAT      O69343   0.054   3.228   8.430
23034WAT     H169344  -0.003   3.155   8.393
23034WAT     H269345  -0.003   3.287   8.488
23035WAT      O69346   8.249   2.607   3.398
23035WAT     H169347   8.306   2.626   3.318
23035WAT     H269348   8.305   2.565   3.470
23036WAT      O69349   4.539   3.898   4.287
23036WAT     H169350   4.611   3.867   4.349
23036WAT     H269351   4.479   3.821   4.265
23037WAT      O69352   1.272   4.911   3.550
23037WAT     H169353   1.182   4.956   3.550
23037WAT     H269354   1.289   4.870   3.639
23038WAT      O69355   5.351   7.726   5.125
23038WAT     H169356   5.353   7.808   5.182
23038WAT     H269357   5.380   7.647   5.179
23039WAT      O69358   0.745   7.998   9.807
23039WAT     H169359   0.761   7.957   9.717
23039WAT     H269360   0.817   8.066   9.826
23040WAT      O69361   8.755   9.756   5.624
23040WAT     H169362   8.674   9.810   5.604
23040WAT     H269363   8.776   9.697   5.545
23041WAT      O69364   7.279   8.201   3.971
23041WAT     H169365   7.239   8.293   3.963
23041WAT     H269366   7.289   8.161   3.881
23042WAT      O69367   6.447   5.419   0.709
23042WAT     H169368   6.513   5.397   0.637
23042WAT     H269369   6.445   5.518   0.723
23043WAT      O69370   2.960   3.810   4.678
23043WAT     H169371   3.039   3.796   4.739
23043WAT     H269372   2.877   3.819   4.733
23044WAT      O69373   9.509   7.502   8.292
23044WAT     H169374   9.484   7.586   8.342
23044WAT     H269375   9.492   7.516   8.194
23045WAT      O69376   1.935   1.740   1.025
23045WAT     H169377   1.877   1.814   1.059
23045WAT     H269378   1.877   1.664   0.995
23046WAT      O69379   8.001   2.998   8.443
23046WAT     H169380   7.975   3.082   8.491
23046WAT     H269381   7.920   2.950   8.411
23047WAT      O69382   1.051   8.967   5.505
23047WAT     H169383   1.009   8.996   5.419
23047WAT     H269384   1.137   9.017   5.519
23048WAT      O69385   6.667   9.533   9.395
23048WAT     H169386   6.683   9.585   9.479
23048WAT     H269387   6.589   9.471   9.408
23049WAT      O69388   5.403   5.019   3.938
23049WAT     H169389   5.500   5.042   3.933
23049WAT     H269390   5.368   5.039   4.029
23050WAT      O69391   0.308   8.319   2.267
23050WAT     H169392   0.267   8.380   2.335
23050WAT     H269393   0.267   8.336   2.178
23051WAT      O69394   3.875   5.308   0.243
23051WAT     H169395   3.957   5.361   0.265
23051WAT     H269396   3.872   5.226   0.301
23052WAT      O69397   2.525   5.360   7.325
23052WAT     H169398   2.610   5.333   7.371
23052WAT     H269399   2.501   5.453   7.352
23053WAT      O69400   6.890   3.878   0.702
23053WAT     H169401   6.961   3.819   0.740
23053WAT     H269402   6.895   3.968   0.744
23054WAT      O69403   7.225   0.210   4.819
23054WAT     H169404   7.245   0.227   4.916
23054WAT     H269405   7.304   0.237   4.764
23055WAT      O69406   9.424   2.990   2.004
23055WAT     H169407   9.391   3.067   1.949
23055WAT     H269408   9.406   3.007   2.101
23056WAT      O69409   4.576   9.183   3.643
23056WAT     H169410   4.483   9.215   3.624
23056WAT     H269411   4.638   9.215   3.572
23057WAT      O69412   0.961   3.312   4.234
23057WAT     H169413   0.861   3.314   4.241
23057WAT     H269414   0.992   3.218   4.217
23058WAT      O69415   7.378   6.778   1.172
23058WAT     H169416   7.354   6.692   1.216
23058WAT     H269417   7.411   6.843   1.241
23059WAT      O69418   6.241   0.853   0.984
23059WAT     H169419   6.279   0.878   1.072
23059WAT     H269420   6.304   0.791   0.936
23060WAT      O69421   8.054   1.198   8.824
23060WAT     H169422   8.110   1.227   8.902
23060WAT     H269423   7.963   1.173   8.857
23061WAT      O69424   9.482   5.045   2.676
23061WAT     H169425   9.443   4.981   2.610
23061WAT     H269426   9.549   4.997   2.733
23062WAT      O69427   5.387   3.926   2.252
23062WAT     H169428   5.397   3.930   2.351
23062WAT     H269429   5.474   3.948   2.208
23063WAT      O69430   3.399   7.347   7.303
23063WAT     H169431   3.439   7.399   7.378
23063WAT     H269432   3.399   7.403   7.220
23064WAT      O69433   4.079   2.242   2.227
23064WAT     H169434   4.053   2.317   2.287
23064WAT     H269435   4.085   2.157   2.279
23065WAT      O69436   9.096   7.599   9.705
23065WAT     H169437   9.153   7.641   9.634
23065WAT     H269438   9.147   7.524   9.748
23066WAT      O69439   4.030   3.909   5.923
23066WAT     H169440   3.987   3.926   6.011
23066WAT     H269441   4.116   3.860   5.936
23067WAT      O69442   0.864   9.686   1.872
23067WAT     H169443   0.953   9.688   1.826
23067WAT     H269444   0.873   9.723   1.965
23068WAT      O69445   0.745   3.658   9.454
23068WAT     H169446   0.651   3.671   9.424
23068WAT     H269447   0.792   3.596   9.390
23069WAT      O69448   9.865   6.143   4.123
23069WAT     H169449   9.822   6.213   4.065
23069WAT     H269450   9.802   6.117   4.196
23070WAT      O69451   3.130   9.661   6.921
23070WAT     H169452   3.116   9.753   6.885
23070WAT     H269453   3.115   9.594   6.847
23071WAT      O69454   8.554   4.124   2.641
23071WAT     H169455   8.538   4.116   2.542
23071WAT     H269456   8.574   4.220   2.663
23072WAT      O69457   7.843   8.456   3.788
23072WAT     H169458   7.850   8.476   3.886
23072WAT     H269459   7.757   8.494   3.753
23073WAT      O69460   6.450   5.566   7.707
23073WAT     H169461   6.394   5.610   7.637
23073WAT     H269462   6.513   5.632   7.747
23074WAT      O69463   1.081   5.403   3.160
23074WAT     H169464   1.078   5.435   3.254
23074WAT     H269465   1.033   5.316   3.153
23075WAT      O69466   9.141   5.604   8.928
23075WAT     H169467   9.191   5.517   8.929
23075WAT     H269468   9.191   5.671   8.983
23076WAT      O69469   6.885   3.228   8.993
23076WAT     H169470   6.793   3.196   8.973
23076WAT     H269471   6.880   3.309   9.052
23077WAT      O69472   8.414   1.788   9.555
23077WAT     H169473   8.429   1.692   9.579
23077WAT     H269474   8.333   1.796   9.497
23078WAT      O69475   6.827   7.229   1.976
23078WAT     H169476   6.812   7.305   1.914
23078WAT     H269477   6.920   7.195   1.966
23079WAT      O69478   6.128   7.702   2.419
23079WAT     H169479   6.225   7.722   2.432
23079WAT     H269480   6.080   7.711   2.506
23080WAT      O69481   9.068   2.200   2.094
23080WAT     H169482   9.080   2.102   2.113
23080WAT     H269483   9.042   2.212   1.999
23081WAT      O69484   6.405   4.836   4.458
23081WAT     H169485   6.331   4.900   4.477
23081WAT     H269486   6.473   4.842   4.531
23082WAT      O69487   7.581   2.172   9.825
23082WAT     H169488   7.531   2.107   9.768
23082WAT     H269489   7.675   2.180   9.791
23083WAT      O69490   5.278   0.568   3.344
23083WAT     H169491   5.292   0.644   3.281
23083WAT     H269492   5.279   0.482   3.294
23084WAT      O69493   2.208   3.420   8.442
23084WAT     H169494   2.255   3.465   8.518
23084WAT     H269495   2.177   3.329   8.472
23085WAT      O69496   2.204   8.062   4.465
23085WAT     H169497   2.212   8.118   4.547
23085WAT     H269498   2.200   7.965   4.491
23086WAT      O69499   0.826   9.842   0.232
23086WAT     H169500   0.925   9.834   0.243
23086WAT     H269501   0.785   9.875   0.318
23087WAT      O69502   9.079   5.278   3.421
23087WAT     H169503   9.093   5.231   3.508
23087WAT     H269504   8.991   5.251   3.382
23088WAT      O69505   3.031   8.933   5.301
23088WAT     H169506   2.982   9.020   5.298
23088WAT     H269507   3.077   8.924   5.389
23089WAT      O69508   6.633   9.199   9.174
23089WAT     H169509   6.593   9.182   9.084
23089WAT     H269510   6.704   9.131   9.193
23090WAT      O69511   7.654   9.373   3.340
23090WAT     H169512   7.612   9.387   3.430
23090WAT     H269513   7.696   9.283   3.336
23091WAT      O69514   2.184   6.024   6.866
23091WAT     H169515   2.163   6.122   6.862
23091WAT     H269516   2.101   5.973   6.887
23092WAT      O69517   3.461   3.485   2.161
23092WAT     H169518   3.511   3.571   2.158
23092WAT     H269519   3.504   3.423   2.228
23093WAT      O69520   0.685   6.672   2.108
23093WAT     H169521   0.645   6.581   2.124
23093WAT     H269522   0.688   6.690   2.010
23094WAT      O69523   4.048   5.775   2.265
23094WAT     H169524   4.033   5.859   2.317
23094WAT     H269525   3.995   5.700   2.306
23095WAT      O69526   0.206   2.126   7.024
23095WAT     H169527   0.264   2.205   7.046
23095WAT     H269528   0.182   2.078   7.109
23096WAT      O69529   1.429   9.538   5.360
23096WAT     H169530   1.442   9.526   5.459
23096WAT     H269531   1.337   9.571   5.343
23097WAT      O69532   1.223   0.987   3.404
23097WAT     H169533   1.317   0.958   3.386
23097WAT     H269534   1.222   1.084   3.431
23098WAT      O69535   1.482   0.926   3.344
23098WAT     H169536   1.496   1.007   3.287
23098WAT     H269537   1.549   0.926   3.419
23099WAT      O69538   1.283   7.438   5.674
23099WAT     H169539   1.233   7.525   5.676
23099WAT     H269540   1.381   7.456   5.688
23100WAT      O69541   3.166   1.108   1.472
23100WAT     H169542   3.121   1.194   1.495
23100WAT     H269543   3.126   1.033   1.525
23101WAT      O69544   8.925   3.405   4.507
23101WAT     H169545   8.907   3.503   4.502
23101WAT     H269546   9.021   3.389   4.531
23102WAT      O69547   3.859   6.910   8.948
23102WAT     H169548   3.798   6.889   9.024
23102WAT     H269549   3.874   6.826   8.894
23103WAT      O69550   4.624   4.674   1.702
23103WAT     H169551   4.557   4.724   1.756
23103WAT     H269552   4.647   4.588   1.748
23104WAT      O69553   5.975   2.124   1.002
23104WAT     H169554   5.974   2.222   1.021
23104WAT     H269555   5.950   2.108   0.907
23105WAT      O69556   6.456   6.110   0.337
23105WAT     H169557   6.466   6.075   0.430
23105WAT     H269558   6.359   6.130   0.319
23106WAT      O69559   3.651   6.401   2.279
23106WAT     H169560   3.597   6.407   2.363
23106WAT     H269561   3.609   6.334   2.218
23107WAT      O69562   7.277   0.475   0.836
23107WAT     H169563   7.267   0.550   0.901
23107WAT     H269564   7.373   0.462   0.814
23108WAT      O69565   2.288   7.895   1.377
23108WAT     H169566   2.308   7.890   1.280
23108WAT     H269567   2.268   7.804   1.412
23109WAT      O69568   9.546   1.184   3.803
23109WAT     H169569   9.631   1.133   3.788
23109WAT     H269570   9.496   1.190   3.717
23110WAT      O69571   8.008   2.645   1.878
23110WAT     H169572   8.055   2.675   1.795
23110WAT     H269573   8.059   2.571   1.920
23111WAT      O69574   2.626   8.202   5.549
23111WAT     H169575   2.617   8.139   5.626
23111WAT     H269576   2.564   8.280   5.562
23112WAT      O69577   4.418   4.766   9.419
23112WAT     H169578   4.388   4.800   9.330
23112WAT     H269579   4.406   4.837   9.488
23113WAT      O69580   2.200   7.137   1.369
23113WAT     H169581   2.142   7.161   1.291
23113WAT     H269582   2.143   7.116   1.448
23114WAT      O69583   5.608   2.334   5.984
23114WAT     H169584   5.555   2.413   5.955
23114WAT     H269585   5.698   2.363   6.015
23115WAT      O69586   7.375   7.583   2.738
23115WAT     H169587   7.470   7.550   2.737
23115WAT     H269588   7.330   7.552   2.821
23116WAT      O69589   4.993   5.368   8.867
23116WAT     H169590   5.080   5.384   8.914
23116WAT     H269591   4.919   5.363   8.934
23117WAT      O69592   6.123   2.258   5.722
23117WAT     H169593   6.133   2.299   5.631
23117WAT     H269594   6.106   2.160   5.712
23118WAT      O69595   2.027   6.744   2.431
23118WAT     H169596   2.056   6.705   2.519
23118WAT     H269597   2.033   6.843   2.435
23119WAT      O69598   1.232   0.553   8.871
23119WAT     H169599   1.325   0.529   8.898
23119WAT     H269600   1.171   0.477   8.892
23120WAT      O69601   8.979   7.736   2.704
23120WAT     H169602   8.935   7.826   2.709
23120WAT     H269603   9.017   7.723   2.612
23121WAT      O69604   0.468   0.819   2.907
23121WAT     H169605   0.421   0.756   2.846
23121WAT     H269606   0.474   0.909   2.864
23122WAT      O69607   7.733   8.669   7.384
23122WAT     H169608   7.646   8.631   7.416
23122WAT     H269609   7.766   8.737   7.449
23123WAT      O69610   4.084   4.140   2.216
23123WAT     H169611   3.988   4.111   2.222
23123WAT     H269612   4.097   4.223   2.270
23124WAT      O69613   0.969   3.827   8.098
23124WAT     H169614   0.990   3.776   8.182
23124WAT     H269615   0.935   3.764   8.028
23125WAT      O69616   8.510   7.315   1.993
23125WAT     H169617   8.449   7.388   2.024
23125WAT     H269618   8.463   7.259   1.926
23126WAT      O69619   0.050   3.412   3.122
23126WAT     H169620  -0.048   3.432   3.132
23126WAT     H269621   0.095   3.490   3.079
23127WAT      O69622   0.853   6.624   1.888
23127WAT     H169623   0.945   6.646   1.858
23127WAT     H269624   0.856   6.547   1.953
23128WAT      O69625   2.540   6.319   5.527
23128WAT     H169626   2.528   6.362   5.616
23128WAT     H269627   2.637   6.303   5.511
23129WAT      O69628   8.893   2.650   2.504
23129WAT     H169629   8.907   2.731   2.562
23129WAT     H269630   8.843   2.581   2.555
23130WAT      O69631   8.378   3.046   4.015
23130WAT     H169632   8.400   3.033   4.112
23130WAT     H269633   8.333   3.135   4.003
23131WAT      O69634   6.769   4.450   7.056
23131WAT     H169635   6.676   4.428   7.087
23131WAT     H269636   6.835   4.409   7.118
23132WAT      O69637   1.732   0.634   6.760
23132WAT     H169638   1.755   0.634   6.663
23132WAT     H269639   1.637   0.604   6.772
23133WAT      O69640   7.735   1.771   5.100
23133WAT     H169641   7.673   1.745   5.175
23133WAT     H269642   7.826   1.735   5.118
23134WAT      O69643   4.971   3.647   9.124
23134WAT     H169644   4.912   3.707   9.177
23134WAT     H269645   4.919   3.607   9.048
23135WAT      O69646   3.974   2.095   4.445
23135WAT     H169647   4.026   2.070   4.527
23135WAT     H269648   3.987   2.024   4.375
23136WAT      O69649   0.444   2.328   9.143
23136WAT     H169650   0.405   2.258   9.203
23136WAT     H269651   0.378   2.354   9.073
23137WAT      O69652   2.808   7.902   5.541
23137WAT     H169653   2.777   7.898   5.446
23137WAT     H269654   2.742   7.954   5.595
23138WAT      O69655   9.819   0.171   3.341
23138WAT     H169656   9.845   0.258   3.300
23138WAT     H269657   9.885   0.101   3.316
23139WAT      O69658   2.143   3.052   1.583
23139WAT     H169659   2.206   3.121   1.545
23139WAT     H269660   2.109   2.995   1.509
23140WAT      O69661   0.691   6.509   0.228
23140WAT     H169662   0.741   6.567   0.164
23140WAT     H269663   0.613   6.468   0.180
23141WAT      O69664   3.141   3.473   8.285
23141WAT     H169665   3.162   3.453   8.189
23141WAT     H269666   3.097   3.394   8.327
23142WAT      O69667   4.399   1.509   0.762
23142WAT     H169668   4.400   1.434   0.696
23142WAT     H269669   4.315   1.563   0.749
23143WAT      O69670   5.194   0.734   3.696
23143WAT     H169671   5.257   0.777   3.631
23143WAT     H269672   5.131   0.674   3.647
23144WAT      O69673   7.815   1.410   6.407
23144WAT     H169674   7.765   1.324   6.397
23144WAT     H269675   7.862   1.431   6.322
23145WAT      O69676   2.961   2.617   1.753
23145WAT     H169677   2.944   2.541   1.816
23145WAT     H269678   2.940   2.703   1.800
23146WAT      O69679   2.490   1.064   4.037
23146WAT     H169680   2.523   0.977   4.074
23146WAT     H269681   2.392   1.071   4.050
23147WAT      O69682   7.207   0.006   8.491
23147WAT     H169683   7.302   0.030   8.470
23147WAT     H269684   7.164   0.082   8.541
23148WAT      O69685   4.052   9.477   9.791
23148WAT     H169686   4.089   9.437   9.707
23148WAT     H269687   4.008   9.405   9.845
23149WAT      O69688   5.350   3.216   7.433
23149WAT     H169689   5.272   3.225   7.495
23149WAT     H269690   5.342   3.283   7.359
23150WAT      O69691   0.859   7.860   9.601
23150WAT     H169692   0.921   7.795   9.645
23150WAT     H269693   0.912   7.930   9.553
23151WAT      O69694   3.955   6.559   6.454
23151WAT     H169695   3.926   6.473   6.413
23151WAT     H269696   3.975   6.544   6.551
23152WAT      O69697   2.706   9.595   0.925
23152WAT     H169698   2.720   9.646   1.010
23152WAT     H269699   2.609   9.592   0.903
23153WAT      O69700   2.723   9.339   1.323
23153WAT     H169701   2.809   9.383   1.297
23153WAT     H269702   2.662   9.407   1.363
23154WAT      O69703   1.076   7.778   1.410
23154WAT     H169704   1.001   7.836   1.379
23154WAT     H269705   1.161   7.805   1.364
23155WAT      O69706   1.874   4.017   6.827
23155WAT     H169707   1.893   4.095   6.767
23155WAT     H269708   1.955   3.958   6.831
23156WAT      O69709   3.074   2.729   4.612
23156WAT     H169710   3.101   2.645   4.564
23156WAT     H269711   3.134   2.742   4.691
23157WAT      O69712   0.132   8.704   7.274
23157WAT     H169713   0.049   8.673   7.321
23157WAT     H269714   0.109   8.736   7.183
23158WAT      O69715   2.010   8.590   1.576
23158WAT     H169716   2.045   8.684   1.576
23158WAT     H269717   2.065   8.536   1.512
23159WAT      O69718   5.404   2.079   2.120
23159WAT     H169719   5.406   2.041   2.028
23159WAT     H269720   5.470   2.154   2.126
23160WAT      O69721   2.995   9.149   7.830
23160WAT     H169722   2.923   9.186   7.888
23160WAT     H269723   3.020   9.217   7.760
23161WAT      O69724   3.430   4.587   8.359
23161WAT     H169725   3.415   4.637   8.444
23161WAT     H269726   3.381   4.632   8.285
23162WAT      O69727   5.135   9.293   1.321
23162WAT     H169728   5.080   9.232   1.265
23162WAT     H269729   5.102   9.292   1.415
23163WAT      O69730   2.358   5.155   7.292
23163WAT     H169731   2.286   5.167   7.224
23163WAT     H269732   2.409   5.240   7.301
23164WAT      O69733   6.717   5.241   1.797
23164WAT     H169734   6.707   5.142   1.786
23164WAT     H269735   6.801   5.271   1.751
23165WAT      O69736   8.406   4.445   3.868
23165WAT     H169737   8.404   4.388   3.951
23165WAT     H269738   8.464   4.401   3.799
23166WAT      O69739   2.852   1.247   5.716
23166WAT     H169740   2.759   1.219   5.692
23166WAT     H269741   2.878   1.206   5.803
23167WAT      O69742   7.698   5.486   9.268
23167WAT     H169743   7.675   5.489   9.171
23167WAT     H269744   7.615   5.472   9.322
23168WAT      O69745   4.501   7.336   2.188
23168WAT     H169746   4.540   7.282   2.263
23168WAT     H269747   4.508   7.433   2.209
23169WAT      O69748   4.760   6.729   4.970
23169WAT     H169749   4.724   6.713   5.062
23169WAT     H269750   4.765   6.827   4.952
23170WAT      O69751   1.464   3.330   6.657
23170WAT     H169752   1.459   3.391   6.578
23170WAT     H269753   1.464   3.384   6.741
23171WAT      O69754   5.375   5.920   8.378
23171WAT     H169755   5.348   5.828   8.408
23171WAT     H269756   5.432   5.912   8.296
23172WAT      O69757   5.658   4.584   7.453
23172WAT     H169758   5.734   4.644   7.429
23172WAT     H269759   5.630   4.531   7.373
23173WAT      O69760   8.527   1.880   9.162
23173WAT     H169761   8.552   1.901   9.067
23173WAT     H269762   8.490   1.788   9.167
23174WAT      O69763   2.029   2.604   1.610
23174WAT     H169764   2.051   2.544   1.687
23174WAT     H269765   2.111   2.655   1.584
23175WAT      O69766   6.667   8.933   7.478
23175WAT     H169767   6.687   8.895   7.388
23175WAT     H269768   6.571   8.915   7.501
23176WAT      O69769   8.111   8.510   7.939
23176WAT     H169770   8.025   8.541   7.981
23176WAT     H269771   8.115   8.410   7.942
23177WAT      O69772   8.845   2.654   0.604
23177WAT     H169773   8.762   2.693   0.564
23177WAT     H269774   8.910   2.727   0.625
23178WAT      O69775   6.746   2.963   2.467
23178WAT     H169776   6.816   2.919   2.410
23178WAT     H269777   6.723   2.902   2.543
23179WAT      O69778   1.100   9.400   9.336
23179WAT     H169779   1.009   9.366   9.311
23179WAT     H269780   1.092   9.468   9.409
23180WAT      O69781   1.936   1.803   3.307
23180WAT     H169782   1.853   1.855   3.288
23180WAT     H269783   1.934   1.717   3.256
23181WAT      O69784   7.467   0.285   3.665
23181WAT     H169785   7.498   0.192   3.687
23181WAT     H269786   7.456   0.293   3.566
23182WAT      O69787   5.531   8.129   2.493
23182WAT     H169788   5.588   8.179   2.428
23182WAT     H269789   5.590   8.077   2.556
23183WAT      O69790   4.392   9.517   2.976
23183WAT     H169791   4.319   9.497   3.041
23183WAT     H269792   4.417   9.614   2.984
23184WAT      O69793   1.492   8.801   0.648
23184WAT     H169794   1.568   8.858   0.614
23184WAT     H269795   1.407   8.853   0.643
23185WAT      O69796   0.737   4.920   5.959
23185WAT     H169797   0.836   4.923   5.950
23185WAT     H269798   0.695   4.976   5.887
23186WAT      O69799   1.837   7.985   4.718
23186WAT     H169800   1.901   7.964   4.792
23186WAT     H269801   1.860   7.930   4.638
23187WAT      O69802   3.564   0.258   1.383
23187WAT     H169803   3.552   0.306   1.296
23187WAT     H269804   3.550   0.321   1.459
23188WAT      O69805   4.509   1.280   9.453
23188WAT     H169806   4.445   1.203   9.449
23188WAT     H269807   4.477   1.347   9.520
23189WAT      O69808   6.110   3.367   3.914
23189WAT     H169809   6.165   3.440   3.955
23189WAT     H269810   6.049   3.406   3.845
23190WAT      O69811   9.733   3.774   9.880
23190WAT     H169812   9.815   3.783   9.937
23190WAT     H269813   9.725   3.852   9.819
23191WAT      O69814   5.661   0.235   5.361
23191WAT     H169815   5.613   0.264   5.278
23191WAT     H269816   5.759   0.258   5.352
23192WAT      O69817   8.136   8.639   9.262
23192WAT     H169818   8.055   8.621   9.206
23192WAT     H269819   8.217   8.646   9.204
23193WAT      O69820   6.372   6.277   4.514
23193WAT     H169821   6.435   6.214   4.558
23193WAT     H269822   6.424   6.342   4.458
23194WAT      O69823   2.093   2.880   8.229
23194WAT     H169824   2.060   2.880   8.323
23194WAT     H269825   2.119   2.787   8.202
23195WAT      O69826   2.494   2.754   3.384
23195WAT     H169827   2.411   2.773   3.435
23195WAT     H269828   2.561   2.712   3.445
23196WAT      O69829   5.429   5.650   1.927
23196WAT     H169830   5.463   5.625   1.836
23196WAT     H269831   5.505   5.650   1.992
23197WAT      O69832   8.961   2.150   5.692
23197WAT     H169833   9.030   2.148   5.621
23197WAT     H269834   8.992   2.096   5.770
23198WAT      O69835   7.024   6.103   9.103
23198WAT     H169836   6.958   6.082   9.031
23198WAT     H269837   7.070   6.189   9.083
23199WAT      O69838   9.370   4.647   7.913
23199WAT     H169839   9.329   4.571   7.862
23199WAT     H269840   9.466   4.627   7.931
23200WAT      O69841   8.285   8.270   0.403
23200WAT     H169842   8.203   8.213   0.395
23200WAT     H269843   8.290   8.333   0.326
23201WAT      O69844   9.354   4.932   7.112
23201WAT     H169845   9.383   4.886   7.028
23201WAT     H269846   9.338   4.864   7.184
23202WAT      O69847   5.663   0.183   3.281
23202WAT     H169848   5.739   0.246   3.293
23202WAT     H269849   5.697   0.094   3.250
23203WAT      O69850   1.380   9.046   2.897
23203WAT     H169851   1.283   9.026   2.884
23203WAT     H269852   1.389   9.119   2.965
23204WAT      O69853   6.171   1.901   2.126
23204WAT     H169854   6.236   1.842   2.079
23204WAT     H269855   6.166   1.989   2.079
23205WAT      O69856   1.634   3.380   1.073
23205WAT     H169857   1.625   3.468   1.028
23205WAT     H269858   1.702   3.386   1.145
23206WAT      O69859   7.237   8.733   1.942
23206WAT     H169860   7.335   8.754   1.948
23206WAT     H269861   7.188   8.785   2.012
23207WAT      O69862   9.886   8.902   4.416
23207WAT     H169863   9.792   8.918   4.446
23207WAT     H269864   9.915   8.977   4.356
23208WAT      O69865   9.182   5.859   3.585
23208WAT     H169866   9.156   5.858   3.488
23208WAT     H269867   9.261   5.800   3.599
23209WAT      O69868   0.355   0.327   7.145
23209WAT     H169869   0.273   0.314   7.201
23209WAT     H269870   0.346   0.272   7.062
23210WAT      O69871   7.192   1.769   6.861
23210WAT     H169872   7.204   1.849   6.802
23210WAT     H269873   7.263   1.768   6.931
23211WAT      O69874   2.281   8.025   1.641
23211WAT     H169875   2.247   7.935   1.614
23211WAT     H269876   2.283   8.085   1.562
23212WAT      O69877   7.391   8.221   9.553
23212WAT     H169878   7.478   8.213   9.601
23212WAT     H269879   7.380   8.314   9.518
23213WAT      O69880   4.761   4.603   6.180
23213WAT     H169881   4.804   4.657   6.108
23213WAT     H269882   4.800   4.628   6.269
23214WAT      O69883   4.941   9.325   1.829
23214WAT     H169884   4.965   9.229   1.848
23214WAT     H269885   5.024   9.381   1.837
23215WAT      O69886   1.287   4.078   2.489
23215WAT     H169887   1.275   4.002   2.425
23215WAT     H269888   1.376   4.122   2.472
23216WAT      O69889   2.988   0.433   2.181
23216WAT     H169890   3.054   0.498   2.219
23216WAT     H269891   3.016   0.409   2.088
23217WAT      O69892   6.826   8.425   3.837
23217WAT     H169893   6.877   8.491   3.781
23217WAT     H269894   6.820   8.338   3.788
23218WAT      O69895   5.876   5.879   3.179
23218WAT     H169896   5.964   5.918   3.152
23218WAT     H269897   5.802   5.930   3.134
23219WAT      O69898   3.339   2.444   1.863
23219WAT     H169899   3.417   2.396   1.902
23219WAT     H269900   3.370   2.529   1.820
23220WAT      O69901   6.905   1.044   3.588
23220WAT     H169902   6.966   1.123   3.578
23220WAT     H269903   6.828   1.068   3.648
23221WAT      O69904   5.243   5.015   6.681
23221WAT     H169905   5.255   4.918   6.661
23221WAT     H269906   5.328   5.053   6.719
23222WAT      O69907   1.829   9.605   2.754
23222WAT     H169908   1.895   9.533   2.773
23222WAT     H269909   1.810   9.656   2.838
23223WAT      O69910   3.586   8.149   0.224
23223WAT     H169911   3.679   8.186   0.216
23223WAT     H269912   3.522   8.223   0.243
23224WAT      O69913   6.588   0.086   3.166
23224WAT     H169914   6.541   0.100   3.253
23224WAT     H269915   6.681   0.121   3.172
23225WAT      O69916   6.320   0.435   2.134
23225WAT     H169917   6.261   0.412   2.211
23225WAT     H269918   6.397   0.371   2.129
23226WAT      O69919   8.883   8.213   0.385
23226WAT     H169920   8.834   8.258   0.311
23226WAT     H269921   8.943   8.278   0.431
23227WAT      O69922   4.519   0.419   1.486
23227WAT     H169923   4.469   0.468   1.415
23227WAT     H269924   4.617   0.432   1.472
23228WAT      O69925   8.174   5.010   5.487
23228WAT     H169926   8.258   4.959   5.507
23228WAT     H269927   8.098   4.971   5.539
23229WAT      O69928   4.205   3.501   5.263
23229WAT     H169929   4.191   3.446   5.181
23229WAT     H269930   4.149   3.466   5.338
23230WAT      O69931   2.789   1.149   6.142
23230WAT     H169932   2.783   1.241   6.180
23230WAT     H269933   2.812   1.084   6.215
23231WAT      O69934   4.138   0.576   3.943
23231WAT     H169935   4.173   0.664   3.911
23231WAT     H269936   4.193   0.502   3.904
23232WAT      O69937   7.412   8.517   9.531
23232WAT     H169938   7.431   8.530   9.434
23232WAT     H269939   7.328   8.565   9.556
23233WAT      O69940   5.681   1.063   4.349
23233WAT     H169941   5.676   1.066   4.249
23233WAT     H269942   5.621   1.132   4.388
23234WAT      O69943   0.906   6.766   4.420
23234WAT     H169944   0.871   6.846   4.370
23234WAT     H269945   0.982   6.794   4.478
23235WAT      O69946   4.548   9.700   2.184
23235WAT     H169947   4.485   9.732   2.112
23235WAT     H269948   4.595   9.617   2.152
23236WAT      O69949   6.084   1.626   2.759
23236WAT     H169950   6.027   1.544   2.759
23236WAT     H269951   6.080   1.669   2.668
23237WAT      O69952   9.724   5.277   1.131
23237WAT     H169953   9.695   5.198   1.077
23237WAT     H269954   9.819   5.298   1.110
23238WAT      O69955   5.254   0.630   5.426
23238WAT     H169956   5.262   0.683   5.510
23238WAT     H269957   5.258   0.533   5.447
23239WAT      O69958   2.837   6.747   1.767
23239WAT     H169959   2.888   6.812   1.823
23239WAT     H269960   2.815   6.788   1.679
23240WAT      O69961   0.013   9.769   4.296
23240WAT     H169962  -0.058   9.825   4.253
23240WAT     H269963   0.048   9.816   4.378
23241WAT      O69964   5.181   2.744   7.404
23241WAT     H169965   5.147   2.669   7.461
23241WAT     H269966   5.281   2.744   7.406
23242WAT      O69967   7.455   3.160   4.668
23242WAT     H169968   7.377   3.098   4.681
23242WAT     H269969   7.421   3.251   4.642
23243WAT      O69970   5.658   4.262   3.228
23243WAT     H169971   5.582   4.311   3.186
23243WAT     H269972   5.725   4.329   3.261
23244WAT      O69973   3.088   0.664   3.775
23244WAT     H169974   3.039   0.735   3.724
23244WAT     H269975   3.088   0.688   3.873
23245WAT      O69976   6.829   5.360   3.174
23245WAT     H169977   6.738   5.329   3.149
23245WAT     H269978   6.827   5.397   3.267
23246WAT      O69979   4.038   1.085   4.413
23246WAT     H169980   4.115   1.141   4.445
23246WAT     H269981   4.007   1.118   4.324
23247WAT      O69982   3.235   1.557   7.142
23247WAT     H169983   3.204   1.464   7.161
23247WAT     H269984   3.333   1.556   7.122
23248WAT      O69985   8.353   6.073   6.307
23248WAT     H169986   8.351   6.139   6.232
23248WAT     H269987   8.442   6.075   6.351
23249WAT      O69988   9.647   7.940   1.348
23249WAT     H169989   9.705   7.866   1.313
23249WAT     H269990   9.700   7.998   1.410
23250WAT      O69991   0.276   8.897   3.928
23250WAT     H169992   0.325   8.967   3.875
23250WAT     H269993   0.180   8.895   3.899
23251WAT      O69994   3.769   7.620   1.155
23251WAT     H169995   3.682   7.652   1.191
23251WAT     H269996   3.791   7.670   1.071
23252WAT      O69997   4.050   7.494   9.190
23252WAT     H169998   4.036   7.577   9.136
23252WAT     H269999   3.961   7.457   9.218
23253WAT      O70000   2.661   6.442   4.761
23253WAT     H170001   2.675   6.516   4.695
23253WAT     H270002   2.742   6.431   4.817
23254WAT      O70003   3.685   1.761   5.097
23254WAT     H170004   3.674   1.741   5.194
23254WAT     H270005   3.719   1.679   5.050
23255WAT      O70006   7.838   7.751   3.673
23255WAT     H170007   7.815   7.690   3.749
23255WAT     H270008   7.929   7.789   3.687
23256WAT      O70009   6.921   1.977   3.082
23256WAT     H170010   6.903   1.995   2.985
23256WAT     H270011   6.834   1.958   3.128
23257WAT      O70012   3.887   1.164   9.789
23257WAT     H170013   3.826   1.243   9.801
23257WAT     H270014   3.980   1.196   9.773
23258WAT      O70015   3.710   2.009   8.810
23258WAT     H170016   3.649   2.059   8.748
23258WAT     H270017   3.725   2.064   8.893
23259WAT      O70018   7.511   9.748   8.312
23259WAT     H170019   7.430   9.700   8.279
23259WAT     H270020   7.564   9.688   8.371
23260WAT      O70021   5.118   6.642   4.832
23260WAT     H170022   5.139   6.696   4.913
23260WAT     H270023   5.047   6.575   4.853
23261WAT      O70024   8.694   2.195   9.336
23261WAT     H170025   8.626   2.268   9.326
23261WAT     H270026   8.757   2.197   9.258
23262WAT      O70027   2.992   0.114   3.498
23262WAT     H170028   3.003   0.202   3.543
23262WAT     H270029   2.922   0.060   3.545
23263WAT      O70030   8.897   1.549   2.422
23263WAT     H170031   8.859   1.550   2.515
23263WAT     H270032   8.855   1.474   2.370
23264WAT      O70033   7.239   6.323   4.762
23264WAT     H170034   7.207   6.373   4.842
23264WAT     H270035   7.239   6.384   4.683
23265WAT      O70036   6.316   0.778   3.985
23265WAT     H170037   6.220   0.755   3.969
23265WAT     H270038   6.347   0.845   3.917
23266WAT      O70039   6.202   7.161   1.711
23266WAT     H170040   6.192   7.260   1.719
23266WAT     H270041   6.281   7.132   1.764
23267WAT      O70042   8.810   1.988   7.290
23267WAT     H170043   8.724   2.006   7.340
23267WAT     H270044   8.859   1.914   7.335
23268WAT      O70045   4.260   2.493   6.059
23268WAT     H170046   4.267   2.537   5.970
23268WAT     H270047   4.349   2.496   6.105
23269WAT      O70048   2.239   7.909   7.046
23269WAT     H170049   2.163   7.844   7.051
23269WAT     H270050   2.252   7.952   7.135
23270WAT      O70051   8.748   2.595   1.633
23270WAT     H170052   8.812   2.536   1.584
23270WAT     H270053   8.780   2.608   1.727
23271WAT      O70054   0.369   5.155   4.951
23271WAT     H170055   0.283   5.194   4.983
23271WAT     H270056   0.407   5.212   4.878
23272WAT      O70057   6.739   1.761   1.645
23272WAT     H170058   6.719   1.809   1.559
23272WAT     H270059   6.753   1.828   1.718
23273WAT      O70060   2.983   9.142   2.156
23273WAT     H170061   2.957   9.105   2.066
23273WAT     H270062   3.080   9.126   2.172
23274WAT      O70063   1.708   9.819   3.213
23274WAT     H170064   1.784   9.767   3.173
23274WAT     H270065   1.745   9.898   3.262
23275WAT      O70066   5.936   9.221   5.293
23275WAT     H170067   5.903   9.290   5.357
23275WAT     H270068   5.872   9.213   5.216
23276WAT      O70069   3.741   3.850   7.229
23276WAT     H170070   3.765   3.843   7.132
23276WAT     H270071   3.809   3.906   7.276
23277WAT      O70072   9.747   6.093   3.711
23277WAT     H170073   9.784   6.044   3.790
23277WAT     H270074   9.760   6.192   3.723
23278WAT      O70075   1.107   5.684   7.226
23278WAT     H170076   1.009   5.681   7.243
23278WAT     H270077   1.154   5.717   7.309
23279WAT      O70078   2.929   9.278   7.002
23279WAT     H170079   2.858   9.348   6.990
23279WAT     H270080   2.978   9.295   7.088
23280WAT      O70081   4.950   4.078   7.812
23280WAT     H170082   4.892   4.071   7.731
23280WAT     H270083   5.039   4.116   7.786
23281WAT      O70084   3.563   9.080   2.098
23281WAT     H170085   3.561   8.988   2.059
23281WAT     H270086   3.658   9.113   2.101
23282WAT      O70087   9.862   2.632   9.391
23282WAT     H170088   9.884   2.537   9.374
23282WAT     H270089   9.908   2.663   9.475
23283WAT      O70090   0.069   0.323   2.192
23283WAT     H170091   0.005   0.269   2.246
23283WAT     H270092   0.035   0.417   2.184
23284WAT      O70093   8.831   4.095   2.028
23284WAT     H170094   8.776   4.121   1.948
23284WAT     H270095   8.926   4.121   2.013
23285WAT      O70096   1.742   7.052   3.259
23285WAT     H170097   1.824   7.086   3.212
23285WAT     H270098   1.760   7.045   3.357
23286WAT      O70099   6.101   8.673   4.942
23286WAT     H170100   6.192   8.687   4.904
23286WAT     H270101   6.059   8.762   4.962
23287WAT      O70102   5.448   8.038   1.019
23287WAT     H170103   5.361   8.050   0.972
23287WAT     H270104   5.519   8.091   0.974
23288WAT      O70105   3.506   2.440   1.527
23288WAT     H170106   3.508   2.493   1.611
23288WAT     H270107   3.486   2.500   1.450
23289WAT      O70108   3.829   3.336   2.176
23289WAT     H170109   3.865   3.346   2.269
23289WAT     H270110   3.889   3.383   2.112
23290WAT      O70111   5.448   4.404   6.008
23290WAT     H170112   5.542   4.381   5.982
23290WAT     H270113   5.424   4.493   5.968
23291WAT      O70114   5.212   2.360   3.523
23291WAT     H170115   5.161   2.334   3.605
23291WAT     H270116   5.151   2.354   3.443
23292WAT      O70117   8.584   9.204   6.576
23292WAT     H170118   8.518   9.131   6.554
23292WAT     H270119   8.570   9.235   6.670
23293WAT      O70120   3.985   5.963   0.934
23293WAT     H170121   3.934   6.046   0.911
23293WAT     H270122   3.928   5.904   0.992
23294WAT      O70123   8.561   4.275   6.070
23294WAT     H170124   8.642   4.260   6.127
23294WAT     H270125   8.525   4.187   6.041
23295WAT      O70126   0.625   8.077   6.254
23295WAT     H170127   0.544   8.018   6.256
23295WAT     H270128   0.705   8.026   6.285
23296WAT      O70129   6.282   9.330   3.898
23296WAT     H170130   6.363   9.363   3.848
23296WAT     H270131   6.310   9.299   3.989
23297WAT      O70132   4.528   4.554   7.026
23297WAT     H170133   4.578   4.472   7.057
23297WAT     H270134   4.430   4.535   7.027
23298WAT      O70135   2.299   7.952   8.406
23298WAT     H170136   2.299   7.932   8.504
23298WAT     H270137   2.386   7.924   8.365
23299WAT      O70138   8.064   8.483   8.829
23299WAT     H170139   7.968   8.474   8.801
23299WAT     H270140   8.070   8.484   8.929
23300WAT      O70141   7.369   9.281   9.601
23300WAT     H170142   7.321   9.318   9.680
23300WAT     H270143   7.329   9.192   9.576
23301WAT      O70144   9.227   8.127   7.736
23301WAT     H170145   9.241   8.056   7.667
23301WAT     H270146   9.310   8.182   7.744
23302WAT      O70147   8.870   3.919   5.830
23302WAT     H170148   8.810   3.880   5.759
23302WAT     H270149   8.910   3.844   5.883
23303WAT      O70150   3.169   7.883   0.594
23303WAT     H170151   3.098   7.947   0.565
23303WAT     H270152   3.248   7.890   0.532
23304WAT      O70153   9.109   0.397   7.091
23304WAT     H170154   9.126   0.373   7.186
23304WAT     H270155   9.163   0.338   7.031
23305WAT      O70156   0.573   6.980   3.133
23305WAT     H170157   0.592   6.959   3.037
23305WAT     H270158   0.570   7.079   3.145
23306WAT      O70159   0.455   3.479   2.035
23306WAT     H170160   0.454   3.408   2.105
23306WAT     H270161   0.448   3.438   1.944
23307WAT      O70162   7.570   4.513   0.894
23307WAT     H170163   7.479   4.475   0.910
23307WAT     H270164   7.593   4.506   0.797
23308WAT      O70165   3.706   4.139   3.128
23308WAT     H170166   3.784   4.124   3.068
23308WAT     H270167   3.736   4.182   3.213
23309WAT      O70168   9.721   1.161   2.324
23309WAT     H170169   9.696   1.126   2.233
23309WAT     H270170   9.736   1.084   2.386
23310WAT      O70171   7.374   2.167   5.011
23310WAT     H170172   7.449   2.128   5.064
23310WAT     H270173   7.400   2.257   4.977
23311WAT      O70174   7.331   6.752   7.714
23311WAT     H170175   7.233   6.769   7.711
23311WAT     H270176   7.348   6.653   7.711
23312WAT      O70177   6.501   9.141   2.439
23312WAT     H170178   6.481   9.239   2.427
23312WAT     H270179   6.577   9.115   2.379
23313WAT      O70180   4.471   6.073   1.366
23313WAT     H170181   4.472   6.000   1.298
23313WAT     H270182   4.494   6.036   1.456
23314WAT      O70183   1.097   5.776   2.822
23314WAT     H170184   1.125   5.866   2.854
23314WAT     H270185   1.011   5.784   2.771
23315WAT      O70186   9.111   4.253   7.593
23315WAT     H170187   9.191   4.313   7.596
23315WAT     H270188   9.028   4.306   7.612
23316WAT      O70189   5.882   3.312   7.024
23316WAT     H170190   5.935   3.392   7.054
23316WAT     H270191   5.791   3.342   6.995
23317WAT      O70192   2.256   4.555   5.251
23317WAT     H170193   2.228   4.541   5.346
23317WAT     H270194   2.226   4.476   5.196
23318WAT      O70195   5.390   5.471   4.758
23318WAT     H170196   5.375   5.500   4.663
23318WAT     H270197   5.315   5.414   4.788
23319WAT      O70198   6.426   4.811   6.620
23319WAT     H170199   6.474   4.796   6.534
23319WAT     H270200   6.491   4.800   6.696
23320WAT      O70201   5.422   5.826   0.062
23320WAT     H170202   5.521   5.820   0.076
23320WAT     H270203   5.386   5.904   0.113
23321WAT      O70204   5.301   5.897   7.397
23321WAT     H170205   5.224   5.877   7.457
23321WAT     H270206   5.283   5.980   7.344
23322WAT      O70207   3.382   1.976   4.128
23322WAT     H170208   3.326   1.956   4.208
23322WAT     H270209   3.351   2.061   4.086
23323WAT      O70210   5.999   8.367   8.729
23323WAT     H170211   5.953   8.389   8.815
23323WAT     H270212   6.090   8.332   8.749
23324WAT      O70213   2.751   6.767   5.464
23324WAT     H170214   2.653   6.769   5.447
23324WAT     H270215   2.795   6.706   5.398
23325WAT      O70216   1.812   1.053   0.673
23325WAT     H170217   1.766   1.056   0.584
23325WAT     H270218   1.911   1.042   0.658
23326WAT      O70219   7.778   7.667   0.847
23326WAT     H170220   7.760   7.685   0.944
23326WAT     H270221   7.726   7.586   0.818
23327WAT      O70222   3.754   0.954   5.048
23327WAT     H170223   3.805   0.954   5.134
23327WAT     H270224   3.656   0.944   5.068
23328WAT      O70225   7.141   8.609   2.293
23328WAT     H170226   7.127   8.679   2.223
23328WAT     H270227   7.054   8.594   2.342
23329WAT      O70228   6.450   2.241   7.529
23329WAT     H170229   6.483   2.166   7.471
23329WAT     H270230   6.350   2.247   7.521
23330WAT      O70231   1.395   6.102   3.460
23330WAT     H170232   1.400   6.002   3.448
23330WAT     H270233   1.412   6.146   3.372
23331WAT      O70234   1.614   6.477   3.773
23331WAT     H170235   1.610   6.398   3.834
23331WAT     H270236   1.691   6.536   3.798
23332WAT      O70237   0.520   7.857   4.736
23332WAT     H170238   0.445   7.873   4.800
23332WAT     H270239   0.487   7.864   4.642
23333WAT      O70240   1.318   4.206   1.305
23333WAT     H170241   1.348   4.126   1.252
23333WAT     H270242   1.370   4.211   1.390
23334WAT      O70243   8.525   8.347   8.996
23334WAT     H170244   8.498   8.378   9.087
23334WAT     H270245   8.495   8.414   8.928
23335WAT      O70246   2.894   6.513   7.856
23335WAT     H170247   2.868   6.546   7.765
23335WAT     H270248   2.980   6.556   7.884
23336WAT      O70249   0.703   4.238   7.459
23336WAT     H170250   0.635   4.235   7.532
23336WAT     H270251   0.660   4.270   7.375
23337WAT      O70252   2.267   5.056   2.653
23337WAT     H170253   2.334   5.022   2.718
23337WAT     H270254   2.251   4.987   2.582
23338WAT      O70255   2.510   0.304   5.402
23338WAT     H170256   2.537   0.313   5.498
23338WAT     H270257   2.433   0.240   5.395
23339WAT      O70258   6.244   2.470   2.206
23339WAT     H170259   6.273   2.561   2.235
23339WAT     H270260   6.252   2.463   2.106
23340WAT      O70261   3.923   6.969   1.887
23340WAT     H170262   3.916   6.916   1.971
23340WAT     H270263   3.964   6.913   1.815
23341WAT      O70264   9.470   8.494   8.151
23341WAT     H170265   9.482   8.473   8.248
23341WAT     H270266   9.560   8.512   8.110
23342WAT      O70267   3.034   5.165   4.648
23342WAT     H170268   3.015   5.130   4.556
23342WAT     H270269   3.014   5.093   4.715
23343WAT      O70270   4.005   5.201   4.860
23343WAT     H170271   3.922   5.149   4.884
23343WAT     H270272   4.011   5.209   4.761
23344WAT      O70273   4.898   2.105   0.817
23344WAT     H170274   4.919   2.008   0.830
23344WAT     H270275   4.843   2.116   0.734
23345WAT      O70276   4.027   5.114   6.954
23345WAT     H170277   3.970   5.192   6.981
23345WAT     H270278   3.973   5.030   6.963
23346WAT      O70279   7.589   9.160   6.321
23346WAT     H170280   7.566   9.257   6.326
23346WAT     H270281   7.642   9.134   6.402
23347WAT      O70282   3.668   9.418   2.990
23347WAT     H170283   3.697   9.351   3.058
23347WAT     H270284   3.748   9.448   2.937
23348WAT      O70285   0.406   9.332   8.622
23348WAT     H170286   0.332   9.265   8.631
23348WAT     H270287   0.450   9.345   8.711
23349WAT      O70288   2.873   4.551   9.168
23349WAT     H170289   2.823   4.501   9.097
23349WAT     H270290   2.972   4.536   9.155
23350WAT      O70291   8.318   0.293   9.201
23350WAT     H170292   8.261   0.303   9.283
23350WAT     H270293   8.337   0.383   9.162
23351WAT      O70294   3.052   8.893   8.525
23351WAT     H170295   3.057   8.900   8.625
23351WAT     H270296   3.033   8.983   8.487
23352WAT      O70297   3.227   2.569   6.277
23352WAT     H170298   3.157   2.501   6.301
23352WAT     H270299   3.253   2.620   6.359
23353WAT      O70300   2.533   7.192   6.931
23353WAT     H170301   2.623   7.148   6.937
23353WAT     H270302   2.486   7.161   6.848
23354WAT      O70303   6.326   6.021   4.736
23354WAT     H170304   6.260   6.055   4.802
23354WAT     H270305   6.289   6.030   4.643
23355WAT      O70306   0.764   5.134   9.571
23355WAT     H170307   0.698   5.208   9.582
23355WAT     H270308   0.856   5.169   9.587
23356WAT      O70309   3.283   5.124   5.351
23356WAT     H170310   3.287   5.219   5.323
23356WAT     H270311   3.270   5.065   5.271
23357WAT      O70312   7.232   5.416   7.187
23357WAT     H170313   7.314   5.460   7.150
23357WAT     H270314   7.171   5.392   7.111
23358WAT      O70315   4.762   9.273   2.213
23358WAT     H170316   4.716   9.340   2.271
23358WAT     H270317   4.832   9.225   2.266
23359WAT      O70318   4.188   2.901   2.382
23359WAT     H170319   4.251   2.858   2.447
23359WAT     H270320   4.095   2.897   2.419
23360WAT      O70321   0.737   3.982   8.105
23360WAT     H170322   0.816   3.923   8.124
23360WAT     H270323   0.697   4.013   8.192
23361WAT      O70324   1.507   7.615   2.875
23361WAT     H170325   1.564   7.544   2.834
23361WAT     H270326   1.561   7.668   2.941
23362WAT      O70327   9.422   7.734   3.013
23362WAT     H170328   9.330   7.747   2.975
23362WAT     H270329   9.441   7.806   3.080
23363WAT      O70330   5.857   9.541   4.319
23363WAT     H170331   5.955   9.549   4.339
23363WAT     H270332   5.845   9.497   4.230
23364WAT      O70333   8.786   1.202   2.798
23364WAT     H170334   8.885   1.203   2.811
23364WAT     H270335   8.744   1.137   2.862
23365WAT      O70336   1.597   4.909   2.050
23365WAT     H170337   1.677   4.917   2.109
23365WAT     H270338   1.606   4.826   1.994
23366WAT      O70339   4.653   9.671   8.400
23366WAT     H170340   4.618   9.765   8.399
23366WAT     H270341   4.639   9.629   8.311
23367WAT      O70342   5.981   7.070   5.725
23367WAT     H170343   5.935   6.981   5.724
23367WAT     H270344   5.948   7.126   5.649
23368WAT      O70345   9.266   6.797   7.280
23368WAT     H170346   9.365   6.790   7.266
23368WAT     H270347   9.247   6.858   7.357
23369WAT      O70348   3.902   4.184   9.140
23369WAT     H170349   3.969   4.188   9.066
23369WAT     H270350   3.824   4.244   9.118
23370WAT      O70351   4.956   2.451   4.784
23370WAT     H170352   4.874   2.443   4.727
23370WAT     H270353   5.025   2.506   4.737
23371WAT      O70354   2.045   5.619   7.086
23371WAT     H170355   1.959   5.670   7.085
23371WAT     H270356   2.121   5.682   7.067
23372WAT      O70357   1.211   2.314   4.756
23372WAT     H170358   1.227   2.278   4.664
23372WAT     H270359   1.113   2.324   4.772
23373WAT      O70360   1.712   4.525   5.215
23373WAT     H170361   1.717   4.614   5.170
23373WAT     H270362   1.790   4.514   5.277
23374WAT      O70363   8.323   2.429   7.821
23374WAT     H170364   8.394   2.465   7.761
23374WAT     H270365   8.277   2.353   7.774
23375WAT      O70366   4.800   1.342   5.263
23375WAT     H170367   4.731   1.276   5.232
23375WAT     H270368   4.849   1.304   5.342
23376WAT      O70369   2.324   7.480   1.952
23376WAT     H170370   2.225   7.494   1.966
23376WAT     H270371   2.365   7.450   2.038
23377WAT      O70372   3.230   3.840   5.301
23377WAT     H170373   3.239   3.749   5.260
23377WAT     H270374   3.202   3.906   5.231
23378WAT      O70375   5.451   1.014   2.700
23378WAT     H170376   5.387   0.962   2.642
23378WAT     H270377   5.531   1.041   2.646
23379WAT      O70378   6.029   6.047   5.337
23379WAT     H170379   6.125   6.071   5.326
23379WAT     H270380   6.021   5.949   5.354
23380WAT      O70381   5.068   8.517   2.775
23380WAT     H170382   5.158   8.561   2.766
23380WAT     H270383   5.010   8.572   2.835
23381WAT      O70384   9.234   8.649   1.796
23381WAT     H170385   9.272   8.626   1.706
23381WAT     H270386   9.308   8.668   1.860
23382WAT      O70387   4.396   7.577   6.103
23382WAT     H170388   4.412   7.602   6.198
23382WAT     H270389   4.476   7.601   6.048
23383WAT      O70390   8.639   7.873   2.153
23383WAT     H170391   8.648   7.881   2.252
23383WAT     H270392   8.702   7.938   2.109
23384WAT      O70393   2.216   1.160   6.408
23384WAT     H170394   2.122   1.149   6.375
23384WAT     H270395   2.280   1.155   6.331
23385WAT      O70396   0.529   4.009   8.570
23385WAT     H170397   0.612   3.955   8.582
23385WAT     H270398   0.516   4.069   8.649
23386WAT      O70399   2.167   6.079   3.695
23386WAT     H170400   2.145   5.992   3.651
23386WAT     H270401   2.255   6.071   3.742
23387WAT      O70402   0.660   0.855   9.209
23387WAT     H170403   0.724   0.781   9.230
23387WAT     H270404   0.710   0.942   9.209
23388WAT      O70405   0.986   6.343   3.136
23388WAT     H170406   1.000   6.434   3.097
23388WAT     H270407   1.045   6.331   3.215
23389WAT      O70408   7.242   2.546   5.651
23389WAT     H170409   7.190   2.624   5.686
23389WAT     H270410   7.318   2.579   5.595
23390WAT      O70411   0.492   3.629   5.050
23390WAT     H170412   0.544   3.683   5.117
23390WAT     H270413   0.407   3.676   5.029
23391WAT      O70414   8.159   3.167   5.143
23391WAT     H170415   8.115   3.077   5.143
23391WAT     H270416   8.231   3.169   5.212
23392WAT      O70417   1.356   7.290   8.681
23392WAT     H170418   1.311   7.264   8.767
23392WAT     H270419   1.444   7.244   8.675
23393WAT      O70420   0.791   7.656   4.571
23393WAT     H170421   0.861   7.726   4.561
23393WAT     H270422   0.782   7.632   4.668
23394WAT      O70423   1.083   7.195   4.296
23394WAT     H170424   1.055   7.276   4.245
23394WAT     H270425   1.155   7.147   4.245
23395WAT      O70426   0.401   4.437   2.870
23395WAT     H170427   0.412   4.380   2.788
23395WAT     H270428   0.310   4.476   2.871
23396WAT      O70429   4.584   6.345   5.208
23396WAT     H170430   4.682   6.345   5.225
23396WAT     H270431   4.538   6.297   5.283
23397WAT      O70432   2.954   5.204   6.435
23397WAT     H170433   2.958   5.246   6.345
23397WAT     H270434   2.922   5.110   6.427
23398WAT      O70435   2.429   4.382   4.348
23398WAT     H170436   2.475   4.409   4.433
23398WAT     H270437   2.333   4.410   4.352
23399WAT      O70438   7.724   3.974   7.376
23399WAT     H170439   7.760   4.063   7.348
23399WAT     H270440   7.791   3.903   7.356
23400WAT      O70441   2.127   4.862   8.806
23400WAT     H170442   2.040   4.813   8.806
23400WAT     H270443   2.175   4.845   8.892
23401WAT      O70444   9.490   9.691   3.378
23401WAT     H170445   9.413   9.628   3.377
23401WAT     H270446   9.567   9.650   3.426
23402WAT      O70447   0.792   5.348   1.169
23402WAT     H170448   0.844   5.401   1.101
23402WAT     H270449   0.749   5.410   1.234
23403WAT      O70450   0.911   7.505   1.152
23403WAT     H170451   0.972   7.554   1.214
23403WAT     H270452   0.966   7.454   1.086
23404WAT      O70453   4.167   9.156   2.068
23404WAT     H170454   4.238   9.094   2.035
23404WAT     H270455   4.078   9.126   2.035
23405WAT      O70456   5.252   8.836   7.044
23405WAT     H170457   5.232   8.931   7.064
23405WAT     H270458   5.181   8.778   7.084
23406WAT      O70459   8.008   4.558   9.087
23406WAT     H170460   7.944   4.634   9.092
23406WAT     H270461   8.003   4.505   9.172
23407WAT      O70462   0.247   7.023   3.094
23407WAT     H170463   0.252   7.075   3.010
23407WAT     H270464   0.206   6.934   3.076
23408WAT      O70465   2.492   7.081   0.358
23408WAT     H170466   2.568   7.123   0.309
23408WAT     H270467   2.479   6.987   0.327
23409WAT      O70468   3.903   1.742   1.292
23409WAT     H170469   3.956   1.665   1.258
23409WAT     H270470   3.859   1.789   1.216
23410WAT      O70471   8.934   6.559   7.294
23410WAT     H170472   8.859   6.582   7.355
23410WAT     H270473   8.934   6.623   7.216
23411WAT      O70474   7.860   4.475   4.821
23411WAT     H170475   7.764   4.448   4.814
23411WAT     H270476   7.892   4.463   4.915
23412WAT      O70477   7.340   4.292   6.347
23412WAT     H170478   7.329   4.355   6.270
23412WAT     H270479   7.282   4.211   6.333
23413WAT      O70480   1.729   6.719   6.280
23413WAT     H170481   1.671   6.704   6.200
23413WAT     H270482   1.728   6.816   6.305
23414WAT      O70483   6.652   1.452   5.494
23414WAT     H170484   6.563   1.467   5.451
23414WAT     H270485   6.639   1.410   5.583
23415WAT      O70486   7.075   3.714   0.012
23415WAT     H170487   7.033   3.639   0.063
23415WAT     H270488   7.132   3.768   0.074
23416WAT      O70489   1.156   1.754   6.839
23416WAT     H170490   1.175   1.666   6.795
23416WAT     H270491   1.170   1.828   6.772
23417WAT      O70492   7.325   5.877   9.170
23417WAT     H170493   7.313   5.870   9.269
23417WAT     H270494   7.309   5.787   9.128
23418WAT      O70495   0.714   4.553   2.929
23418WAT     H170496   0.700   4.457   2.906
23418WAT     H270497   0.657   4.576   3.009
23419WAT      O70498   0.218   2.941   7.941
23419WAT     H170499   0.195   2.983   8.029
23419WAT     H270500   0.196   2.843   7.944
23420WAT      O70501   8.930   3.222   7.873
23420WAT     H170502   9.018   3.175   7.880
23420WAT     H270503   8.914   3.249   7.778
23421WAT      O70504   8.886   2.159   3.037
23421WAT     H170505   8.926   2.239   3.084
23421WAT     H270506   8.792   2.180   3.011
23422WAT      O70507   1.722   7.641   9.892
23422WAT     H170508   1.669   7.596   9.821
23422WAT     H270509   1.793   7.579   9.926
23423WAT      O70510   3.763   1.691   7.314
23423WAT     H170511   3.782   1.771   7.258
23423WAT     H270512   3.739   1.719   7.407
23424WAT      O70513   9.288   2.067   2.454
23424WAT     H170514   9.302   2.143   2.390
23424WAT     H270515   9.353   1.993   2.433
23425WAT      O70516   1.710   1.586   0.987
23425WAT     H170517   1.647   1.611   0.914
23425WAT     H270518   1.659   1.554   1.067
23426WAT      O70519   6.175   9.283   1.265
23426WAT     H170520   6.243   9.317   1.330
23426WAT     H270521   6.153   9.355   1.199
23427WAT      O70522   1.203   8.365   0.033
23427WAT     H170523   1.109   8.333   0.043
23427WAT     H270524   1.203   8.463   0.013
23428WAT      O70525   3.306   3.731   6.839
23428WAT     H170526   3.219   3.780   6.837
23428WAT     H270527   3.291   3.637   6.870
23429WAT      O70528   3.785   2.106   5.812
23429WAT     H170529   3.825   2.106   5.904
23429WAT     H270530   3.848   2.151   5.749
23430WAT      O70531   7.350   3.407   0.644
23430WAT     H170532   7.353   3.392   0.743
23430WAT     H270533   7.256   3.426   0.617
23431WAT      O70534   6.522   4.499   8.728
23431WAT     H170535   6.524   4.574   8.662
23431WAT     H270536   6.469   4.423   8.691
23432WAT      O70537   9.268   3.361   8.124
23432WAT     H170538   9.337   3.338   8.056
23432WAT     H270539   9.208   3.432   8.087
23433WAT      O70540   8.662   3.777   3.862
23433WAT     H170541   8.726   3.814   3.795
23433WAT     H270542   8.654   3.678   3.850
23434WAT      O70543   1.350   7.629   7.887
23434WAT     H170544   1.353   7.693   7.811
23434WAT     H270545   1.407   7.549   7.867
23435WAT      O70546   7.408   2.337   1.129
23435WAT     H170547   7.412   2.378   1.038
23435WAT     H270548   7.331   2.273   1.133
23436WAT      O70549   8.168   2.152   2.322
23436WAT     H170550   8.250   2.186   2.368
23436WAT     H270551   8.131   2.075   2.374
23437WAT      O70552   6.125   9.809   9.893
23437WAT     H170553   6.165   9.891   9.852
23437WAT     H270554   6.038   9.789   9.848
23438WAT      O70555   6.974   7.997   0.093
23438WAT     H170556   6.918   8.077   0.114
23438WAT     H270557   7.069   8.014   0.119
23439WAT      O70558   6.137   4.028   7.269
23439WAT     H170559   6.068   4.100   7.272
23439WAT     H270560   6.177   4.015   7.359
23440WAT      O70561   2.255   5.324   9.221
23440WAT     H170562   2.272   5.385   9.143
23440WAT     H270563   2.186   5.256   9.196
23441WAT      O70564   2.859   0.051   0.642
23441WAT     H170565   2.802   0.111   0.698
23441WAT     H270566   2.834   0.063   0.546
23442WAT      O70567   5.287   1.554   6.463
23442WAT     H170568   5.375   1.598   6.482
23442WAT     H270569   5.303   1.472   6.407
23443WAT      O70570   0.245   7.125   9.099
23443WAT     H170571   0.150   7.155   9.093
23443WAT     H270572   0.249   7.028   9.121
23444WAT      O70573   1.027   6.798   2.373
23444WAT     H170574   1.059   6.805   2.467
23444WAT     H270575   1.103   6.817   2.311
23445WAT      O70576   6.698   7.838   8.766
23445WAT     H170577   6.768   7.910   8.766
23445WAT     H270578   6.730   7.761   8.820
23446WAT      O70579   6.523   0.212   2.358
23446WAT     H170580   6.516   0.228   2.260
23446WAT     H270581   6.551   0.297   2.404
23447WAT      O70582   1.557   0.782   7.643
23447WAT     H170583   1.561   0.724   7.562
23447WAT     H270584   1.642   0.834   7.652
23448WAT      O70585   8.896   1.711   6.599
23448WAT     H170586   8.826   1.728   6.530
23448WAT     H270587   8.880   1.621   6.642
23449WAT      O70588   3.935   7.582   4.082
23449WAT     H170589   3.994   7.629   4.147
23449WAT     H270590   3.889   7.649   4.024
23450WAT      O70591   3.670   8.258   3.567
23450WAT     H170592   3.767   8.283   3.561
23450WAT     H270593   3.620   8.329   3.616
23451WAT      O70594   0.154   2.583   0.247
23451WAT     H170595   0.108   2.559   0.162
23451WAT     H270596   0.133   2.515   0.317
23452WAT      O70597   1.092   2.154   1.568
23452WAT     H170598   1.113   2.146   1.470
23452WAT     H270599   1.158   2.101   1.621
23453WAT      O70600   6.556   1.846   6.570
23453WAT     H170601   6.507   1.908   6.508
23453WAT     H270602   6.654   1.866   6.565
23454WAT      O70603   4.021   4.297   2.618
23454WAT     H170604   3.973   4.210   2.608
23454WAT     H270605   3.964   4.361   2.670
23455WAT      O70606   1.769   7.633   5.093
23455WAT     H170607   1.835   7.653   5.020
23455WAT     H270608   1.690   7.693   5.083
23456WAT      O70609   4.874   7.194   0.560
23456WAT     H170610   4.915   7.136   0.631
23456WAT     H270611   4.802   7.250   0.601
23457WAT      O70612   7.626   6.071   4.307
23457WAT     H170613   7.612   5.972   4.300
23457WAT     H270614   7.665   6.094   4.396
23458WAT      O70615   1.928   0.636   1.125
23458WAT     H170616   1.915   0.726   1.164
23458WAT     H270617   1.842   0.585   1.127
23459WAT      O70618   3.249   4.190   3.463
23459WAT     H170619   3.293   4.218   3.548
23459WAT     H270620   3.266   4.258   3.392
23460WAT      O70621   3.226   4.195   9.408
23460WAT     H170622   3.172   4.276   9.429
23460WAT     H270623   3.266   4.159   9.493
23461WAT      O70624   0.490   1.043   2.766
23461WAT     H170625   0.398   1.080   2.761
23461WAT     H270626   0.541   1.069   2.684
23462WAT      O70627   7.110   0.215   2.829
23462WAT     H170628   7.195   0.235   2.780
23462WAT     H270629   7.042   0.180   2.764
23463WAT      O70630   2.602   3.546   4.583
23463WAT     H170631   2.647   3.601   4.513
23463WAT     H270632   2.612   3.449   4.561
23464WAT      O70633   7.620   0.635   6.928
23464WAT     H170634   7.603   0.641   6.829
23464WAT     H270635   7.631   0.540   6.954
23465WAT      O70636   8.699   0.291   4.141
23465WAT     H170637   8.668   0.276   4.047
23465WAT     H270638   8.633   0.251   4.204
23466WAT      O70639   1.745   2.310   5.520
23466WAT     H170640   1.736   2.322   5.619
23466WAT     H270641   1.842   2.313   5.495
23467WAT      O70642   5.561   6.352   6.493
23467WAT     H170643   5.538   6.449   6.500
23467WAT     H270644   5.608   6.323   6.576
23468WAT      O70645   9.694   6.314   8.929
23468WAT     H170646   9.635   6.278   8.856
23468WAT     H270647   9.645   6.312   9.016
23469WAT      O70648   5.110   3.938   9.250
23469WAT     H170649   5.105   4.036   9.234
23469WAT     H270650   5.154   3.893   9.173
23470WAT      O70651   4.249   3.790   4.744
23470WAT     H170652   4.205   3.709   4.704
23470WAT     H270653   4.224   3.871   4.692
23471WAT      O70654   3.017   5.486   2.480
23471WAT     H170655   3.017   5.386   2.478
23471WAT     H270656   3.062   5.521   2.397
23472WAT      O70657   9.609   6.343   1.220
23472WAT     H170658   9.659   6.262   1.189
23472WAT     H270659   9.651   6.425   1.181
23473WAT      O70660   8.924   7.221   2.128
23473WAT     H170661   8.926   7.121   2.131
23473WAT     H270662   8.959   7.253   2.040
23474WAT      O70663   0.616   5.573   7.596
23474WAT     H170664   0.559   5.497   7.565
23474WAT     H270665   0.693   5.584   7.534
23475WAT      O70666   9.405   7.452   3.077
23475WAT     H170667   9.392   7.552   3.078
23475WAT     H270668   9.414   7.419   3.171
23476WAT      O70669   3.005   4.867   5.260
23476WAT     H170670   2.986   4.806   5.184
23476WAT     H270671   2.937   4.853   5.332
23477WAT      O70672   9.061   8.532   9.805
23477WAT     H170673   9.126   8.463   9.837
23477WAT     H270674   9.064   8.611   9.867
23478WAT      O70675   3.913   8.589   8.068
23478WAT     H170676   4.000   8.600   8.019
23478WAT     H270677   3.931   8.578   8.166
23479WAT      O70678   0.180   8.959   4.891
23479WAT     H170679   0.144   9.021   4.822
23479WAT     H270680   0.123   8.877   4.896
23480WAT      O70681   5.045   0.035   8.881
23480WAT     H170682   5.064  -0.054   8.921
23480WAT     H270683   5.051   0.105   8.952
23481WAT      O70684   9.833   0.578   4.148
23481WAT     H170685   9.899   0.648   4.174
23481WAT     H270686   9.823   0.575   4.049
23482WAT      O70687   1.367   8.077   1.173
23482WAT     H170688   1.298   8.134   1.218
23482WAT     H270689   1.372   7.989   1.220
23483WAT      O70690   3.504   3.104   7.735
23483WAT     H170691   3.421   3.086   7.786
23483WAT     H270692   3.480   3.127   7.640
23484WAT      O70693   5.398   2.942   2.533
23484WAT     H170694   5.327   2.997   2.489
23484WAT     H270695   5.361   2.853   2.559
23485WAT      O70696   9.647   2.867   8.914
23485WAT     H170697   9.671   2.899   9.006
23485WAT     H270698   9.673   2.935   8.846
23486WAT      O70699   2.161   3.904   6.828
23486WAT     H170700   2.192   3.813   6.858
23486WAT     H270701   2.171   3.910   6.729
23487WAT      O70702   6.909   7.070   4.513
23487WAT     H170703   6.983   7.013   4.550
23487WAT     H270704   6.849   7.014   4.456
23488WAT      O70705   4.340   6.024   0.518
23488WAT     H170706   4.311   5.943   0.571
23488WAT     H270707   4.304   6.106   0.561
23489WAT      O70708   1.380   0.931   7.504
23489WAT     H170709   1.392   1.030   7.516
23489WAT     H270710   1.424   0.882   7.579
23490WAT      O70711   6.543   2.472   0.637
23490WAT     H170712   6.474   2.429   0.579
23490WAT     H270713   6.505   2.487   0.729
23491WAT      O70714   6.224   9.314   1.713
23491WAT     H170715   6.185   9.341   1.801
23491WAT     H270716   6.265   9.223   1.722
23492WAT      O70717   4.740   4.036   3.588
23492WAT     H170718   4.652   4.009   3.550
23492WAT     H270719   4.732   4.048   3.687
23493WAT      O70720   2.213   1.197   8.359
23493WAT     H170721   2.170   1.107   8.346
23493WAT     H270722   2.300   1.185   8.408
23494WAT      O70723   0.011   7.519   6.545
23494WAT     H170724  -0.035   7.566   6.621
23494WAT     H270725  -0.026   7.552   6.459
23495WAT      O70726   2.352   8.340   8.797
23495WAT     H170727   2.446   8.317   8.770
23495WAT     H270728   2.313   8.403   8.729
23496WAT      O70729   6.802   6.741   3.471
23496WAT     H170730   6.886   6.774   3.514
23496WAT     H270731   6.779   6.651   3.508
23497WAT      O70732   0.547   0.489   1.935
23497WAT     H170733   0.511   0.542   2.011
23497WAT     H270734   0.580   0.400   1.969
23498WAT      O70735   3.687   6.078   9.308
23498WAT     H170736   3.660   5.986   9.337
23498WAT     H270737   3.606   6.136   9.304
23499WAT      O70738   9.098   1.265   1.905
23499WAT     H170739   9.098   1.230   1.811
23499WAT     H270740   9.013   1.239   1.950
23500WAT      O70741   9.251   5.113   6.856
23500WAT     H170742   9.243   5.029   6.909
23500WAT     H270743   9.295   5.184   6.911
23501WAT      O70744   2.268   5.288   1.955
23501WAT     H170745   2.212   5.333   2.025
23501WAT     H270746   2.224   5.202   1.928
23502WAT      O70747   8.826   5.840   7.108
23502WAT     H170748   8.854   5.910   7.173
23502WAT     H270749   8.883   5.758   7.120
23503WAT      O70750   0.430   5.102   7.851
23503WAT     H170751   0.453   5.195   7.878
23503WAT     H270752   0.439   5.093   7.751
23504WAT      O70753   5.560   3.755   3.050
23504WAT     H170754   5.507   3.741   3.134
23504WAT     H270755   5.616   3.674   3.032
23505WAT      O70756   4.436   9.707   6.571
23505WAT     H170757   4.460   9.637   6.504
23505WAT     H270758   4.387   9.782   6.527
23506WAT      O70759   6.270   8.566   6.446
23506WAT     H170760   6.206   8.494   6.419
23506WAT     H270761   6.232   8.655   6.421
23507WAT      O70762   8.700   9.744   0.823
23507WAT     H170763   8.681   9.652   0.858
23507WAT     H270764   8.634   9.808   0.862
23508WAT      O70765   5.434   7.813   6.060
23508WAT     H170766   5.527   7.849   6.061
23508WAT     H270767   5.378   7.866   5.997
23509WAT      O70768   8.939   4.398   9.080
23509WAT     H170769   8.974   4.490   9.066
23509WAT     H270770   9.014   4.332   9.075
23510WAT      O70771   7.985   3.653   9.403
23510WAT     H170772   7.919   3.630   9.333
23510WAT     H270773   7.965   3.601   9.486
23511WAT      O70774   1.802   7.469   3.076
23511WAT     H170775   1.878   7.449   3.137
23511WAT     H270776   1.715   7.458   3.124
23512WAT      O70777   2.933   2.153   7.534
23512WAT     H170778   2.973   2.064   7.516
23512WAT     H270779   2.835   2.143   7.554
23513WAT      O70780   3.579   3.793   6.880
23513WAT     H170781   3.493   3.743   6.873
23513WAT     H270782   3.560   3.891   6.877
23514WAT      O70783   2.300   6.446   9.394
23514WAT     H170784   2.343   6.491   9.472
23514WAT     H270785   2.200   6.446   9.407
23515WAT      O70786   2.124   6.281   6.818
23515WAT     H170787   2.153   6.376   6.826
23515WAT     H270788   2.026   6.277   6.799
23516WAT      O70789   3.793   6.576   4.327
23516WAT     H170790   3.760   6.664   4.294
23516WAT     H270791   3.813   6.582   4.425
23517WAT      O70792   0.471   0.702   2.116
23517WAT     H170793   0.388   0.720   2.168
23517WAT     H270794   0.477   0.768   2.041
23518WAT      O70795   1.495   1.431   3.319
23518WAT     H170796   1.562   1.505   3.322
23518WAT     H270797   1.403   1.468   3.333
23519WAT      O70798   2.770   2.086   0.751
23519WAT     H170799   2.822   2.144   0.814
23519WAT     H270800   2.772   1.992   0.784
23520WAT      O70801   1.820   3.565   1.345
23520WAT     H170802   1.743   3.622   1.317
23520WAT     H270803   1.806   3.472   1.311
23521WAT      O70804   7.305   8.037   9.386
23521WAT     H170805   7.342   8.117   9.434
23521WAT     H270806   7.212   8.019   9.418
23522WAT      O70807   5.040   5.255   8.617
23522WAT     H170808   4.951   5.211   8.605
23522WAT     H270809   5.046   5.294   8.709
23523WAT      O70810   4.987   3.828   6.186
23523WAT     H170811   5.051   3.762   6.226
23523WAT     H270812   5.038   3.897   6.135
23524WAT      O70813   0.683   5.011   8.362
23524WAT     H170814   0.736   4.983   8.282
23524WAT     H270815   0.714   5.101   8.393
23525WAT      O70816   7.590   3.976   1.278
23525WAT     H170817   7.545   4.060   1.246
23525WAT     H270818   7.551   3.897   1.231
23526WAT      O70819   6.938   3.397   0.777
23526WAT     H170820   6.975   3.488   0.797
23526WAT     H270821   6.838   3.401   0.780
23527WAT      O70822   5.336   7.821   4.294
23527WAT     H170823   5.415   7.797   4.237
23527WAT     H270824   5.256   7.771   4.262
23528WAT      O70825   3.423   0.526   0.239
23528WAT     H170826   3.462   0.449   0.188
23528WAT     H270827   3.494   0.593   0.258
23529WAT      O70828   4.581   8.539   5.888
23529WAT     H170829   4.509   8.520   5.821
23529WAT     H270830   4.647   8.464   5.888
23530WAT      O70831   3.630   9.243   3.312
23530WAT     H170832   3.658   9.288   3.397
23530WAT     H270833   3.699   9.261   3.241
23531WAT      O70834   7.823   9.311   1.177
23531WAT     H170835   7.868   9.369   1.244
23531WAT     H270836   7.731   9.287   1.209
23532WAT      O70837   7.157   0.585   6.014
23532WAT     H170838   7.097   0.505   6.017
23532WAT     H270839   7.167   0.622   6.106
23533WAT      O70840   0.803   0.353   6.490
23533WAT     H170841   0.746   0.430   6.518
23533WAT     H270842   0.887   0.388   6.447
23534WAT      O70843   0.616   7.314   9.227
23534WAT     H170844   0.556   7.272   9.295
23534WAT     H270845   0.706   7.329   9.267
23535WAT      O70846   0.525   0.479   0.360
23535WAT     H170847   0.564   0.568   0.336
23535WAT     H270848   0.552   0.455   0.453
23536WAT      O70849   7.325   3.121   1.360
23536WAT     H170850   7.404   3.124   1.298
23536WAT     H270851   7.303   3.027   1.383
23537WAT      O70852   2.856   6.725   4.279
23537WAT     H170853   2.879   6.700   4.185
23537WAT     H270854   2.938   6.717   4.336
23538WAT      O70855   1.191   8.512   6.400
23538WAT     H170856   1.139   8.597   6.404
23538WAT     H270857   1.146   8.449   6.337
23539WAT      O70858   8.322   9.632   5.621
23539WAT     H170859   8.242   9.652   5.564
23539WAT     H270860   8.388   9.577   5.569
23540WAT      O70861   3.730   4.133   0.662
23540WAT     H170862   3.825   4.133   0.631
23540WAT     H270863   3.677   4.198   0.609
23541WAT      O70864   3.240   6.103   3.183
23541WAT     H170865   3.176   6.052   3.241
23541WAT     H270866   3.316   6.137   3.239
23542WAT      O70867   1.920   4.562   3.435
23542WAT     H170868   1.995   4.615   3.397
23542WAT     H270869   1.869   4.617   3.501
23543WAT      O70870   1.440   6.744   3.227
23543WAT     H170871   1.437   6.646   3.250
23543WAT     H270872   1.533   6.769   3.200
23544WAT      O70873   8.211   1.188   9.085
23544WAT     H170874   8.267   1.105   9.075
23544WAT     H270875   8.242   1.257   9.020
23545WAT      O70876   5.543   4.686   3.176
23545WAT     H170877   5.606   4.641   3.112
23545WAT     H270878   5.489   4.617   3.224
23546WAT      O70879   0.349   5.959   4.476
23546WAT     H170880   0.252   5.981   4.468
23546WAT     H270881   0.404   6.035   4.442
23547WAT      O70882   9.170   8.567   2.725
23547WAT     H170883   9.103   8.642   2.721
23547WAT     H270884   9.255   8.598   2.684
23548WAT      O70885   1.810   8.541   8.670
23548WAT     H170886   1.786   8.632   8.703
23548WAT     H270887   1.867   8.495   8.739
23549WAT      O70888   4.295   4.152   7.501
23549WAT     H170889   4.224   4.158   7.571
23549WAT     H270890   4.364   4.224   7.516
23550WAT      O70891   1.534   8.544   2.650
23550WAT     H170892   1.547   8.536   2.551
23550WAT     H270893   1.535   8.641   2.676
23551WAT      O70894   2.392   3.733   4.584
23551WAT     H170895   2.474   3.676   4.586
23551WAT     H270896   2.312   3.678   4.606
23552WAT      O70897   7.044   5.492   8.979
23552WAT     H170898   6.961   5.540   9.008
23552WAT     H270899   7.018   5.408   8.930
23553WAT      O70900   9.764   9.045   1.010
23553WAT     H170901   9.730   9.120   1.067
23553WAT     H270902   9.746   9.067   0.914
23554WAT      O70903   5.838   1.058   1.563
23554WAT     H170904   5.774   1.091   1.494
23554WAT     H270905   5.890   1.135   1.600
23555WAT      O70906   8.665   6.784   2.490
23555WAT     H170907   8.760   6.774   2.517
23555WAT     H270908   8.660   6.810   2.394
23556WAT      O70909   5.003   7.530   8.567
23556WAT     H170910   5.078   7.466   8.583
23556WAT     H270911   4.938   7.524   8.643
23557WAT      O70912   8.428   2.280   8.180
23557WAT     H170913   8.407   2.288   8.277
23557WAT     H270914   8.434   2.370   8.139
23558WAT      O70915   8.060   1.171   3.764
23558WAT     H170916   8.013   1.184   3.677
23558WAT     H270917   7.999   1.126   3.829
23559WAT      O70918   2.324   9.724   6.189
23559WAT     H170919   2.332   9.787   6.111
23559WAT     H270920   2.354   9.633   6.162
23560WAT      O70921   2.808   0.999   1.377
23560WAT     H170922   2.839   0.967   1.467
23560WAT     H270923   2.846   0.939   1.306
23561WAT      O70924   0.744   9.682   7.096
23561WAT     H170925   0.716   9.737   7.174
23561WAT     H270926   0.838   9.706   7.071
23562WAT      O70927   6.775   7.682   4.553
23562WAT     H170928   6.870   7.703   4.532
23562WAT     H270929   6.721   7.766   4.552
23563WAT      O70930   0.452   4.512   5.427
23563WAT     H170931   0.380   4.557   5.480
23563WAT     H270932   0.516   4.580   5.392
23564WAT      O70933   7.444   9.356   7.119
23564WAT     H170934   7.500   9.273   7.124
23564WAT     H270935   7.504   9.435   7.105
23565WAT      O70936   1.245   2.678   3.537
23565WAT     H170937   1.169   2.743   3.547
23565WAT     H270938   1.276   2.679   3.443
23566WAT      O70939   7.652   9.834   1.473
23566WAT     H170940   7.553   9.820   1.480
23566WAT     H270941   7.681   9.825   1.378
23567WAT      O70942   4.456   9.120   0.008
23567WAT     H170943   4.475   9.057  -0.067
23567WAT     H270944   4.540   9.138   0.059
23568WAT      O70945   7.334   0.963   5.255
23568WAT     H170946   7.245   0.947   5.297
23568WAT     H270947   7.322   0.991   5.160
23569WAT      O70948   1.760   3.552   2.675
23569WAT     H170949   1.722   3.493   2.746
23569WAT     H270950   1.828   3.613   2.716
23570WAT      O70951   5.139   5.764   1.348
23570WAT     H170952   5.172   5.729   1.260
23570WAT     H270953   5.058   5.714   1.376
23571WAT      O70954   0.496   0.071   4.312
23571WAT     H170955   0.501   0.070   4.212
23571WAT     H270956   0.466   0.161   4.343
23572WAT      O70957   3.062   6.342   4.636
23572WAT     H170958   3.113   6.258   4.654
23572WAT     H270959   2.994   6.355   4.709
23573WAT      O70960   7.343   5.233   1.576
23573WAT     H170961   7.391   5.305   1.527
23573WAT     H270962   7.403   5.153   1.586
23574WAT      O70963   6.881   0.195   4.139
23574WAT     H170964   6.976   0.188   4.172
23574WAT     H270965   6.877   0.256   4.060
23575WAT      O70966   3.004   2.314   6.828
23575WAT     H170967   2.928   2.286   6.770
23575WAT     H270968   3.083   2.337   6.771
23576WAT      O70969   6.296   6.032   0.834
23576WAT     H170970   6.219   6.013   0.895
23576WAT     H270971   6.298   6.130   0.813
23577WAT      O70972   6.516   1.186   9.765
23577WAT     H170973   6.599   1.222   9.807
23577WAT     H270974   6.465   1.133   9.833
23578WAT      O70975   2.794   5.378   6.897
23578WAT     H170976   2.825   5.295   6.852
23578WAT     H270977   2.700   5.367   6.929
23579WAT      O70978   7.253   1.926   8.536
23579WAT     H170979   7.226   1.959   8.627
23579WAT     H270980   7.346   1.957   8.517
23580WAT      O70981   4.135   1.935   0.244
23580WAT     H170982   4.058   1.959   0.185
23580WAT     H270983   4.173   2.019   0.284
23581WAT      O70984   3.732   9.404   3.499
23581WAT     H170985   3.816   9.448   3.532
23581WAT     H270986   3.658   9.471   3.498
23582WAT      O70987   7.023   1.768   7.513
23582WAT     H170988   7.089   1.728   7.449
23582WAT     H270989   7.009   1.705   7.590
23583WAT      O70990   3.113   4.785   6.262
23583WAT     H170991   3.052   4.750   6.191
23583WAT     H270992   3.159   4.709   6.308
23584WAT      O70993   5.770   3.702   8.396
23584WAT     H170994   5.764   3.686   8.297
23584WAT     H270995   5.679   3.695   8.436
23585WAT      O70996   1.285   7.343   0.435
23585WAT     H170997   1.211   7.395   0.393
23585WAT     H270998   1.257   7.312   0.526
23586WAT      O70999   1.050   9.177   7.393
23586WAT     H171000   1.027   9.167   7.490
23586WAT     H271001   1.131   9.235   7.384
23587WAT      O71002   7.387   1.770   4.933
23587WAT     H171003   7.450   1.837   4.893
23587WAT     H271004   7.315   1.817   4.983
23588WAT      O71005   8.455   6.047   9.429
23588WAT     H171006   8.378   6.001   9.473
23588WAT     H271007   8.477   6.131   9.479
23589WAT      O71008   0.704   0.665   1.389
23589WAT     H171009   0.770   0.590   1.401
23589WAT     H271010   0.625   0.649   1.449
23590WAT      O71011   0.814   4.269   1.538
23590WAT     H171012   0.751   4.310   1.472
23590WAT     H271013   0.773   4.272   1.630
23591WAT      O71014   3.815   6.504   2.778
23591WAT     H171015   3.795   6.585   2.834
23591WAT     H271016   3.736   6.483   2.722
23592WAT      O71017   7.350   9.255   7.534
23592WAT     H171018   7.368   9.159   7.510
23592WAT     H271019   7.298   9.299   7.461
23593WAT      O71020   5.068   3.224   5.731
23593WAT     H171021   5.081   3.186   5.823
23593WAT     H271022   5.134   3.182   5.668
23594WAT      O71023   2.646   0.899   4.953
23594WAT     H171024   2.555   0.866   4.979
23594WAT     H271025   2.645   0.998   4.948
23595WAT      O71026   7.946   6.020   7.312
23595WAT     H171027   7.870   5.963   7.281
23595WAT     H271028   8.028   5.996   7.260
23596WAT      O71029   6.885   0.671   6.774
23596WAT     H171030   6.884   0.725   6.690
23596WAT     H271031   6.874   0.732   6.852
23597WAT      O71032   1.075   7.048   2.122
23597WAT     H171033   1.072   7.004   2.212
23597WAT     H271034   1.153   7.110   2.117
23598WAT      O71035   5.902   1.782   5.705
23598WAT     H171036   5.804   1.798   5.689
23598WAT     H271037   5.913   1.703   5.766
23599WAT      O71038   8.368   8.838   3.446
23599WAT     H171039   8.456   8.887   3.441
23599WAT     H271040   8.311   8.865   3.369
23600WAT      O71041   6.394   5.460   4.605
23600WAT     H171042   6.318   5.429   4.662
23600WAT     H271043   6.395   5.408   4.519
23601WAT      O71044   1.365   6.990   7.350
23601WAT     H171045   1.373   6.972   7.448
23601WAT     H271046   1.287   6.939   7.314
23602WAT      O71047   1.087   0.715   1.439
23602WAT     H171048   1.150   0.639   1.426
23602WAT     H271049   1.025   0.695   1.515
23603WAT      O71050   8.420   7.489   4.539
23603WAT     H171051   8.461   7.442   4.617
23603WAT     H271052   8.322   7.468   4.535
23604WAT      O71053   4.022   9.515   8.152
23604WAT     H171054   4.023   9.417   8.169
23604WAT     H271055   4.102   9.557   8.196
23605WAT      O71056   7.968   6.854   7.388
23605WAT     H171057   7.899   6.783   7.376
23605WAT     H271058   7.925   6.944   7.382
23606WAT      O71059   9.060   7.338   1.264
23606WAT     H171060   9.156   7.336   1.236
23606WAT     H271061   9.020   7.248   1.252
23607WAT      O71062   7.666   3.661   0.944
23607WAT     H171063   7.585   3.668   1.003
23607WAT     H271064   7.639   3.630   0.853
23608WAT      O71065   8.936   0.825   7.020
23608WAT     H171066   8.936   0.784   6.929
23608WAT     H271067   8.965   0.921   7.013
23609WAT      O71068   6.363   1.142   4.495
23609WAT     H171069   6.400   1.221   4.446
23609WAT     H271070   6.426   1.065   4.488
23610WAT      O71071   7.357   7.709   3.873
23610WAT     H171072   7.343   7.744   3.780
23610WAT     H271073   7.439   7.749   3.913
23611WAT      O71074   6.292   2.056   2.637
23611WAT     H171075   6.267   1.977   2.692
23611WAT     H271076   6.368   2.105   2.680
23612WAT      O71077   3.647   2.177   0.824
23612WAT     H171078   3.663   2.087   0.784
23612WAT     H271079   3.617   2.166   0.919
23613WAT      O71080   1.913   4.108   8.591
23613WAT     H171081   1.833   4.066   8.550
23613WAT     H271082   1.969   4.151   8.520
23614WAT      O71083   4.539   1.073   7.453
23614WAT     H171084   4.457   1.060   7.396
23614WAT     H271085   4.516   1.129   7.532
23615WAT      O71086   1.583   9.669   6.972
23615WAT     H171087   1.678   9.700   6.962
23615WAT     H271088   1.528   9.743   7.010
23616WAT      O71089   7.770   5.380   6.608
23616WAT     H171090   7.738   5.304   6.664
23616WAT     H271091   7.740   5.466   6.649
23617WAT      O71092   1.811   1.517   7.882
23617WAT     H171093   1.775   1.460   7.956
23617WAT     H271094   1.852   1.458   7.812
23618WAT      O71095   2.668   3.503   9.364
23618WAT     H171096   2.766   3.509   9.382
23618WAT     H271097   2.650   3.527   9.269
23619WAT      O71098   4.420   6.369   7.353
23619WAT     H171099   4.464   6.280   7.342
23619WAT     H271100   4.321   6.357   7.362
23620WAT      O71101   6.178   4.070   1.560
23620WAT     H171102   6.159   4.012   1.639
23620WAT     H271103   6.161   4.166   1.584
23621WAT      O71104   2.423   0.112   7.739
23621WAT     H171105   2.486   0.115   7.817
23621WAT     H271106   2.331   0.136   7.769
23622WAT      O71107   8.267   9.397   8.304
23622WAT     H171108   8.239   9.310   8.345
23622WAT     H271109   8.327   9.446   8.368
23623WAT      O71110   4.608   2.628   3.787
23623WAT     H171111   4.511   2.653   3.777
23623WAT     H271112   4.647   2.676   3.865
23624WAT      O71113   8.793   5.758   4.074
23624WAT     H171114   8.747   5.800   3.996
23624WAT     H271115   8.885   5.728   4.048
23625WAT      O71116   8.165   8.748   1.736
23625WAT     H171117   8.222   8.722   1.658
23625WAT     H271118   8.220   8.802   1.800
23626WAT      O71119   5.137   7.689   1.254
23626WAT     H171120   5.140   7.672   1.156
23626WAT     H271121   5.162   7.784   1.272
23627WAT      O71122   2.497   6.378   2.420
23627WAT     H171123   2.576   6.327   2.386
23627WAT     H271124   2.413   6.337   2.384
23628WAT      O71125   9.337   4.253   0.010
23628WAT     H171126   9.258   4.195  -0.007
23628WAT     H271127   9.311   4.349   0.004
23629WAT      O71128   6.734   5.542   4.943
23629WAT     H171129   6.673   5.480   4.992
23629WAT     H271130   6.694   5.566   4.855
23630WAT      O71131   9.633   7.695   0.739
23630WAT     H171132   9.556   7.631   0.744
23630WAT     H271133   9.689   7.685   0.821
23631WAT      O71134   4.721   5.373   8.899
23631WAT     H171135   4.710   5.288   8.847
23631WAT     H271136   4.632   5.402   8.935
23632WAT      O71137   1.345   5.286   0.136
23632WAT     H171138   1.365   5.345   0.057
23632WAT     H271139   1.258   5.240   0.122
23633WAT      O71140   2.699   5.356   0.903
23633WAT     H171141   2.750   5.440   0.922
23633WAT     H271142   2.737   5.312   0.822
23634WAT      O71143   2.213   4.392   0.982
23634WAT     H171144   2.284   4.387   1.052
23634WAT     H271145   2.254   4.420   0.895
23635WAT      O71146   9.361   5.611   0.693
23635WAT     H171147   9.424   5.547   0.649
23635WAT     H271148   9.412   5.668   0.758
23636WAT      O71149   0.092   3.764   0.099
23636WAT     H171150   0.190   3.759   0.117
23636WAT     H271151   0.042   3.752   0.185
23637WAT      O71152   1.002   7.823   7.012
23637WAT     H171153   0.956   7.753   6.958
23637WAT     H271154   0.993   7.912   6.967
23638WAT      O71155   7.253   4.532   2.074
23638WAT     H171156   7.194   4.600   2.030
23638WAT     H271157   7.200   4.450   2.095
23639WAT      O71158   2.995   4.556   0.513
23639WAT     H171159   3.074   4.497   0.495
23639WAT     H271160   2.911   4.503   0.501
23640WAT      O71161   4.238   0.088   7.648
23640WAT     H171162   4.208   0.179   7.622
23640WAT     H271163   4.335   0.077   7.624
23641WAT      O71164   5.379   5.731   6.416
23641WAT     H171165   5.477   5.737   6.437
23641WAT     H271166   5.365   5.667   6.341
23642WAT      O71167   6.360   7.369   4.898
23642WAT     H171168   6.324   7.303   4.964
23642WAT     H271169   6.285   7.402   4.840
23643WAT      O71170   1.694   3.091   8.371
23643WAT     H171171   1.669   3.187   8.384
23643WAT     H271172   1.764   3.065   8.437
23644WAT      O71173   0.418   4.378   1.006
23644WAT     H171174   0.374   4.455   1.053
23644WAT     H271175   0.418   4.394   0.908
23645WAT      O71176   4.159   1.900   1.100
23645WAT     H171177   4.126   1.932   1.188
23645WAT     H271178   4.248   1.856   1.111
23646WAT      O71179   0.573   4.859   8.559
23646WAT     H171180   0.613   4.920   8.490
23646WAT     H271181   0.602   4.765   8.543
23647WAT      O71182   5.142   3.171   3.286
23647WAT     H171183   5.181   3.109   3.218
23647WAT     H271184   5.103   3.251   3.240
23648WAT      O71185   6.902   5.669   7.894
23648WAT     H171186   6.913   5.576   7.860
23648WAT     H271187   6.991   5.715   7.897
23649WAT      O71188   2.397   9.733   4.449
23649WAT     H171189   2.305   9.770   4.464
23649WAT     H271190   2.397   9.636   4.475
23650WAT      O71191   5.402   8.129   4.559
23650WAT     H171192   5.472   8.167   4.499
23650WAT     H271193   5.323   8.101   4.505
23651WAT      O71194   4.424   7.824   1.861
23651WAT     H171195   4.458   7.912   1.893
23651WAT     H271196   4.499   7.758   1.858
23652WAT      O71197   1.720   7.075   3.563
23652WAT     H171198   1.753   6.982   3.577
23652WAT     H271199   1.621   7.077   3.577
23653WAT      O71200   6.933   4.020   2.098
23653WAT     H171201   6.930   3.985   2.192
23653WAT     H271202   6.977   3.953   2.039
23654WAT      O71203   0.605   4.300   5.653
23654WAT     H171204   0.543   4.276   5.578
23654WAT     H271205   0.650   4.387   5.632
23655WAT      O71206   7.923   3.320   5.475
23655WAT     H171207   7.941   3.226   5.502
23655WAT     H271208   7.854   3.360   5.535
23656WAT      O71209   1.221   5.870   0.315
23656WAT     H171210   1.162   5.790   0.308
23656WAT     H271211   1.233   5.911   0.225
23657WAT      O71212   7.568   5.594   0.947
23657WAT     H171213   7.513   5.612   1.028
23657WAT     H271214   7.560   5.672   0.884
23658WAT      O71215   2.302   2.463   6.040
23658WAT     H171216   2.398   2.483   6.060
23658WAT     H271217   2.295   2.422   5.949
23659WAT      O71218   7.296   7.758   9.397
23659WAT     H171219   7.342   7.844   9.414
23659WAT     H271220   7.255   7.759   9.306
23660WAT      O71221   7.326   4.775   4.097
23660WAT     H171222   7.289   4.693   4.141
23660WAT     H271223   7.378   4.828   4.164
23661WAT      O71224   8.374   3.051   3.445
23661WAT     H171225   8.437   3.049   3.368
23661WAT     H271226   8.426   3.048   3.531
23662WAT      O71227   8.365   0.543   9.098
23662WAT     H171228   8.438   0.550   9.030
23662WAT     H271229   8.385   0.605   9.174
23663WAT      O71230   0.115   0.794   6.166
23663WAT     H171231   0.046   0.740   6.118
23663WAT     H271232   0.103   0.784   6.265
23664WAT      O71233   4.263   3.982   7.764
23664WAT     H171234   4.273   3.984   7.863
23664WAT     H271235   4.173   4.018   7.739
23665WAT      O71236   2.262   7.188   2.843
23665WAT     H171237   2.320   7.138   2.908
23665WAT     H271238   2.255   7.283   2.871
23666WAT      O71239   3.720   7.203   9.052
23666WAT     H171240   3.803   7.218   8.997
23666WAT     H271241   3.655   7.148   9.000
23667WAT      O71242   7.047   2.449   9.209
23667WAT     H171243   7.033   2.397   9.125
23667WAT     H271244   7.115   2.520   9.193
23668WAT      O71245   4.890   7.302   1.221
23668WAT     H171246   4.885   7.396   1.254
23668WAT     H271247   4.909   7.301   1.123
23669WAT      O71248   2.387   5.535   9.051
23669WAT     H171249   2.473   5.510   9.007
23669WAT     H271250   2.378   5.634   9.052
23670WAT      O71251   9.885   7.934   8.714
23670WAT     H171252   9.881   7.838   8.688
23670WAT     H271253   9.801   7.980   8.686
23671WAT      O71254   7.126   2.551   4.454
23671WAT     H171255   7.031   2.542   4.423
23671WAT     H271256   7.160   2.462   4.484
23672WAT      O71257   8.877   6.933   3.211
23672WAT     H171258   8.836   6.901   3.126
23672WAT     H271259   8.913   7.025   3.198
23673WAT      O71260   3.990   0.160   8.311
23673WAT     H171261   3.903   0.129   8.273
23673WAT     H271262   4.058   0.165   8.238
23674WAT      O71263   3.154   6.585   7.950
23674WAT     H171264   3.169   6.649   8.026
23674WAT     H271265   3.240   6.571   7.902
23675WAT      O71266   9.669   4.731   2.441
23675WAT     H171267   9.694   4.657   2.504
23675WAT     H271268   9.576   4.762   2.461
23676WAT      O71269   9.575   3.289   0.398
23676WAT     H171270   9.551   3.254   0.488
23676WAT     H271271   9.520   3.243   0.328
23677WAT      O71272   7.294   4.469   6.162
23677WAT     H171273   7.341   4.557   6.166
23677WAT     H271274   7.248   4.460   6.074
23678WAT      O71275   3.149   3.675   5.560
23678WAT     H171276   3.058   3.635   5.572
23678WAT     H271277   3.153   3.721   5.471
23679WAT      O71278   9.812   7.314   0.953
23679WAT     H171279   9.768   7.304   0.864
23679WAT     H271280   9.823   7.412   0.973
23680WAT      O71281   5.297   5.092   4.178
23680WAT     H171282   5.236   5.035   4.233
23680WAT     H271283   5.247   5.173   4.147
23681WAT      O71284   5.470   3.493   6.241
23681WAT     H171285   5.513   3.405   6.220
23681WAT     H271286   5.456   3.545   6.157
23682WAT      O71287   1.235   5.574   6.878
23682WAT     H171288   1.249   5.660   6.927
23682WAT     H271289   1.232   5.498   6.944
23683WAT      O71290   8.223   3.596   5.043
23683WAT     H171291   8.263   3.525   5.101
23683WAT     H271292   8.276   3.606   4.959
23684WAT      O71293   7.743   9.035   7.786
23684WAT     H171294   7.842   9.028   7.792
23684WAT     H271295   7.710   9.107   7.847
23685WAT      O71296   0.599   8.634   7.664
23685WAT     H171297   0.592   8.537   7.687
23685WAT     H271298   0.632   8.644   7.570
23686WAT      O71299   7.928   5.074   1.434
23686WAT     H171300   7.875   5.031   1.361
23686WAT     H271301   7.889   5.049   1.522
23687WAT      O71302   4.494   0.034   3.503
23687WAT     H171303   4.551   0.052   3.583
23687WAT     H271304   4.466  -0.062   3.503
23688WAT      O71305   8.172   8.973   4.178
23688WAT     H171306   8.253   8.934   4.134
23688WAT     H271307   8.186   9.071   4.191
23689WAT      O71308   5.410   0.803   4.796
23689WAT     H171309   5.444   0.887   4.754
23689WAT     H271310   5.408   0.815   4.896
23690WAT      O71311   2.494   6.229   7.757
23690WAT     H171312   2.542   6.165   7.696
23690WAT     H271313   2.478   6.185   7.845
23691WAT      O71314   8.946   0.115   1.754
23691WAT     H171315   9.043   0.131   1.771
23691WAT     H271316   8.926   0.017   1.761
23692WAT      O71317   4.839   5.058   1.835
23692WAT     H171318   4.866   4.971   1.877
23692WAT     H271319   4.858   5.133   1.898
23693WAT      O71320   1.348   9.446   6.306
23693WAT     H171321   1.312   9.411   6.393
23693WAT     H271322   1.315   9.389   6.231
23694WAT      O71323   7.902   2.927   3.763
23694WAT     H171324   7.993   2.895   3.734
23694WAT     H271325   7.834   2.901   3.695
23695WAT      O71326   9.445   1.603   5.498
23695WAT     H171327   9.372   1.627   5.561
23695WAT     H271328   9.440   1.505   5.478
23696WAT      O71329   3.645   3.964   8.487
23696WAT     H171330   3.720   3.898   8.498
23696WAT     H271331   3.641   3.994   8.392
23697WAT      O71332   0.153   7.497   7.047
23697WAT     H171333   0.180   7.593   7.054
23697WAT     H271334   0.076   7.480   7.108
23698WAT      O71335   7.610   2.135   5.815
23698WAT     H171336   7.699   2.143   5.860
23698WAT     H271337   7.610   2.189   5.731
23699WAT      O71338   6.073   1.606   0.984
23699WAT     H171339   6.116   1.696   0.976
23699WAT     H271340   6.126   1.549   1.047
23700WAT      O71341   5.593   0.316   8.258
23700WAT     H171342   5.654   0.392   8.277
23700WAT     H271343   5.611   0.242   8.323
23701WAT      O71344   0.491   8.420   1.121
23701WAT     H171345   0.499   8.334   1.172
23701WAT     H271346   0.441   8.403   1.036
23702WAT      O71347   4.676   6.333   1.593
23702WAT     H171348   4.619   6.333   1.511
23702WAT     H271349   4.619   6.347   1.674
23703WAT      O71350   0.604   2.712   7.880
23703WAT     H171351   0.690   2.688   7.924
23703WAT     H271352   0.545   2.761   7.944
23704WAT      O71353   2.551   7.966   6.384
23704WAT     H171354   2.490   7.986   6.461
23704WAT     H271355   2.638   7.931   6.419
23705WAT      O71356   9.253   1.153   3.786
23705WAT     H171357   9.320   1.142   3.860
23705WAT     H271358   9.300   1.187   3.704
23706WAT      O71359   8.780   8.462   9.773
23706WAT     H171360   8.737   8.401   9.706
23706WAT     H271361   8.879   8.456   9.765
23707WAT      O71362   6.642   1.765   8.003
23707WAT     H171363   6.655   1.799   7.910
23707WAT     H271364   6.716   1.799   8.062
23708WAT      O71365   4.645   6.105   3.239
23708WAT     H171366   4.653   6.197   3.199
23708WAT     H271367   4.649   6.113   3.339
23709WAT      O71368   1.069   0.742   0.295
23709WAT     H171369   1.045   0.723   0.200
23709WAT     H271370   1.009   0.689   0.355
23710WAT      O71371   4.803   3.172   1.953
23710WAT     H171372   4.886   3.120   1.971
23710WAT     H271373   4.826   3.256   1.904
23711WAT      O71374   2.786   1.410   6.201
23711WAT     H171375   2.743   1.433   6.114
23711WAT     H271376   2.717   1.411   6.274
23712WAT      O71377   4.672   9.223   3.250
23712WAT     H171378   4.715   9.272   3.174
23712WAT     H271379   4.720   9.245   3.335
23713WAT      O71380   1.739   7.265   6.592
23713WAT     H171381   1.645   7.281   6.623
23713WAT     H271382   1.742   7.182   6.537
23714WAT      O71383   2.469   2.804   5.450
23714WAT     H171384   2.490   2.803   5.547
23714WAT     H271385   2.494   2.716   5.409
23715WAT      O71386   8.489   2.406   9.613
23715WAT     H171387   8.394   2.385   9.635
23715WAT     H271388   8.498   2.416   9.514
23716WAT      O71389   8.194   2.935   0.941
23716WAT     H171390   8.231   2.873   0.871
23716WAT     H271391   8.237   2.916   1.029
23717WAT      O71392   8.467   8.608   9.484
23717WAT     H171393   8.482   8.695   9.437
23717WAT     H271394   8.530   8.601   9.561
23718WAT      O71395   4.041   9.584   4.828
23718WAT     H171396   4.138   9.605   4.819
23718WAT     H271397   3.989   9.637   4.761
23719WAT      O71398   4.989   5.736   0.334
23719WAT     H171399   5.037   5.669   0.391
23719WAT     H271400   4.896   5.748   0.369
23720WAT      O71401   5.050   4.637   2.277
23720WAT     H171402   5.128   4.609   2.333
23720WAT     H271403   4.995   4.703   2.329
23721WAT      O71404   1.324   1.805   7.725
23721WAT     H171405   1.400   1.795   7.660
23721WAT     H271406   1.264   1.725   7.719
23722WAT      O71407   4.422   2.263   2.488
23722WAT     H171408   4.391   2.339   2.431
23722WAT     H271409   4.394   2.176   2.446
23723WAT      O71410   7.657   4.949   3.259
23723WAT     H171411   7.602   4.947   3.176
23723WAT     H271412   7.610   5.003   3.329
23724WAT      O71413   8.103   8.438   0.827
23724WAT     H171414   8.081   8.526   0.870
23724WAT     H271415   8.192   8.444   0.783
23725WAT      O71416   8.839   6.787   8.885
23725WAT     H171417   8.930   6.822   8.862
23725WAT     H271418   8.848   6.711   8.949
23726WAT      O71419   8.045   2.692   7.675
23726WAT     H171420   7.955   2.736   7.680
23726WAT     H271421   8.046   2.628   7.598
23727WAT      O71422   4.960   2.207   5.442
23727WAT     H171423   4.899   2.273   5.399
23727WAT     H271424   4.985   2.239   5.534
23728WAT      O71425   0.717   0.663   4.655
23728WAT     H171426   0.654   0.638   4.581
23728WAT     H271427   0.666   0.671   4.741
23729WAT      O71428   8.024   3.582   8.939
23729WAT     H171429   8.019   3.678   8.909
23729WAT     H271430   7.954   3.529   8.892
23730WAT      O71431   8.973   7.002   7.188
23730WAT     H171432   9.052   7.062   7.203
23730WAT     H271433   8.889   7.054   7.201
23731WAT      O71434   0.224   5.910   0.817
23731WAT     H171435   0.158   5.971   0.774
23731WAT     H271436   0.300   5.963   0.854
23732WAT      O71437   7.519   7.232   0.456
23732WAT     H171438   7.606   7.223   0.406
23732WAT     H271439   7.460   7.296   0.408
23733WAT      O71440   9.053   7.836   7.787
23733WAT     H171441   8.977   7.781   7.824
23733WAT     H271442   9.104   7.781   7.721
23734WAT      O71443   8.944   0.547   9.622
23734WAT     H171444   8.979   0.641   9.619
23734WAT     H271445   8.844   0.549   9.620
23735WAT      O71446   6.431   4.044   2.965
23735WAT     H171447   6.341   4.084   2.944
23735WAT     H271448   6.503   4.107   2.936
23736WAT      O71449   7.518   8.169   1.029
23736WAT     H171450   7.598   8.149   1.086
23736WAT     H271451   7.523   8.114   0.946
23737WAT      O71452   7.438   2.806   3.870
23737WAT     H171453   7.463   2.808   3.967
23737WAT     H271454   7.356   2.751   3.857
23738WAT      O71455   6.758   3.465   1.575
23738WAT     H171456   6.703   3.536   1.530
23738WAT     H271457   6.854   3.477   1.552
23739WAT      O71458   9.148   2.232   4.558
23739WAT     H171459   9.140   2.152   4.499
23739WAT     H271460   9.057   2.256   4.594
23740WAT      O71461   2.783   4.007   5.424
23740WAT     H171462   2.740   3.918   5.440
23740WAT     H271463   2.852   3.998   5.352
23741WAT      O71464   8.935   7.499   8.870
23741WAT     H171465   8.977   7.446   8.944
23741WAT     H271466   8.926   7.594   8.898
23742WAT      O71467   3.692   9.047   2.701
23742WAT     H171468   3.683   9.025   2.604
23742WAT     H271469   3.619   9.110   2.729
23743WAT      O71470   2.342   5.408   0.068
23743WAT     H171471   2.325   5.437   0.162
23743WAT     H271472   2.289   5.326   0.048
23744WAT      O71473   3.329   4.067   9.201
23744WAT     H171474   3.303   4.127   9.278
23744WAT     H271475   3.428   4.067   9.191
23745WAT      O71476   1.869   2.245   6.416
23745WAT     H171477   1.959   2.247   6.372
23745WAT     H271478   1.848   2.336   6.453
23746WAT      O71479   7.761   6.776   4.878
23746WAT     H171480   7.668   6.782   4.843
23746WAT     H271481   7.805   6.693   4.841
23747WAT      O71482   1.742   5.290   0.777
23747WAT     H171483   1.658   5.240   0.798
23747WAT     H271484   1.814   5.263   0.841
23748WAT      O71485   6.936   9.160   8.580
23748WAT     H171486   6.908   9.081   8.635
23748WAT     H271487   6.987   9.224   8.637
23749WAT      O71488   7.538   0.989   9.457
23749WAT     H171489   7.483   0.906   9.467
23749WAT     H271490   7.634   0.968   9.478
23750WAT      O71491   3.390   3.713   7.977
23750WAT     H171492   3.377   3.806   8.012
23750WAT     H271493   3.331   3.699   7.897
23751WAT      O71494   3.432   1.613   7.686
23751WAT     H171495   3.471   1.526   7.659
23751WAT     H271496   3.332   1.607   7.682
23752WAT      O71497   2.832   6.653   5.848
23752WAT     H171498   2.743   6.698   5.836
23752WAT     H271499   2.848   6.590   5.772
23753WAT      O71500   7.966   2.903   1.262
23753WAT     H171501   7.890   2.866   1.314
23753WAT     H271502   7.935   2.925   1.169
23754WAT      O71503   3.328   3.920   7.276
23754WAT     H171504   3.289   3.833   7.245
23754WAT     H271505   3.257   3.974   7.321
23755WAT      O71506   5.752   7.963   3.648
23755WAT     H171507   5.809   8.023   3.592
23755WAT     H271508   5.794   7.953   3.738
23756WAT      O71509   3.339   4.691   9.305
23756WAT     H171510   3.279   4.698   9.384
23756WAT     H271511   3.431   4.723   9.330
23757WAT      O71512   2.922   5.279   9.392
23757WAT     H171513   2.938   5.241   9.483
23757WAT     H271514   2.994   5.344   9.369
23758WAT      O71515   8.365   9.514   1.153
23758WAT     H171516   8.267   9.530   1.146
23758WAT     H271517   8.410   9.596   1.189
23759WAT      O71518   6.277   7.854   0.770
23759WAT     H171519   6.270   7.873   0.868
23759WAT     H271520   6.349   7.910   0.730
23760WAT      O71521   7.660   3.510   6.493
23760WAT     H171522   7.716   3.515   6.576
23760WAT     H271523   7.651   3.414   6.464
23761WAT      O71524   1.910   4.190   8.032
23761WAT     H171525   1.898   4.148   7.942
23761WAT     H271526   2.003   4.175   8.063
23762WAT      O71527   5.030   0.972   6.090
23762WAT     H171528   5.007   0.879   6.122
23762WAT     H271529   4.947   1.028   6.091
23763WAT      O71530   2.976   0.207   3.235
23763WAT     H171531   2.970   0.168   3.326
23763WAT     H271532   3.027   0.146   3.175
23764WAT      O71533   7.981   6.333   8.381
23764WAT     H171534   7.966   6.400   8.308
23764WAT     H271535   7.963   6.241   8.347
23765WAT      O71536   0.893   6.205   4.575
23765WAT     H171537   0.926   6.111   4.584
23765WAT     H271538   0.873   6.242   4.666
23766WAT      O71539   5.931   8.211   2.191
23766WAT     H171540   5.845   8.160   2.202
23766WAT     H271541   5.922   8.301   2.235
23767WAT      O71542   0.264   4.674   2.049
23767WAT     H171543   0.334   4.737   2.015
23767WAT     H271544   0.216   4.633   1.971
23768WAT      O71545   6.861   6.427   4.326
23768WAT     H171546   6.949   6.420   4.279
23768WAT     H271547   6.805   6.347   4.303
23769WAT      O71548   1.650   7.335   4.169
23769WAT     H171549   1.583   7.407   4.150
23769WAT     H271550   1.674   7.290   4.083
23770WAT      O71551   0.266   8.726   4.269
23770WAT     H171552   0.275   8.798   4.337
23770WAT     H271553   0.170   8.713   4.246
23771WAT      O71554   0.547   8.468   4.252
23771WAT     H171555   0.503   8.492   4.339
23771WAT     H271556   0.602   8.386   4.264
23772WAT      O71557   3.212   8.600   1.391
23772WAT     H171558   3.130   8.652   1.415
23772WAT     H271559   3.242   8.546   1.470
23773WAT      O71560   5.811   7.241   1.981
23773WAT     H171561   5.907   7.214   1.982
23773WAT     H271562   5.755   7.166   2.015
23774WAT      O71563   0.428   6.779   3.225
23774WAT     H171564   0.345   6.756   3.174
23774WAT     H271565   0.472   6.858   3.183
23775WAT      O71566   5.851   6.609   2.623
23775WAT     H171567   5.867   6.520   2.664
23775WAT     H271568   5.766   6.607   2.571
23776WAT      O71569   3.339   7.196   9.230
23776WAT     H171570   3.438   7.205   9.241
23776WAT     H271571   3.293   7.236   9.309
23777WAT      O71572   0.820   4.787   4.170
23777WAT     H171573   0.842   4.697   4.131
23777WAT     H271574   0.746   4.777   4.236
23778WAT      O71575   3.765   6.526   0.971
23778WAT     H171576   3.788   6.622   0.987
23778WAT     H271577   3.805   6.469   1.043
23779WAT      O71578   1.175   0.940   8.617
23779WAT     H171579   1.234   1.013   8.582
23779WAT     H271580   1.229   0.856   8.625
23780WAT      O71581   7.941   5.563   1.378
23780WAT     H171582   8.018   5.627   1.375
23780WAT     H271583   7.959   5.487   1.314
23781WAT      O71584   2.331   5.939   7.832
23781WAT     H171585   2.386   5.997   7.892
23781WAT     H271586   2.234   5.964   7.842
23782WAT      O71587   5.205   9.257   9.152
23782WAT     H171588   5.284   9.309   9.185
23782WAT     H271589   5.133   9.321   9.124
23783WAT      O71590   6.210   0.359   0.370
23783WAT     H171591   6.179   0.276   0.324
23783WAT     H271592   6.131   0.417   0.390
23784WAT      O71593   6.334   2.334   0.496
23784WAT     H171594   6.305   2.411   0.552
23784WAT     H271595   6.256   2.303   0.440
23785WAT      O71596   7.334   0.901   3.455
23785WAT     H171597   7.363   0.806   3.450
23785WAT     H271598   7.386   0.948   3.527
23786WAT      O71599   7.451   2.830   8.738
23786WAT     H171600   7.499   2.742   8.737
23786WAT     H271601   7.387   2.834   8.661
23787WAT      O71602   7.170   1.415   7.844
23787WAT     H171603   7.123   1.329   7.823
23787WAT     H271604   7.185   1.422   7.942
23788WAT      O71605   2.945   1.563   7.215
23788WAT     H171606   2.907   1.626   7.282
23788WAT     H271607   3.042   1.585   7.200
23789WAT      O71608   7.956   1.570   3.740
23789WAT     H171609   7.889   1.628   3.787
23789WAT     H271610   7.909   1.513   3.672
23790WAT      O71611   7.262   2.265   1.750
23790WAT     H171612   7.325   2.310   1.687
23790WAT     H271613   7.309   2.187   1.792
23791WAT      O71614   4.315   2.589   9.353
23791WAT     H171615   4.299   2.512   9.415
23791WAT     H271616   4.403   2.576   9.307
23792WAT      O71617   4.820   9.698   8.620
23792WAT     H171618   4.762   9.673   8.544
23792WAT     H271619   4.772   9.684   8.706
23793WAT      O71620   1.835   6.050   4.680
23793WAT     H171621   1.765   5.979   4.681
23793WAT     H271622   1.905   6.027   4.612
23794WAT      O71623   5.666   3.064   5.248
23794WAT     H171624   5.629   3.030   5.335
23794WAT     H271625   5.764   3.046   5.244
23795WAT      O71626   5.813   9.015   2.961
23795WAT     H171627   5.860   9.009   2.872
23795WAT     H271628   5.866   9.074   3.022
23796WAT      O71629   2.575   3.463   9.749
23796WAT     H171630   2.641   3.533   9.723
23796WAT     H271631   2.623   3.383   9.786
23797WAT      O71632   2.475   5.031   3.804
23797WAT     H171633   2.467   5.130   3.817
23797WAT     H271634   2.441   4.983   3.885
23798WAT      O71635   0.774   9.390   6.704
23798WAT     H171636   0.808   9.297   6.715
23798WAT     H271637   0.823   9.452   6.766
23799WAT      O71638   0.883   8.919   7.497
23799WAT     H171639   0.912   8.832   7.458
23799WAT     H271640   0.959   8.959   7.549
23800WAT      O71641   5.583   2.312   2.481
23800WAT     H171642   5.639   2.230   2.493
23800WAT     H271643   5.502   2.306   2.539
23801WAT      O71644   2.071   4.900   1.301
23801WAT     H171645   2.113   4.865   1.217
23801WAT     H271646   2.138   4.954   1.352
23802WAT      O71647   9.511   6.902   0.257
23802WAT     H171648   9.537   6.996   0.281
23802WAT     H271649   9.415   6.886   0.283
23803WAT      O71650   9.106   5.746   0.682
23803WAT     H171651   9.197   5.734   0.722
23803WAT     H271652   9.112   5.809   0.604
23804WAT      O71653   7.213   3.674   4.196
23804WAT     H171654   7.307   3.697   4.173
23804WAT     H271655   7.168   3.633   4.116
23805WAT      O71656   0.777   9.353   5.546
23805WAT     H171657   0.685   9.377   5.578
23805WAT     H271658   0.804   9.416   5.473
23806WAT      O71659   8.750   7.828   4.351
23806WAT     H171660   8.787   7.788   4.267
23806WAT     H271661   8.678   7.892   4.328
23807WAT      O71662   2.906   9.513   2.990
23807WAT     H171663   2.948   9.521   3.081
23807WAT     H271664   2.958   9.567   2.925
23808WAT      O71665   5.368   9.327   4.286
23808WAT     H171666   5.348   9.268   4.364
23808WAT     H271667   5.306   9.405   4.286
23809WAT      O71668   8.172   3.162   2.435
23809WAT     H171669   8.145   3.235   2.372
23809WAT     H271670   8.271   3.153   2.435
23810WAT      O71671   3.856   6.731   2.560
23810WAT     H171672   3.781   6.796   2.577
23810WAT     H271673   3.818   6.641   2.539
23811WAT      O71674   0.301   8.224   8.045
23811WAT     H171675   0.279   8.223   7.948
23811WAT     H271676   0.380   8.166   8.063
23812WAT      O71677   4.909   5.580   9.540
23812WAT     H171678   4.903   5.488   9.579
23812WAT     H271679   4.845   5.588   9.464
23813WAT      O71680   1.381   5.445   4.659
23813WAT     H171681   1.365   5.381   4.585
23813WAT     H271682   1.293   5.471   4.701
23814WAT      O71683   5.722   8.033   4.367
23814WAT     H171684   5.778   8.032   4.450
23814WAT     H271685   5.648   8.100   4.378
23815WAT      O71686   5.051   0.264   3.147
23815WAT     H171687   4.985   0.253   3.073
23815WAT     H271688   5.139   0.224   3.119
23816WAT      O71689   6.222   3.312   5.240
23816WAT     H171690   6.195   3.261   5.322
23816WAT     H271691   6.290   3.381   5.265
23817WAT      O71692   0.692   4.495   3.717
23817WAT     H171693   0.730   4.463   3.630
23817WAT     H271694   0.593   4.490   3.714
23818WAT      O71695   4.608   7.262   2.663
23818WAT     H171696   4.539   7.304   2.722
23818WAT     H271697   4.591   7.163   2.657
23819WAT      O71698   1.578   9.228   0.409
23819WAT     H171699   1.545   9.205   0.500
23819WAT     H271700   1.529   9.309   0.376
23820WAT      O71701   1.742   7.099   8.070
23820WAT     H171702   1.665   7.155   8.042
23820WAT     H271703   1.709   7.008   8.097
23821WAT      O71704   1.172   6.640   8.057
23821WAT     H171705   1.134   6.687   7.977
23821WAT     H271706   1.113   6.653   8.136
23822WAT      O71707   2.642   6.050   5.098
23822WAT     H171708   2.668   6.059   5.002
23822WAT     H271709   2.560   5.993   5.105
23823WAT      O71710   3.459   8.342   7.579
23823WAT     H171711   3.488   8.421   7.632
23823WAT     H271712   3.491   8.351   7.484
23824WAT      O71713   0.834   7.651   0.284
23824WAT     H171714   0.889   7.711   0.225
23824WAT     H271715   0.738   7.656   0.255
23825WAT      O71716   2.554   7.563   6.060
23825WAT     H171717   2.559   7.592   5.964
23825WAT     H271718   2.643   7.577   6.103
23826WAT      O71719   2.969   6.712   1.136
23826WAT     H171720   3.049   6.767   1.110
23826WAT     H271721   2.999   6.638   1.197
23827WAT      O71722   1.124   5.390   3.678
23827WAT     H171723   1.032   5.350   3.669
23827WAT     H271724   1.189   5.319   3.703
23828WAT      O71725   5.591   6.083   6.126
23828WAT     H171726   5.595   6.124   6.034
23828WAT     H271727   5.677   6.036   6.145
23829WAT      O71728   2.539   4.505   0.492
23829WAT     H171729   2.568   4.597   0.519
23829WAT     H271730   2.494   4.509   0.403
23830WAT      O71731   7.951   0.508   2.568
23830WAT     H171732   7.939   0.418   2.525
23830WAT     H271733   8.011   0.500   2.647
23831WAT      O71734   0.565   6.279   9.760
23831WAT     H171735   0.617   6.198   9.736
23831WAT     H271736   0.474   6.275   9.718
23832WAT      O71737   1.734   0.080   4.033
23832WAT     H171738   1.748   0.163   4.087
23832WAT     H271739   1.769   0.001   4.083
23833WAT      O71740   6.985   1.470   1.754
23833WAT     H171741   7.067   1.461   1.811
23833WAT     H271742   6.907   1.494   1.812
23834WAT      O71743   3.296   6.180   4.154
23834WAT     H171744   3.198   6.200   4.152
23834WAT     H271745   3.342   6.231   4.081
23835WAT      O71746   6.123   0.975   4.908
23835WAT     H171747   6.036   1.021   4.926
23835WAT     H271748   6.122   0.884   4.948
23836WAT      O71749   4.377   2.752   6.987
23836WAT     H171750   4.430   2.686   7.040
23836WAT     H271751   4.429   2.778   6.905
23837WAT      O71752   5.090   4.378   6.616
23837WAT     H171753   5.070   4.282   6.599
23837WAT     H271754   5.132   4.388   6.706
23838WAT      O71755   3.526   7.027   0.015
23838WAT     H171756   3.451   6.996   0.074
23838WAT     H271757   3.612   7.021   0.064
23839WAT      O71758   0.590   6.063   6.330
23839WAT     H171759   0.617   6.038   6.237
23839WAT     H271760   0.502   6.020   6.351
23840WAT      O71761   4.569   2.320   0.699
23840WAT     H171762   4.494   2.358   0.646
23840WAT     H271763   4.596   2.232   0.662
23841WAT      O71764   4.750   5.034   7.487
23841WAT     H171765   4.846   5.048   7.510
23841WAT     H271766   4.713   4.959   7.543
23842WAT      O71767   5.086   5.750   4.676
23842WAT     H171768   5.174   5.797   4.680
23842WAT     H271769   5.081   5.695   4.593
23843WAT      O71770   5.214   0.736   7.407
23843WAT     H171771   5.166   0.714   7.492
23843WAT     H271772   5.258   0.826   7.416
23844WAT      O71773   5.458   1.966   2.549
23844WAT     H171774   5.530   1.906   2.584
23844WAT     H271775   5.461   1.966   2.449
23845WAT      O71776   8.358   0.273   4.507
23845WAT     H171777   8.259   0.263   4.515
23845WAT     H271778   8.393   0.210   4.438
23846WAT      O71779   1.837   7.898   4.303
23846WAT     H171780   1.930   7.894   4.267
23846WAT     H271781   1.839   7.882   4.402
23847WAT      O71782   6.175   5.090   0.503
23847WAT     H171783   6.134   5.045   0.583
23847WAT     H271784   6.139   5.182   0.494
23848WAT      O71785   3.960   6.014   9.401
23848WAT     H171786   3.994   6.091   9.454
23848WAT     H271787   3.866   6.032   9.372
23849WAT      O71788   9.655   3.006   7.749
23849WAT     H171789   9.600   3.084   7.781
23849WAT     H271790   9.594   2.935   7.714
23850WAT      O71791   7.109   1.899   5.314
23850WAT     H171792   7.091   1.878   5.218
23850WAT     H271793   7.208   1.896   5.331
23851WAT      O71794   1.086   1.331   5.316
23851WAT     H171795   1.148   1.334   5.394
23851WAT     H271796   1.082   1.422   5.274
23852WAT      O71797   6.921   6.603   1.274
23852WAT     H171798   6.858   6.679   1.289
23852WAT     H271799   6.898   6.556   1.189
23853WAT      O71800   4.125   4.447   3.666
23853WAT     H171801   4.192   4.373   3.663
23853WAT     H271802   4.164   4.525   3.714
23854WAT      O71803   4.558   8.461   0.322
23854WAT     H171804   4.531   8.369   0.351
23854WAT     H271805   4.484   8.503   0.269
23855WAT      O71806   4.052   3.212   1.703
23855WAT     H171807   4.111   3.255   1.771
23855WAT     H271808   3.957   3.237   1.722
23856WAT      O71809   7.561   4.481   3.337
23856WAT     H171810   7.581   4.558   3.399
23856WAT     H271811   7.479   4.434   3.369
23857WAT      O71812   4.082   7.405   0.927
23857WAT     H171813   4.106   7.502   0.938
23857WAT     H271814   4.126   7.352   1.000
23858WAT      O71815   9.561   1.181   8.766
23858WAT     H171816   9.659   1.159   8.769
23858WAT     H271817   9.509   1.096   8.766
23859WAT      O71818   2.007   5.076   0.585
23859WAT     H171819   1.925   5.030   0.620
23859WAT     H271820   1.998   5.174   0.599
23860WAT      O71821   6.782   4.082   6.252
23860WAT     H171822   6.835   4.104   6.334
23860WAT     H271823   6.768   3.983   6.246
23861WAT      O71824   0.063   9.023   7.159
23861WAT     H171825   0.069   9.009   7.061
23861WAT     H271826   0.154   9.016   7.200
23862WAT      O71827   8.907   3.275   7.600
23862WAT     H171828   8.939   3.363   7.564
23862WAT     H271829   8.904   3.208   7.526
23863WAT      O71830   3.810   8.179   5.761
23863WAT     H171831   3.839   8.123   5.838
23863WAT     H271832   3.757   8.257   5.794
23864WAT      O71833   8.825   8.054   0.080
23864WAT     H171834   8.901   8.115   0.056
23864WAT     H271835   8.777   8.091   0.160
23865WAT      O71836   8.228   8.632   3.984
23865WAT     H171837   8.269   8.609   3.896
23865WAT     H271838   8.247   8.558   4.050
23866WAT      O71839   7.698   9.241   7.980
23866WAT     H171840   7.637   9.317   8.001
23866WAT     H271841   7.793   9.273   7.980
23867WAT      O71842   6.324   9.097   6.957
23867WAT     H171843   6.355   9.137   7.043
23867WAT     H271844   6.226   9.110   6.947
23868WAT      O71845   0.348   9.561   3.866
23868WAT     H171846   0.292   9.623   3.921
23868WAT     H271847   0.429   9.610   3.832
23869WAT      O71848   5.271   3.829   5.525
23869WAT     H171849   5.268   3.730   5.512
23869WAT     H271850   5.350   3.853   5.581
23870WAT      O71851   0.807   6.620   0.029
23870WAT     H171852   0.811   6.704  -0.025
23870WAT     H271853   0.789   6.542  -0.031
23871WAT      O71854   2.675   4.120   6.530
23871WAT     H171855   2.700   4.024   6.540
23871WAT     H271856   2.691   4.149   6.436
23872WAT      O71857   1.891   3.469   6.744
23872WAT     H171858   1.989   3.481   6.734
23872WAT     H271859   1.844   3.522   6.673
23873WAT      O71860   5.454   6.183   7.570
23873WAT     H171861   5.427   6.106   7.627
23873WAT     H271862   5.374   6.242   7.554
23874WAT      O71863   0.487   4.302   5.888
23874WAT     H171864   0.405   4.245   5.879
23874WAT     H271865   0.542   4.293   5.805
23875WAT      O71866   8.416   4.423   7.317
23875WAT     H171867   8.374   4.491   7.377
23875WAT     H271868   8.392   4.331   7.349
23876WAT      O71869   8.039   7.227   4.354
23876WAT     H171870   8.102   7.161   4.313
23876WAT     H271871   8.046   7.222   4.454
23877WAT      O71872   8.406   4.065   5.975
23877WAT     H171873   8.391   3.970   6.002
23877WAT     H271874   8.420   4.071   5.876
23878WAT      O71875   7.308   4.215   3.012
23878WAT     H171876   7.228   4.190   2.958
23878WAT     H271877   7.292   4.191   3.108
23879WAT      O71878   7.198   3.871   7.443
23879WAT     H171879   7.243   3.913   7.521
23879WAT     H271880   7.107   3.838   7.470
23880WAT      O71881   7.245   0.559   3.156
23880WAT     H171882   7.200   0.472   3.174
23880WAT     H271883   7.199   0.605   3.079
23881WAT      O71884   9.533   2.536   7.465
23881WAT     H171885   9.436   2.547   7.445
23881WAT     H271886   9.560   2.441   7.453
23882WAT      O71887   9.785   7.774   3.757
23882WAT     H171888   9.754   7.706   3.690
23882WAT     H271889   9.862   7.737   3.808
23883WAT      O71890   7.637   7.981   2.338
23883WAT     H171891   7.612   7.939   2.425
23883WAT     H271892   7.607   7.923   2.262
23884WAT      O71893   9.025   0.772   8.269
23884WAT     H171894   9.016   0.743   8.364
23884WAT     H271895   9.087   0.710   8.221
23885WAT      O71896   9.019   2.787   0.186
23885WAT     H171897   8.943   2.733   0.223
23885WAT     H271898   8.982   2.867   0.138
23886WAT      O71899   9.095   6.824   8.829
23886WAT     H171900   9.102   6.724   8.829
23886WAT     H271901   9.181   6.863   8.800
23887WAT      O71902   6.484   1.889   0.726
23887WAT     H171903   6.462   1.984   0.702
23887WAT     H271904   6.488   1.834   0.643
23888WAT      O71905   8.024   2.263   0.249
23888WAT     H171906   8.091   2.306   0.309
23888WAT     H271907   7.992   2.329   0.181
23889WAT      O71908   0.569   9.557   9.888
23889WAT     H171909   0.485   9.532   9.937
23889WAT     H271910   0.561   9.651   9.854
23890WAT      O71911   4.171   6.295   7.342
23890WAT     H171912   4.128   6.326   7.257
23890WAT     H271913   4.151   6.198   7.356
23891WAT      O71914   4.951   1.381   7.805
23891WAT     H171915   4.856   1.408   7.790
23891WAT     H271916   4.996   1.367   7.717
23892WAT      O71917   3.621   5.308   1.382
23892WAT     H171918   3.665   5.251   1.452
23892WAT     H271919   3.691   5.341   1.319
23893WAT      O71920   3.176   6.380   8.595
23893WAT     H171921   3.142   6.450   8.657
23893WAT     H271922   3.190   6.419   8.505
23894WAT      O71923   4.601   4.386   6.095
23894WAT     H171924   4.663   4.441   6.152
23894WAT     H271925   4.508   4.421   6.105
23895WAT      O71926   2.423   0.298   4.130
23895WAT     H171927   2.506   0.342   4.096
23895WAT     H271928   2.412   0.209   4.086
23896WAT      O71929   8.605   6.638   7.946
23896WAT     H171930   8.561   6.580   7.877
23896WAT     H271931   8.687   6.593   7.981
23897WAT      O71932   9.193   8.632   2.253
23897WAT     H171933   9.246   8.584   2.322
23897WAT     H271934   9.149   8.566   2.192
23898WAT      O71935   5.494   4.734   1.095
23898WAT     H171936   5.439   4.651   1.105
23898WAT     H271937   5.451   4.808   1.147
23899WAT      O71938   9.022   3.503   7.505
23899WAT     H171939   9.118   3.525   7.523
23899WAT     H271940   8.966   3.585   7.517
23900WAT      O71941   5.487   1.220   8.583
23900WAT     H171942   5.530   1.273   8.510
23900WAT     H271943   5.429   1.149   8.544
23901WAT      O71944   0.088   3.037   9.026
23901WAT     H171945   0.112   2.972   9.098
23901WAT     H271946   0.034   3.111   9.064
23902WAT      O71947   9.821   5.699   2.396
23902WAT     H171948   9.844   5.764   2.323
23902WAT     H271949   9.875   5.720   2.477
23903WAT      O71950   5.909   4.231   0.863
23903WAT     H171951   5.922   4.204   0.959
23903WAT     H271952   5.935   4.156   0.803
23904WAT      O71953   8.167   5.757   3.694
23904WAT     H171954   8.193   5.674   3.744
23904WAT     H271955   8.138   5.732   3.602
23905WAT      O71956   4.659   2.376   8.549
23905WAT     H171957   4.732   2.371   8.618
23905WAT     H271958   4.570   2.376   8.594
23906WAT      O71959   5.106   0.244   9.073
23906WAT     H171960   5.141   0.315   9.012
23906WAT     H271961   5.057   0.286   9.149
23907WAT      O71962   7.616   7.138   4.709
23907WAT     H171963   7.553   7.077   4.758
23907WAT     H271964   7.597   7.134   4.611
23908WAT      O71965   8.911   5.978   2.559
23908WAT     H171966   8.950   6.060   2.518
23908WAT     H271967   8.963   5.898   2.530
23909WAT      O71968   5.779   8.131   6.439
23909WAT     H171969   5.810   8.039   6.417
23909WAT     H271970   5.769   8.183   6.354
23910WAT      O71971   7.227   2.283   6.575
23910WAT     H171972   7.269   2.212   6.518
23910WAT     H271973   7.289   2.361   6.580
23911WAT      O71974   7.912   1.322   5.735
23911WAT     H171975   7.906   1.348   5.639
23911WAT     H271976   7.984   1.374   5.780
23912WAT      O71977   0.350   5.726   9.097
23912WAT     H171978   0.357   5.821   9.127
23912WAT     H271979   0.257   5.692   9.114
23913WAT      O71980   4.010   3.599   6.021
23913WAT     H171981   4.107   3.599   6.047
23913WAT     H271982   3.986   3.688   5.981
23914WAT      O71983   2.669   0.092   2.393
23914WAT     H171984   2.613   0.159   2.345
23914WAT     H271985   2.714   0.032   2.327
23915WAT      O71986   1.057   5.619   4.437
23915WAT     H171987   1.112   5.563   4.375
23915WAT     H271988   1.023   5.700   4.389
23916WAT      O71989   4.902   3.136   4.524
23916WAT     H171990   4.823   3.133   4.585
23916WAT     H271991   4.941   3.044   4.516
23917WAT      O71992   3.091   6.568   9.107
23917WAT     H171993   3.000   6.589   9.142
23917WAT     H271994   3.160   6.592   9.175
23918WAT      O71995   9.231   3.271   7.518
23918WAT     H171996   9.205   3.250   7.612
23918WAT     H271997   9.161   3.238   7.455
23919WAT      O71998   5.268   6.650   7.463
23919WAT     H171999   5.208   6.719   7.502
23919WAT     H272000   5.332   6.693   7.399
23920WAT      O72001   6.862   2.163   1.349
23920WAT     H172002   6.773   2.177   1.393
23920WAT     H272003   6.933   2.155   1.419
23921WAT      O72004   8.065   6.381   0.896
23921WAT     H172005   8.104   6.296   0.861
23921WAT     H272006   8.134   6.454   0.892
23922WAT      O72007   0.266   5.678   2.971
23922WAT     H172008   0.193   5.624   2.929
23922WAT     H272009   0.249   5.685   3.070
23923WAT      O72010   6.041   2.192   8.521
23923WAT     H172011   6.098   2.164   8.444
23923WAT     H272012   6.046   2.124   8.593
23924WAT      O72013   5.185   6.282   3.373
23924WAT     H172014   5.282   6.266   3.352
23924WAT     H272015   5.174   6.294   3.472
23925WAT      O72016   4.089   2.300   1.959
23925WAT     H172017   4.079   2.279   2.056
23925WAT     H272018   4.099   2.398   1.946
23926WAT      O72019   5.435   6.834   7.018
23926WAT     H172020   5.335   6.824   7.020
23926WAT     H272021   5.459   6.931   7.025
23927WAT      O72022   5.774   6.016   2.031
23927WAT     H172023   5.801   5.983   1.941
23927WAT     H272024   5.722   5.945   2.079
23928WAT      O72025   7.624   5.841   9.185
23928WAT     H172026   7.645   5.765   9.123
23928WAT     H272027   7.526   5.861   9.180
23929WAT      O72028   7.746   7.953   6.994
23929WAT     H172029   7.710   8.043   7.021
23929WAT     H272030   7.762   7.898   7.076
23930WAT      O72031   3.191   9.049   7.965
23930WAT     H172032   3.210   9.113   8.039
23930WAT     H272033   3.109   9.077   7.916
23931WAT      O72034   0.029   4.549   8.767
23931WAT     H172035   0.000   4.643   8.752
23931WAT     H272036  -0.015   4.513   8.849
23932WAT      O72037   0.449   7.107   4.031
23932WAT     H172038   0.439   7.206   4.031
23932WAT     H272039   0.508   7.080   4.108
23933WAT      O72040   2.361   3.883   8.405
23933WAT     H172041   2.425   3.953   8.437
23933WAT     H272042   2.277   3.889   8.460
23934WAT      O72043   7.436   0.171   8.362
23934WAT     H172044   7.427   0.208   8.269
23934WAT     H272045   7.461   0.075   8.356
23935WAT      O72046   8.579   4.920   5.846
23935WAT     H172047   8.603   4.968   5.930
23935WAT     H272048   8.643   4.944   5.773
23936WAT      O72049   3.883   0.593   3.340
23936WAT     H172050   3.898   0.691   3.327
23936WAT     H272051   3.878   0.547   3.251
23937WAT      O72052   6.584   5.308   5.770
23937WAT     H172053   6.507   5.284   5.711
23937WAT     H272054   6.592   5.241   5.844
23938WAT      O72055   4.422   7.719   4.454
23938WAT     H172056   4.476   7.737   4.372
23938WAT     H272057   4.432   7.623   4.480
23939WAT      O72058   6.808   1.436   7.281
23939WAT     H172059   6.735   1.457   7.345
23939WAT     H272060   6.863   1.518   7.264
23940WAT      O72061   4.041   6.149   3.266
23940WAT     H172062   4.039   6.194   3.355
23940WAT     H272063   4.050   6.050   3.278
23941WAT      O72064   3.599   9.361   7.021
23941WAT     H172065   3.558   9.356   7.112
23941WAT     H272066   3.531   9.394   6.956
23942WAT      O72067   6.450   0.616   7.873
23942WAT     H172068   6.479   0.685   7.940
23942WAT     H272069   6.530   0.587   7.819
23943WAT      O72070   5.959   1.420   4.475
23943WAT     H172071   5.871   1.465   4.485
23943WAT     H272072   5.995   1.396   4.566
23944WAT      O72073   0.784   1.087   7.666
23944WAT     H172074   0.840   1.105   7.585
23944WAT     H272075   0.691   1.120   7.650
23945WAT      O72076   0.681   3.579   2.161
23945WAT     H172077   0.596   3.573   2.108
23945WAT     H272078   0.740   3.502   2.137
23946WAT      O72079   3.611   8.780   4.285
23946WAT     H172080   3.563   8.847   4.228
23946WAT     H272081   3.648   8.708   4.226
23947WAT      O72082   1.544   8.533   3.885
23947WAT     H172083   1.445   8.537   3.892
23947WAT     H272084   1.585   8.573   3.967
23948WAT      O72085   2.702   5.265   9.227
23948WAT     H172086   2.777   5.286   9.290
23948WAT     H272087   2.736   5.266   9.133
23949WAT      O72088   9.518   6.085   9.496
23949WAT     H172089   9.534   6.071   9.398
23949WAT     H272090   9.421   6.103   9.512
23950WAT      O72091   8.436   9.787   3.607
23950WAT     H172092   8.410   9.882   3.624
23950WAT     H272093   8.534   9.776   3.624
23951WAT      O72094   5.816   1.247   2.442
23951WAT     H172095   5.864   1.265   2.527
23951WAT     H272096   5.754   1.169   2.454
23952WAT      O72097   6.792   5.228   8.390
23952WAT     H172098   6.862   5.203   8.323
23952WAT     H272099   6.836   5.267   8.471
23953WAT      O72100   3.594   2.661   8.602
23953WAT     H172101   3.546   2.739   8.563
23953WAT     H272102   3.623   2.684   8.695
23954WAT      O72103   2.039   1.073   7.980
23954WAT     H172104   2.087   0.993   8.016
23954WAT     H272105   2.030   1.065   7.881
23955WAT      O72106   1.923   8.006   8.651
23955WAT     H172107   1.967   8.016   8.561
23955WAT     H272108   1.974   7.940   8.705
23956WAT      O72109   9.406   7.916   9.637
23956WAT     H172110   9.495   7.962   9.640
23956WAT     H272111   9.335   7.979   9.667
23957WAT      O72112   2.389   1.738   1.524
23957WAT     H172113   2.322   1.665   1.511
23957WAT     H272114   2.455   1.710   1.593
23958WAT      O72115   7.408   6.864   6.771
23958WAT     H172116   7.421   6.785   6.711
23958WAT     H272117   7.310   6.880   6.785
23959WAT      O72118   3.064   8.968   1.635
23959WAT     H172119   3.061   8.936   1.730
23959WAT     H272120   3.000   9.044   1.624
23960WAT      O72121   8.081   8.281   5.853
23960WAT     H172122   8.070   8.182   5.865
23960WAT     H272123   8.006   8.316   5.797
23961WAT      O72124   5.258   0.279   0.055
23961WAT     H172125   5.239   0.183   0.075
23961WAT     H272126   5.353   0.289   0.024
23962WAT      O72127   2.064   3.380   9.379
23962WAT     H172128   1.996   3.412   9.314
23962WAT     H272129   2.137   3.332   9.329
23963WAT      O72130   2.757   4.022   9.279
23963WAT     H172131   2.849   4.061   9.267
23963WAT     H272132   2.765   3.930   9.316
23964WAT      O72133   1.270   0.020   9.528
23964WAT     H172134   1.300  -0.050   9.463
23964WAT     H272135   1.175   0.046   9.508
23965WAT      O72136   6.452   9.435   6.092
23965WAT     H172137   6.453   9.503   6.166
23965WAT     H272138   6.456   9.343   6.131
23966WAT      O72139   8.715   9.822   0.220
23966WAT     H172140   8.616   9.823   0.203
23966WAT     H272141   8.761   9.772   0.147
23967WAT      O72142   8.507   7.916   3.752
23967WAT     H172143   8.595   7.875   3.728
23967WAT     H272144   8.469   7.869   3.831
23968WAT      O72145   8.691   2.485   4.863
23968WAT     H172146   8.624   2.557   4.880
23968WAT     H272147   8.783   2.521   4.882
23969WAT      O72148   0.934   6.293   6.598
23969WAT     H172149   0.976   6.281   6.508
23969WAT     H272150   0.845   6.247   6.600
23970WAT      O72151   0.451   8.648   2.316
23970WAT     H172152   0.383   8.595   2.366
23970WAT     H272153   0.493   8.715   2.377
23971WAT      O72154   5.933   8.294   7.680
23971WAT     H172155   5.875   8.350   7.622
23971WAT     H272156   6.009   8.349   7.716
23972WAT      O72157   3.163   8.010   7.448
23972WAT     H172158   3.219   8.047   7.522
23972WAT     H272159   3.217   8.007   7.363
23973WAT      O72160   0.881   3.306   0.862
23973WAT     H172161   0.906   3.387   0.810
23973WAT     H272162   0.840   3.333   0.949
23974WAT      O72163   0.439   4.299   9.761
23974WAT     H172164   0.440   4.238   9.840
23974WAT     H272165   0.515   4.363   9.767
23975WAT      O72166   8.749   6.053   8.501
23975WAT     H172167   8.692   6.095   8.571
23975WAT     H272168   8.815   6.119   8.467
23976WAT      O72169   0.352   1.865   7.216
23976WAT     H172170   0.392   1.946   7.259
23976WAT     H272171   0.423   1.815   7.167
23977WAT      O72172   5.097   8.146   6.587
23977WAT     H172173   5.169   8.106   6.530
23977WAT     H272174   5.067   8.233   6.546
23978WAT      O72175   1.553   6.427   4.726
23978WAT     H172176   1.634   6.384   4.687
23978WAT     H272177   1.514   6.490   4.660
23979WAT      O72178   4.717   3.927   4.727
23979WAT     H172179   4.643   3.960   4.785
23979WAT     H272180   4.734   3.830   4.745
23980WAT      O72181   7.392   3.471   5.425
23980WAT     H172182   7.322   3.405   5.396
23980WAT     H272183   7.482   3.428   5.421
23981WAT      O72184   0.595   7.940   7.854
23981WAT     H172185   0.602   7.845   7.825
23981WAT     H272186   0.678   7.989   7.827
23982WAT      O72187   6.586   3.184   7.633
23982WAT     H172188   6.552   3.160   7.542
23982WAT     H272189   6.680   3.217   7.626
23983WAT      O72190   1.150   6.917   7.142
23983WAT     H172191   1.152   6.817   7.147
23983WAT     H272192   1.190   6.947   7.055
23984WAT      O72193   2.191   6.882   7.921
23984WAT     H172194   2.137   6.824   7.982
23984WAT     H272195   2.152   6.878   7.829
23985WAT      O72196   4.611   1.066   4.375
23985WAT     H172197   4.549   1.058   4.297
23985WAT     H272198   4.612   0.980   4.426
23986WAT      O72199   1.060   9.351   5.907
23986WAT     H172200   1.061   9.382   5.812
23986WAT     H272201   0.978   9.386   5.953
23987WAT      O72202   9.012   4.160   1.541
23987WAT     H172203   9.052   4.185   1.630
23987WAT     H272204   9.053   4.217   1.470
23988WAT      O72205   2.546   2.194   3.279
23988WAT     H172206   2.626   2.152   3.322
23988WAT     H272207   2.500   2.125   3.223
23989WAT      O72208   5.854   6.439   2.024
23989WAT     H172209   5.815   6.487   2.102
23989WAT     H272210   5.908   6.502   1.969
23990WAT      O72211   5.792   2.127   9.131
23990WAT     H172212   5.855   2.149   9.205
23990WAT     H272213   5.711   2.184   9.137
23991WAT      O72214   3.299   5.899   6.696
23991WAT     H172215   3.206   5.880   6.668
23991WAT     H272216   3.361   5.888   6.618
23992WAT      O72217   4.916   1.115   8.531
23992WAT     H172218   4.933   1.210   8.559
23992WAT     H272219   4.821   1.106   8.503
23993WAT      O72220   0.064   9.346   1.744
23993WAT     H172221   0.081   9.383   1.835
23993WAT     H272222   0.039   9.420   1.681
23994WAT      O72223   9.454   7.424   1.831
23994WAT     H172224   9.550   7.408   1.809
23994WAT     H272225   9.440   7.410   1.929
23995WAT      O72226   0.130   5.260   5.034
23995WAT     H172227   0.049   5.239   4.979
23995WAT     H272228   0.110   5.336   5.095
23996WAT      O72229   9.473   1.517   7.934
23996WAT     H172230   9.431   1.426   7.925
23996WAT     H272231   9.442   1.576   7.860
23997WAT      O72232   7.588   5.877   5.555
23997WAT     H172233   7.614   5.790   5.513
23997WAT     H272234   7.645   5.951   5.517
23998WAT      O72235   0.324   5.964   6.373
23998WAT     H172236   0.224   5.965   6.369
23998WAT     H272237   0.356   5.870   6.386
23999WAT      O72238   7.137   7.108   9.005
23999WAT     H172239   7.121   7.125   9.102
23999WAT     H272240   7.087   7.176   8.951
24000WAT      O72241   8.342   6.154   8.579
24000WAT     H172242   8.328   6.227   8.512
24000WAT     H272243   8.269   6.156   8.647
24001WAT      O72244   2.007   7.290   2.287
24001WAT     H172245   2.093   7.239   2.286
24001WAT     H272246   1.942   7.245   2.349
24002WAT      O72247   3.825   4.559   0.597
24002WAT     H172248   3.734   4.580   0.562
24002WAT     H272249   3.828   4.581   0.695
24003WAT      O72250   3.809   7.377   7.136
24003WAT     H172251   3.778   7.284   7.156
24003WAT     H272252   3.785   7.437   7.212
24004WAT      O72253   3.713   6.291   2.942
24004WAT     H172254   3.784   6.312   3.010
24004WAT     H272255   3.729   6.345   2.860
24005WAT      O72256   8.861   1.275   4.426
24005WAT     H172257   8.791   1.339   4.457
24005WAT     H272258   8.940   1.326   4.392
24006WAT      O72259   9.097   1.497   2.045
24006WAT     H172260   9.098   1.411   1.993
24006WAT     H272261   9.061   1.570   1.987
24007WAT      O72262   6.563   1.947   6.848
24007WAT     H172263   6.597   1.872   6.904
24007WAT     H272264   6.552   1.915   6.753
24008WAT      O72265   2.188   4.907   0.732
24008WAT     H172266   2.194   4.818   0.686
24008WAT     H272267   2.108   4.957   0.697
24009WAT      O72268   6.843   6.494   6.686
24009WAT     H172269   6.782   6.549   6.744
24009WAT     H272270   6.821   6.397   6.698
24010WAT      O72271   1.105   0.937   7.506
24010WAT     H172272   1.069   1.019   7.463
24010WAT     H272273   1.199   0.953   7.537
24011WAT      O72274   2.612   8.617   0.133
24011WAT     H172275   2.539   8.682   0.110
24011WAT     H272276   2.669   8.600   0.053
24012WAT      O72277   2.674   4.288   8.086
24012WAT     H172278   2.757   4.307   8.033
24012WAT     H272279   2.596   4.286   8.024
24013WAT      O72280   2.712   6.114   4.844
24013WAT     H172281   2.750   6.065   4.765
24013WAT     H272282   2.736   6.211   4.838
24014WAT      O72283   2.117   9.359   9.688
24014WAT     H172284   2.089   9.287   9.752
24014WAT     H272285   2.138   9.442   9.739
24015WAT      O72286   8.227   5.784   7.866
24015WAT     H172287   8.153   5.791   7.799
24015WAT     H272288   8.315   5.802   7.821
24016WAT      O72289   6.617   9.508   8.288
24016WAT     H172290   6.709   9.496   8.325
24016WAT     H272291   6.553   9.518   8.364
24017WAT      O72292   4.973   9.489   9.155
24017WAT     H172293   4.943   9.560   9.219
24017WAT     H272294   4.895   9.430   9.132
24018WAT      O72295   2.576   1.591   1.329
24018WAT     H172296   2.561   1.690   1.324
24018WAT     H272297   2.575   1.563   1.425
24019WAT      O72298   3.725   0.169   7.027
24019WAT     H172299   3.672   0.253   7.021
24019WAT     H272300   3.675   0.094   6.985
24020WAT      O72301   8.422   8.341   6.889
24020WAT     H172302   8.511   8.357   6.847
24020WAT     H272303   8.432   8.339   6.989
24021WAT      O72304   7.620   0.684   5.005
24021WAT     H172305   7.537   0.656   4.957
24021WAT     H272306   7.616   0.652   5.099
24022WAT      O72307   4.559   9.821   1.563
24022WAT     H172308   4.470   9.797   1.526
24022WAT     H272309   4.552   9.908   1.613
24023WAT      O72310   4.245   4.236   5.276
24023WAT     H172311   4.222   4.255   5.372
24023WAT     H272312   4.216   4.314   5.220
24024WAT      O72313   8.428   6.236   3.847
24024WAT     H172314   8.525   6.222   3.866
24024WAT     H272315   8.386   6.148   3.824
24025WAT      O72316   6.195   5.731   6.135
24025WAT     H172317   6.249   5.682   6.065
24025WAT     H272318   6.257   5.777   6.198
24026WAT      O72319   0.612   9.612   7.873
24026WAT     H172320   0.658   9.661   7.947
24026WAT     H272321   0.664   9.530   7.850
24027WAT      O72322   0.314   2.451   2.697
24027WAT     H172323   0.319   2.544   2.733
24027WAT     H272324   0.366   2.389   2.755
24028WAT      O72325   3.748   2.773   8.833
24028WAT     H172326   3.695   2.758   8.916
24028WAT     H272327   3.844   2.793   8.857
24029WAT      O72328   3.780   3.313   8.887
24029WAT     H172329   3.684   3.323   8.914
24029WAT     H272330   3.836   3.377   8.940
24030WAT      O72331   2.986   9.438   1.259
24030WAT     H172332   3.029   9.483   1.181
24030WAT     H272333   3.054   9.382   1.306
24031WAT      O72334   6.909   8.063   7.940
24031WAT     H172335   6.812   8.078   7.922
24031WAT     H272336   6.940   7.982   7.889
24032WAT      O72337   7.905   7.203   0.758
24032WAT     H172338   7.815   7.194   0.716
24032WAT     H272339   7.934   7.299   0.758
24033WAT      O72340   5.105   3.453   1.991
24033WAT     H172341   5.103   3.413   2.082
24033WAT     H272342   5.190   3.427   1.945
24034WAT      O72343   8.759   7.669   7.176
24034WAT     H172344   8.856   7.653   7.158
24034WAT     H272345   8.705   7.594   7.137
24035WAT      O72346   3.140   3.594   9.572
24035WAT     H172347   3.190   3.527   9.518
24035WAT     H272348   3.070   3.546   9.626
24036WAT      O72349   7.169   4.876   5.494
24036WAT     H172350   7.105   4.844   5.424
24036WAT     H272351   7.120   4.932   5.561
24037WAT      O72352   6.254   1.611   5.975
24037WAT     H172353   6.262   1.604   6.074
24037WAT     H272354   6.233   1.521   5.937
24038WAT      O72355   6.928   1.406   2.621
24038WAT     H172356   6.910   1.325   2.677
24038WAT     H272357   7.009   1.391   2.565
24039WAT      O72358   5.665   0.614   3.733
24039WAT     H172359   5.647   0.533   3.789
24039WAT     H272360   5.598   0.619   3.659
24040WAT      O72361   9.409   3.804   8.334
24040WAT     H172362   9.329   3.755   8.369
24040WAT     H272363   9.473   3.739   8.294
24041WAT      O72364   1.755   7.056   2.195
24041WAT     H172365   1.818   7.079   2.269
24041WAT     H272366   1.667   7.026   2.234
24042WAT      O72367   5.623   0.323   1.384
24042WAT     H172368   5.574   0.273   1.455
24042WAT     H272369   5.631   0.266   1.303
24043WAT      O72370   2.793   1.153   4.604
24043WAT     H172371   2.889   1.125   4.607
24043WAT     H272372   2.734   1.074   4.619
24044WAT      O72373   7.660   3.338   4.253
24044WAT     H172374   7.643   3.250   4.298
24044WAT     H272375   7.574   3.377   4.221
24045WAT      O72376   4.691   6.034   5.391
24045WAT     H172377   4.604   6.053   5.345
24045WAT     H272378   4.681   5.954   5.450
24046WAT      O72379   5.866   8.198   4.179
24046WAT     H172380   5.825   8.143   4.252
24046WAT     H272381   5.823   8.288   4.177
24047WAT      O72382   7.936   8.989   9.226
24047WAT     H172383   7.981   9.068   9.267
24047WAT     H272384   7.837   8.994   9.241
24048WAT      O72385   4.956   8.087   0.605
24048WAT     H172386   4.949   7.998   0.561
24048WAT     H272387   4.936   8.078   0.703
24049WAT      O72388   5.554   8.863   5.831
24049WAT     H172389   5.512   8.787   5.881
24049WAT     H272390   5.620   8.827   5.765
24050WAT      O72391   5.403   5.387   3.165
24050WAT     H172392   5.447   5.334   3.238
24050WAT     H272393   5.314   5.346   3.144
24051WAT      O72394   2.015   9.209   5.226
24051WAT     H172395   2.037   9.187   5.130
24051WAT     H272396   1.981   9.302   5.231
24052WAT      O72397   5.972   4.921   1.895
24052WAT     H172398   6.018   4.872   1.969
24052WAT     H272399   6.039   4.974   1.843
24053WAT      O72400   0.460   8.029   2.972
24053WAT     H172401   0.496   8.036   3.065
24053WAT     H272402   0.534   8.006   2.909
24054WAT      O72403   5.602   0.145   1.623
24054WAT     H172404   5.571   0.050   1.625
24054WAT     H272405   5.702   0.148   1.622
24055WAT      O72406   1.675   1.393   8.088
24055WAT     H172407   1.639   1.300   8.078
24055WAT     H272408   1.760   1.390   8.140
24056WAT      O72409   2.094   3.104   3.874
24056WAT     H172410   2.085   3.163   3.794
24056WAT     H272411   2.159   3.031   3.855
24057WAT      O72412   2.937   7.195   5.594
24057WAT     H172413   2.849   7.156   5.619
24057WAT     H272414   2.988   7.219   5.677
24058WAT      O72415   5.142   4.923   1.280
24058WAT     H172416   5.043   4.915   1.269
24058WAT     H272417   5.183   4.831   1.279
24059WAT      O72418   1.722   5.236   7.611
24059WAT     H172419   1.730   5.326   7.570
24059WAT     H272420   1.635   5.229   7.661
24060WAT      O72421   1.333   1.975   0.475
24060WAT     H172422   1.384   2.000   0.393
24060WAT     H272423   1.254   2.036   0.486
24061WAT      O72424   6.610   2.485   7.598
24061WAT     H172425   6.532   2.538   7.631
24061WAT     H272426   6.576   2.407   7.545
24062WAT      O72427   7.119   9.161   1.379
24062WAT     H172428   7.159   9.154   1.470
24062WAT     H272429   7.031   9.112   1.377
24063WAT      O72430   5.574   3.266   7.053
24063WAT     H172431   5.476   3.279   7.071
24063WAT     H272432   5.591   3.172   7.025
24064WAT      O72433   3.149   5.920   1.371
24064WAT     H172434   3.186   5.861   1.442
24064WAT     H272435   3.139   5.867   1.286
24065WAT      O72436   0.982   5.912   8.618
24065WAT     H172437   0.885   5.900   8.641
24065WAT     H272438   0.998   5.883   8.524
24066WAT      O72439   4.747   8.378   5.074
24066WAT     H172440   4.841   8.380   5.040
24066WAT     H272441   4.710   8.471   5.072
24067WAT      O72442   9.099   2.381   3.645
24067WAT     H172443   9.051   2.407   3.561
24067WAT     H272444   9.075   2.287   3.670
24068WAT      O72445   5.024   3.277   6.744
24068WAT     H172446   5.049   3.256   6.649
24068WAT     H272447   5.106   3.302   6.795
24069WAT      O72448   7.226   2.112   8.763
24069WAT     H172449   7.210   2.038   8.828
24069WAT     H272450   7.286   2.181   8.804
24070WAT      O72451   3.189   8.645   4.173
24070WAT     H172452   3.280   8.683   4.188
24070WAT     H272453   3.172   8.638   4.075
24071WAT      O72454   0.743   1.886   0.356
24071WAT     H172455   0.739   1.973   0.308
24071WAT     H272456   0.652   1.843   0.355
24072WAT      O72457   2.472   6.647   6.245
24072WAT     H172458   2.437   6.629   6.337
24072WAT     H272459   2.478   6.746   6.230
24073WAT      O72460   4.421   8.739   9.870
24073WAT     H172461   4.473   8.714   9.789
24073WAT     H272462   4.396   8.835   9.865
24074WAT      O72463   2.706   6.468   1.522
24074WAT     H172464   2.790   6.520   1.541
24074WAT     H272465   2.627   6.530   1.525
24075WAT      O72466   5.172   0.083   0.523
24075WAT     H172467   5.266   0.110   0.544
24075WAT     H272468   5.114   0.165   0.518
24076WAT      O72469   3.685   6.992   6.469
24076WAT     H172470   3.679   6.893   6.480
24076WAT     H272471   3.780   7.021   6.483
24077WAT      O72472   4.262   8.532   1.075
24077WAT     H172473   4.343   8.529   1.133
24077WAT     H272474   4.179   8.526   1.131
24078WAT      O72475   6.044   6.022   1.907
24078WAT     H172476   6.034   5.923   1.898
24078WAT     H272477   6.096   6.043   1.989
24079WAT      O72478   6.072   6.338   9.500
24079WAT     H172479   6.021   6.423   9.514
24079WAT     H272480   6.169   6.359   9.489
24080WAT      O72481   1.540   5.175   0.313
24080WAT     H172482   1.618   5.232   0.285
24080WAT     H272483   1.468   5.182   0.244
24081WAT      O72484   8.023   2.081   5.361
24081WAT     H172485   8.107   2.135   5.370
24081WAT     H272486   7.961   2.127   5.298
24082WAT      O72487   0.987   2.050   4.494
24082WAT     H172488   0.945   2.010   4.412
24082WAT     H272489   0.957   2.000   4.575
24083WAT      O72490   8.877   5.943   6.066
24083WAT     H172491   8.905   5.956   5.971
24083WAT     H272492   8.805   5.874   6.070
24084WAT      O72493   8.557   0.957   8.492
24084WAT     H172494   8.533   0.864   8.465
24084WAT     H272495   8.632   0.990   8.434
24085WAT      O72496   7.271   6.264   7.905
24085WAT     H172497   7.216   6.304   7.979
24085WAT     H272498   7.283   6.166   7.921
24086WAT      O72499   6.995   7.796   7.080
24086WAT     H172500   7.054   7.769   7.003
24086WAT     H272501   7.045   7.858   7.140
24087WAT      O72502   9.335   7.436   2.610
24087WAT     H172503   9.240   7.407   2.618
24087WAT     H272504   9.343   7.532   2.638
24088WAT      O72505   4.809   7.431   0.221
24088WAT     H172506   4.851   7.396   0.137
24088WAT     H272507   4.745   7.363   0.257
24089WAT      O72508   8.748   2.472   5.572
24089WAT     H172509   8.726   2.512   5.660
24089WAT     H272510   8.798   2.538   5.516
24090WAT      O72511   7.676   1.590   9.082
24090WAT     H172512   7.664   1.657   9.156
24090WAT     H272513   7.772   1.562   9.079
24091WAT      O72514   4.722   8.632   3.998
24091WAT     H172515   4.771   8.621   3.912
24091WAT     H272516   4.695   8.728   4.009
24092WAT      O72517   7.466   7.953   8.306
24092WAT     H172518   7.377   7.997   8.294
24092WAT     H272519   7.532   8.020   8.341
24093WAT      O72520   6.931   1.989   5.901
24093WAT     H172521   6.896   1.930   5.974
24093WAT     H272522   6.948   1.935   5.819
24094WAT      O72523   1.388   7.131   9.775
24094WAT     H172524   1.466   7.180   9.814
24094WAT     H272525   1.353   7.065   9.841
24095WAT      O72526   8.035   8.100   0.423
24095WAT     H172527   7.982   8.105   0.507
24095WAT     H272528   7.998   8.164   0.356
24096WAT      O72529   0.298   3.126   5.873
24096WAT     H172530   0.198   3.135   5.865
24096WAT     H272531   0.342   3.184   5.804
24097WAT      O72532   1.486   4.457   9.433
24097WAT     H172533   1.462   4.446   9.337
24097WAT     H272534   1.467   4.551   9.462
24098WAT      O72535   1.857   3.639   1.610
24098WAT     H172536   1.817   3.601   1.526
24098WAT     H272537   1.940   3.589   1.634
24099WAT      O72538   5.504   9.743   1.635
24099WAT     H172539   5.406   9.762   1.637
24099WAT     H272540   5.526   9.687   1.555
24100WAT      O72541   9.444   2.075   2.911
24100WAT     H172542   9.461   1.978   2.891
24100WAT     H272543   9.363   2.105   2.861
24101WAT      O72544   2.182   8.427   3.620
24101WAT     H172545   2.178   8.351   3.555
24101WAT     H272546   2.095   8.433   3.669
24102WAT      O72547   5.853   0.731   8.759
24102WAT     H172548   5.953   0.736   8.762
24102WAT     H272549   5.820   0.771   8.674
24103WAT      O72550   2.203   3.748   0.322
24103WAT     H172551   2.148   3.674   0.360
24103WAT     H272552   2.169   3.771   0.230
24104WAT      O72553   2.682   9.316   0.945
24104WAT     H172554   2.711   9.411   0.932
24104WAT     H272555   2.723   9.280   1.028
24105WAT      O72556   0.737   5.629   0.677
24105WAT     H172557   0.675   5.562   0.636
24105WAT     H272558   0.699   5.662   0.763
24106WAT      O72559   0.663   3.646   6.016
24106WAT     H172560   0.681   3.733   5.970
24106WAT     H272561   0.671   3.571   5.950
24107WAT      O72562   7.587   2.032   7.719
24107WAT     H172563   7.489   2.046   7.702
24107WAT     H272564   7.599   1.959   7.786
24108WAT      O72565   1.531   8.680   6.241
24108WAT     H172566   1.505   8.606   6.302
24108WAT     H272567   1.451   8.738   6.224
24109WAT      O72568   2.252   0.635   3.511
24109WAT     H172569   2.233   0.625   3.413
24109WAT     H272570   2.322   0.706   3.524
24110WAT      O72571   6.456   7.882   5.374
24110WAT     H172572   6.518   7.827   5.430
24110WAT     H272573   6.420   7.827   5.300
24111WAT      O72574   0.134   1.665   4.699
24111WAT     H172575   0.197   1.693   4.772
24111WAT     H272576   0.175   1.590   4.647
24112WAT      O72577   0.264   4.792   2.292
24112WAT     H172578   0.262   4.764   2.196
24112WAT     H272579   0.356   4.822   2.316
24113WAT      O72580   5.364   4.788   2.465
24113WAT     H172581   5.366   4.789   2.365
24113WAT     H272582   5.456   4.774   2.501
24114WAT      O72583   6.349   8.122   6.238
24114WAT     H172584   6.358   8.025   6.260
24114WAT     H272585   6.425   8.173   6.278
24115WAT      O72586   3.192   3.166   9.344
24115WAT     H172587   3.104   3.174   9.297
24115WAT     H272588   3.177   3.139   9.439
24116WAT      O72589   2.003   6.159   7.111
24116WAT     H172590   1.945   6.195   7.038
24116WAT     H272591   1.982   6.063   7.126
24117WAT      O72592   7.549   2.157   8.858
24117WAT     H172593   7.464   2.207   8.877
24117WAT     H272594   7.591   2.194   8.775
24118WAT      O72595   2.397   1.517   0.219
24118WAT     H172596   2.493   1.545   0.225
24118WAT     H272597   2.351   1.572   0.149
24119WAT      O72598   0.743   9.002   8.824
24119WAT     H172599   0.658   9.055   8.818
24119WAT     H272600   0.721   8.905   8.839
24120WAT      O72601   7.289   2.214   1.445
24120WAT     H172602   7.251   2.212   1.353
24120WAT     H272603   7.388   2.228   1.441
24121WAT      O72604   9.700   7.559   2.577
24121WAT     H172605   9.650   7.491   2.630
24121WAT     H272606   9.643   7.640   2.565
24122WAT      O72607   9.094   4.197   3.884
24122WAT     H172608   9.153   4.275   3.908
24122WAT     H272609   9.127   4.115   3.931
24123WAT      O72610   8.243   4.744   2.194
24123WAT     H172611   8.286   4.656   2.176
24123WAT     H272612   8.302   4.800   2.252
24124WAT      O72613   6.574   2.423   2.615
24124WAT     H172614   6.603   2.462   2.702
24124WAT     H272615   6.653   2.415   2.554
24125WAT      O72616   5.420   1.154   0.288
24125WAT     H172617   5.366   1.115   0.214
24125WAT     H272618   5.507   1.188   0.252
24126WAT      O72619   6.134   2.558   8.016
24126WAT     H172620   6.083   2.506   7.948
24126WAT     H272621   6.229   2.525   8.018
24127WAT      O72622   4.298   7.743   7.481
24127WAT     H172623   4.284   7.678   7.406
24127WAT     H272624   4.226   7.812   7.478
24128WAT      O72625   2.273   3.556   3.383
24128WAT     H172626   2.272   3.480   3.317
24128WAT     H272627   2.187   3.556   3.434
24129WAT      O72628   7.111   6.454   6.081
24129WAT     H172629   7.166   6.449   5.998
24129WAT     H272630   7.136   6.379   6.142
24130WAT      O72631   7.826   7.077   1.269
24130WAT     H172632   7.825   6.977   1.269
24130WAT     H272633   7.873   7.110   1.187
24131WAT      O72634   3.178   3.140   1.542
24131WAT     H172635   3.128   3.226   1.546
24131WAT     H272636   3.273   3.154   1.570
24132WAT      O72637   3.683   2.480   6.343
24132WAT     H172638   3.666   2.571   6.305
24132WAT     H272639   3.777   2.475   6.376
24133WAT      O72640   3.442   3.791   8.568
24133WAT     H172641   3.425   3.843   8.653
24133WAT     H272642   3.520   3.831   8.520
24134WAT      O72643   2.822   1.868   4.079
24134WAT     H172644   2.851   1.934   4.009
24134WAT     H272645   2.902   1.837   4.130
24135WAT      O72646   8.779   6.076   9.056
24135WAT     H172647   8.827   6.101   9.140
24135WAT     H272648   8.830   6.109   8.977
24136WAT      O72649   5.048   4.720   9.257
24136WAT     H172650   5.045   4.761   9.348
24136WAT     H272651   5.126   4.658   9.251
24137WAT      O72652   2.018   2.434   8.797
24137WAT     H172653   2.016   2.513   8.857
24137WAT     H272654   1.935   2.379   8.811
24138WAT      O72655   4.527   0.759   3.883
24138WAT     H172656   4.625   0.780   3.879
24138WAT     H272657   4.494   0.735   3.792
24139WAT      O72658   2.915   7.727   4.339
24139WAT     H172659   2.869   7.639   4.334
24139WAT     H272660   2.905   7.766   4.430
24140WAT      O72661   9.729   6.430   6.290
24140WAT     H172662   9.800   6.374   6.246
24140WAT     H272663   9.682   6.484   6.220
24141WAT      O72664   1.114   7.831   6.052
24141WAT     H172665   1.153   7.847   5.962
24141WAT     H272666   1.175   7.772   6.105
24142WAT      O72667   4.374   1.504   4.049
24142WAT     H172668   4.338   1.596   4.063
24142WAT     H272669   4.389   1.489   3.951
24143WAT      O72670   8.699   1.195   0.832
24143WAT     H172671   8.658   1.260   0.897
24143WAT     H272672   8.633   1.176   0.759
24144WAT      O72673   1.345   8.063   8.765
24144WAT     H172674   1.388   7.982   8.726
24144WAT     H272675   1.379   8.078   8.858
24145WAT      O72676   7.948   1.647   5.586
24145WAT     H172677   7.864   1.624   5.538
24145WAT     H272678   7.998   1.718   5.535
24146WAT      O72679   7.959   0.286   2.424
24146WAT     H172680   8.047   0.239   2.415
24146WAT     H272681   7.886   0.219   2.440
24147WAT      O72682   8.710   4.654   4.708
24147WAT     H172683   8.615   4.623   4.702
24147WAT     H272684   8.764   4.590   4.762
24148WAT      O72685   0.756   8.928   5.807
24148WAT     H172686   0.822   8.903   5.878
24148WAT     H272687   0.791   9.005   5.754
24149WAT      O72688   7.750   1.934   9.619
24149WAT     H172689   7.783   1.850   9.663
24149WAT     H272690   7.795   1.945   9.530
24150WAT      O72691   3.536   1.567   7.099
24150WAT     H172692   3.567   1.486   7.149
24150WAT     H272693   3.586   1.647   7.133
24151WAT      O72694   1.368   1.126   8.583
24151WAT     H172695   1.444   1.106   8.644
24151WAT     H272696   1.403   1.169   8.500
24152WAT      O72697   5.471   6.802   9.016
24152WAT     H172698   5.405   6.820   8.943
24152WAT     H272699   5.557   6.770   8.976
24153WAT      O72700   5.264   6.886   6.205
24153WAT     H172701   5.361   6.863   6.206
24153WAT     H272702   5.253   6.986   6.203
24154WAT      O72703   2.661   1.140   0.577
24154WAT     H172704   2.718   1.092   0.643
24154WAT     H272705   2.594   1.197   0.627
24155WAT      O72706   7.438   9.322   1.500
24155WAT     H172707   7.424   9.393   1.570
24155WAT     H272708   7.397   9.237   1.531
24156WAT      O72709   4.854   6.897   4.316
24156WAT     H172710   4.770   6.916   4.367
24156WAT     H272711   4.886   6.982   4.274
24157WAT      O72712   1.159   4.344   4.549
24157WAT     H172713   1.195   4.256   4.580
24157WAT     H272714   1.179   4.355   4.451
24158WAT      O72715   9.389   8.766   1.977
24158WAT     H172716   9.480   8.759   2.016
24158WAT     H272717   9.374   8.859   1.943
24159WAT      O72718   3.159   6.473   3.239
24159WAT     H172719   3.164   6.478   3.139
24159WAT     H272720   3.078   6.521   3.271
24160WAT      O72721   6.552   0.317   3.871
24160WAT     H172722   6.520   0.309   3.965
24160WAT     H272723   6.620   0.246   3.852
24161WAT      O72724   3.095   4.735   7.601
24161WAT     H172725   3.070   4.813   7.544
24161WAT     H272726   3.036   4.657   7.579
24162WAT      O72727   0.653   8.119   4.769
24162WAT     H172728   0.663   8.094   4.865
24162WAT     H272729   0.594   8.053   4.722
24163WAT      O72730   2.312   8.637   7.515
24163WAT     H172731   2.358   8.725   7.506
24163WAT     H272732   2.217   8.652   7.543
24164WAT      O72733   1.372   1.965   9.006
24164WAT     H172734   1.343   1.914   9.087
24164WAT     H272735   1.471   1.976   9.007
24165WAT      O72736   2.703   2.362   0.681
24165WAT     H172737   2.646   2.386   0.603
24165WAT     H272738   2.758   2.281   0.659
24166WAT      O72739   6.279   0.575   1.800
24166WAT     H172740   6.276   0.495   1.861
24166WAT     H272741   6.326   0.650   1.846
24167WAT      O72742   0.300   3.244   9.428
24167WAT     H172743   0.203   3.238   9.453
24167WAT     H272744   0.334   3.335   9.447
24168WAT      O72745   3.310   0.006   3.502
24168WAT     H172746   3.405   0.029   3.478
24168WAT     H272747   3.268   0.084   3.549
24169WAT      O72748   9.375   9.072   2.754
24169WAT     H172749   9.409   9.152   2.705
24169WAT     H272750   9.453   9.015   2.782
24170WAT      O72751   1.502   9.302   2.333
24170WAT     H172752   1.537   9.388   2.371
24170WAT     H272753   1.564   9.268   2.263
24171WAT      O72754   1.135   5.271   5.332
24171WAT     H172755   1.196   5.338   5.373
24171WAT     H272756   1.087   5.221   5.404
24172WAT      O72757   2.837   3.050   8.449
24172WAT     H172758   2.753   3.068   8.397
24172WAT     H272759   2.814   3.040   8.546
24173WAT      O72760   6.803   8.522   4.108
24173WAT     H172761   6.794   8.486   4.015
24173WAT     H272762   6.897   8.509   4.140
24174WAT      O72763   3.420   4.319   0.144
24174WAT     H172764   3.488   4.309   0.216
24174WAT     H272765   3.449   4.390   0.080
24175WAT      O72766   2.435   2.254   3.858
24175WAT     H172767   2.387   2.246   3.771
24175WAT     H272768   2.532   2.233   3.843
24176WAT      O72769   3.373   6.540   6.964
24176WAT     H172770   3.304   6.612   6.961
24176WAT     H272771   3.367   6.486   6.880
24177WAT      O72772   1.791   5.112   5.717
24177WAT     H172773   1.695   5.093   5.696
24177WAT     H272774   1.823   5.189   5.662
24178WAT      O72775   6.637   4.908   1.294
24178WAT     H172776   6.710   4.874   1.354
24178WAT     H272777   6.606   4.834   1.234
24179WAT      O72778   8.471   6.487   9.728
24179WAT     H172779   8.546   6.550   9.709
24179WAT     H272780   8.451   6.486   9.826
24180WAT      O72781   3.362   7.180   1.045
24180WAT     H172782   3.411   7.129   1.116
24180WAT     H272783   3.283   7.226   1.085
24181WAT      O72784   7.693   1.562   7.973
24181WAT     H172785   7.661   1.472   8.002
24181WAT     H272786   7.787   1.577   8.006
24182WAT      O72787   1.374   7.931   3.126
24182WAT     H172788   1.431   7.864   3.173
24182WAT     H272789   1.433   8.001   3.085
24183WAT      O72790   4.566   0.944   0.009
24183WAT     H172791   4.601   0.897   0.090
24183WAT     H272792   4.599   1.039   0.008
24184WAT      O72793   4.176   0.900   9.313
24184WAT     H172794   4.108   0.955   9.264
24184WAT     H272795   4.132   0.853   9.389
24185WAT      O72796   3.235   2.028   6.478
24185WAT     H172797   3.313   1.966   6.465
24185WAT     H272798   3.217   2.076   6.392
24186WAT      O72799   5.762   9.464   6.954
24186WAT     H172800   5.673   9.482   6.912
24186WAT     H272801   5.830   9.525   6.914
24187WAT      O72802   9.746   0.969   0.821
24187WAT     H172803   9.646   0.973   0.830
24187WAT     H272804   9.770   0.891   0.763
24188WAT      O72805   1.947   8.440   9.459
24188WAT     H172806   2.021   8.408   9.519
24188WAT     H272807   1.945   8.384   9.376
24189WAT      O72808   7.900   2.039   1.855
24189WAT     H172809   7.843   2.083   1.785
24189WAT     H272810   7.871   2.071   1.946
24190WAT      O72811   5.601   2.362   0.567
24190WAT     H172812   5.623   2.266   0.554
24190WAT     H272813   5.632   2.391   0.657
24191WAT      O72814   0.954   5.841   4.349
24191WAT     H172815   0.856   5.863   4.356
24191WAT     H272816   1.000   5.913   4.297
24192WAT      O72817   0.850   2.305   9.555
24192WAT     H172818   0.889   2.233   9.497
24192WAT     H272819   0.925   2.357   9.597
24193WAT      O72820   7.129   5.143   7.592
24193WAT     H172821   7.203   5.209   7.586
24193WAT     H272822   7.053   5.183   7.645
24194WAT      O72823   0.834   2.485   2.597
24194WAT     H172824   0.781   2.476   2.682
24194WAT     H272825   0.854   2.394   2.561
24195WAT      O72826   9.093   9.801   0.481
24195WAT     H172827   9.053   9.844   0.562
24195WAT     H272828   9.182   9.762   0.505
24196WAT      O72829   6.737   9.068   0.979
24196WAT     H172830   6.735   8.968   0.980
24196WAT     H272831   6.711   9.103   1.069
24197WAT      O72832   8.219   1.413   8.347
24197WAT     H172833   8.169   1.383   8.428
24197WAT     H272834   8.317   1.408   8.364
24198WAT      O72835   0.790   5.949   5.791
24198WAT     H172836   0.743   6.034   5.767
24198WAT     H272837   0.887   5.957   5.765
24199WAT      O72838   1.191   9.637   8.320
24199WAT     H172839   1.110   9.652   8.263
24199WAT     H272840   1.187   9.546   8.361
24200WAT      O72841   0.270   8.510   1.923
24200WAT     H172842   0.325   8.428   1.932
24200WAT     H272843   0.296   8.576   1.993
24201WAT      O72844   1.130   5.789   4.661
24201WAT     H172845   1.123   5.713   4.725
24201WAT     H272846   1.124   5.755   4.567
24202WAT      O72847   6.809   3.611   4.478
24202WAT     H172848   6.759   3.530   4.507
24202WAT     H272849   6.789   3.687   4.540
24203WAT      O72850   4.689   0.727   6.305
24203WAT     H172851   4.706   0.771   6.393
24203WAT     H272852   4.776   0.698   6.265
24204WAT      O72853   0.293   6.418   3.106
24204WAT     H172854   0.251   6.403   3.016
24204WAT     H272855   0.384   6.457   3.095
24205WAT      O72856   1.012   4.562   3.864
24205WAT     H172857   1.011   4.508   3.780
24205WAT     H272858   0.945   4.636   3.856
24206WAT      O72859   7.130   4.365   1.706
24206WAT     H172860   7.065   4.289   1.694
24206WAT     H272861   7.211   4.332   1.754
24207WAT      O72862   9.233   9.110   2.138
24207WAT     H172863   9.156   9.147   2.190
24207WAT     H272864   9.268   9.179   2.076
24208WAT      O72865   3.686   2.033   9.292
24208WAT     H172866   3.618   1.960   9.287
24208WAT     H272867   3.771   2.003   9.247
24209WAT      O72868   1.657   6.602   9.871
24209WAT     H172869   1.559   6.600   9.891
24209WAT     H272870   1.708   6.609   9.956
24210WAT      O72871   0.097   4.711   7.864
24210WAT     H172872   0.122   4.675   7.954
24210WAT     H272873   0.130   4.650   7.793
24211WAT      O72874   1.374   2.477   0.005
24211WAT     H172875   1.355   2.489  -0.092
24211WAT     H272876   1.414   2.561   0.042
24212WAT      O72877   7.345   8.737   5.889
24212WAT     H172878   7.415   8.809   5.889
24212WAT     H272879   7.369   8.669   5.819
24213WAT      O72880   1.263   7.509   0.161
24213WAT     H172881   1.316   7.489   0.078
24213WAT     H272882   1.189   7.443   0.170
24214WAT      O72883   5.455   8.015   5.213
24214WAT     H172884   5.363   8.047   5.234
24214WAT     H272885   5.513   8.093   5.192
24215WAT      O72886   0.018   9.061   5.392
24215WAT     H172887  -0.039   9.038   5.471
24215WAT     H272888   0.033   8.979   5.336
24216WAT      O72889   2.090   9.151   4.983
24216WAT     H172890   2.102   9.053   4.965
24216WAT     H272891   2.067   9.198   4.898
24217WAT      O72892   4.771   0.475   1.454
24217WAT     H172893   4.855   0.449   1.502
24217WAT     H272894   4.794   0.523   1.370
24218WAT      O72895   7.261   2.432   2.761
24218WAT     H172896   7.209   2.439   2.846
24218WAT     H272897   7.349   2.478   2.771
24219WAT      O72898   6.781   4.776   8.603
24219WAT     H172899   6.804   4.736   8.692
24219WAT     H272900   6.864   4.817   8.563
24220WAT      O72901   9.597   8.974   7.566
24220WAT     H172902   9.644   8.994   7.652
24220WAT     H272903   9.662   8.938   7.499
24221WAT      O72904   7.705   1.033   7.819
24221WAT     H172905   7.611   1.067   7.824
24221WAT     H272906   7.764   1.088   7.879
24222WAT      O72907   2.904   3.022   4.838
24222WAT     H172908   2.984   3.009   4.897
24222WAT     H272909   2.934   3.036   4.743
24223WAT      O72910   3.981   9.532   3.525
24223WAT     H172911   4.023   9.541   3.615
24223WAT     H272912   4.043   9.568   3.455
24224WAT      O72913   0.685   3.894   3.785
24224WAT     H172914   0.589   3.874   3.803
24224WAT     H272915   0.696   3.927   3.692
24225WAT      O72916   8.204   0.636   5.920
24225WAT     H172917   8.226   0.544   5.952
24225WAT     H272918   8.168   0.690   5.997
24226WAT      O72919   9.513   4.227   8.084
24226WAT     H172920   9.507   4.312   8.032
24226WAT     H272921   9.605   4.219   8.123
24227WAT      O72922   7.573   0.681   8.628
24227WAT     H172923   7.524   0.622   8.692
24227WAT     H272924   7.560   0.648   8.534
24228WAT      O72925   8.442   3.968   8.095
24228WAT     H172926   8.364   3.934   8.148
24228WAT     H272927   8.422   4.058   8.059
24229WAT      O72928   9.523   1.913   4.561
24229WAT     H172929   9.494   2.009   4.561
24229WAT     H272930   9.563   1.890   4.473
24230WAT      O72931   5.557   3.442   6.696
24230WAT     H172932   5.590   3.351   6.669
24230WAT     H272933   5.491   3.474   6.628
24231WAT      O72934   5.880   0.581   9.370
24231WAT     H172935   5.830   0.521   9.308
24231WAT     H272936   5.816   0.625   9.433
24232WAT      O72937   2.801   3.509   4.150
24232WAT     H172938   2.799   3.410   4.162
24232WAT     H272939   2.733   3.536   4.083
24233WAT      O72940   2.517   5.837   6.515
24233WAT     H172941   2.529   5.926   6.560
24233WAT     H272942   2.536   5.764   6.581
24234WAT      O72943   5.565   0.211   6.085
24234WAT     H172944   5.655   0.237   6.052
24234WAT     H272945   5.558   0.228   6.183
24235WAT      O72946   8.634   8.178   7.180
24235WAT     H172947   8.562   8.225   7.130
24235WAT     H272948   8.624   8.079   7.169
24236WAT      O72949   6.619   5.449   6.671
24236WAT     H172950   6.617   5.474   6.574
24236WAT     H272951   6.681   5.511   6.719
24237WAT      O72952   0.307   3.480   7.029
24237WAT     H172953   0.230   3.431   6.989
24237WAT     H272954   0.276   3.532   7.109
24238WAT      O72955   3.317   7.538   7.092
24238WAT     H172956   3.305   7.606   7.165
24238WAT     H272957   3.233   7.532   7.038
24239WAT      O72958   6.386   5.126   2.803
24239WAT     H172959   6.340   5.125   2.715
24239WAT     H272960   6.450   5.049   2.809
24240WAT      O72961   1.543   0.004   5.616
24240WAT     H172962   1.636  -0.032   5.619
24240WAT     H272963   1.522   0.034   5.523
24241WAT      O72964   6.141   7.945   4.276
24241WAT     H172965   6.082   7.865   4.264
24241WAT     H272966   6.093   8.013   4.331
24242WAT      O72967   2.386   3.136   4.576
24242WAT     H172968   2.438   3.205   4.525
24242WAT     H272969   2.377   3.165   4.671
24243WAT      O72970   1.458   5.373   9.441
24243WAT     H172971   1.413   5.304   9.384
24243WAT     H272972   1.553   5.384   9.411
24244WAT      O72973   4.454   2.002   4.686
24244WAT     H172974   4.416   2.024   4.776
24244WAT     H272975   4.424   1.911   4.659
24245WAT      O72976   8.880   4.752   4.367
24245WAT     H172977   8.891   4.835   4.421
24245WAT     H272978   8.799   4.702   4.399
24246WAT      O72979   2.356   2.342   4.367
24246WAT     H172980   2.315   2.265   4.317
24246WAT     H272981   2.411   2.307   4.443
24247WAT      O72982   7.678   9.515   1.430
24247WAT     H172983   7.627   9.577   1.369
24247WAT     H272984   7.615   9.450   1.472
24248WAT      O72985   9.821   5.131   5.967
24248WAT     H172986   9.808   5.192   6.045
24248WAT     H272987   9.848   5.184   5.887
24249WAT      O72988   2.236   0.647   5.471
24249WAT     H172989   2.200   0.659   5.378
24249WAT     H272990   2.207   0.723   5.528
24250WAT      O72991   6.600   6.307   7.050
24250WAT     H172992   6.599   6.383   6.985
24250WAT     H272993   6.647   6.335   7.134
24251WAT      O72994   3.213   4.739   5.403
24251WAT     H172995   3.131   4.774   5.357
24251WAT     H272996   3.207   4.757   5.501
24252WAT      O72997   4.176   8.048   9.490
24252WAT     H172998   4.124   8.053   9.576
24252WAT     H272999   4.206   7.955   9.474
24253WAT      O73000   8.622   0.597   7.447
24253WAT     H173001   8.688   0.672   7.440
24253WAT     H273002   8.626   0.542   7.363
24254WAT      O73003   7.737   9.359   0.660
24254WAT     H173004   7.746   9.326   0.754
24254WAT     H273005   7.669   9.304   0.612
24255WAT      O73006   4.958   6.674   8.108
24255WAT     H173007   5.051   6.711   8.108
24255WAT     H273008   4.896   6.739   8.152
24256WAT      O73009   6.337   7.912   2.787
24256WAT     H173010   6.343   7.882   2.882
24256WAT     H273011   6.241   7.931   2.765
24257WAT      O73012   9.066   7.472   0.338
24257WAT     H173013   9.091   7.501   0.430
24257WAT     H273014   9.088   7.545   0.273
24258WAT      O73015   0.841   4.417   7.159
24258WAT     H173016   0.818   4.510   7.187
24258WAT     H273017   0.790   4.393   7.076
24259WAT      O73018   3.097   1.041   0.145
24259WAT     H173019   3.119   0.980   0.069
24259WAT     H273020   3.048   1.121   0.111
24260WAT      O73021   0.424   2.911   0.782
24260WAT     H173022   0.502   2.849   0.788
24260WAT     H273023   0.341   2.863   0.810
24261WAT      O73024   7.023   0.430   4.464
24261WAT     H173025   7.023   0.501   4.534
24261WAT     H273026   7.105   0.373   4.475
24262WAT      O73027   1.683   0.806   7.989
24262WAT     H173028   1.748   0.764   8.052
24262WAT     H273029   1.727   0.884   7.943
24263WAT      O73030   5.995   7.374   0.352
24263WAT     H173031   5.999   7.301   0.284
24263WAT     H273032   6.011   7.336   0.443
24264WAT      O73033   8.996   5.535   3.288
24264WAT     H173034   9.058   5.613   3.290
24264WAT     H273035   9.037   5.458   3.336
24265WAT      O73036   2.654   0.331   5.631
24265WAT     H173037   2.621   0.367   5.718
24265WAT     H273038   2.737   0.278   5.645
24266WAT      O73039   2.977   2.303   9.483
24266WAT     H173040   2.970   2.239   9.560
24266WAT     H273041   3.069   2.300   9.445
24267WAT      O73042   7.456   3.690   2.024
24267WAT     H173043   7.396   3.769   2.029
24267WAT     H273044   7.542   3.717   1.981
24268WAT      O73045   6.027   0.953   7.561
24268WAT     H173046   5.982   0.954   7.472
24268WAT     H273047   5.980   1.015   7.623
24269WAT      O73048   2.014   7.160   1.598
24269WAT     H173049   2.072   7.230   1.642
24269WAT     H273050   1.918   7.186   1.608
24270WAT      O73051   7.713   4.487   3.019
24270WAT     H173052   7.796   4.431   3.027
24270WAT     H273053   7.713   4.556   3.092
24271WAT      O73054   3.520   1.451   8.834
24271WAT     H173055   3.425   1.427   8.815
24271WAT     H273056   3.529   1.551   8.840
24272WAT      O73057   7.666   3.121   1.410
24272WAT     H173058   7.608   3.065   1.469
24272WAT     H273059   7.614   3.150   1.329
24273WAT      O73060   3.685   8.687   2.356
24273WAT     H173061   3.754   8.750   2.393
24273WAT     H273062   3.598   8.703   2.402
24274WAT      O73063   0.929   0.035   4.205
24274WAT     H173064   0.943   0.123   4.160
24274WAT     H273065   0.873  -0.024   4.147
24275WAT      O73066   3.982   2.681   4.497
24275WAT     H173067   3.976   2.630   4.412
24275WAT     H273068   3.940   2.627   4.571
24276WAT      O73069   2.057   2.919   4.126
24276WAT     H173070   2.050   2.863   4.209
24276WAT     H273071   2.081   2.860   4.049
24277WAT      O73072   9.331   9.333   9.698
24277WAT     H173073   9.248   9.324   9.643
24277WAT     H273074   9.317   9.291   9.787
24278WAT      O73075   4.624   6.522   8.914
24278WAT     H173076   4.699   6.573   8.872
24278WAT     H273077   4.654   6.483   9.001
24279WAT      O73078   1.502   0.084   7.729
24279WAT     H173079   1.528   0.140   7.650
24279WAT     H273080   1.578   0.025   7.755
24280WAT      O73081   5.188   8.491   7.569
24280WAT     H173082   5.137   8.554   7.511
24280WAT     H273083   5.125   8.431   7.617
24281WAT      O73084   7.730   0.490   3.406
24281WAT     H173085   7.698   0.584   3.418
24281WAT     H273086   7.794   0.468   3.480
24282WAT      O73087   1.059   0.331   1.130
24282WAT     H173088   1.075   0.270   1.208
24282WAT     H273089   1.053   0.426   1.163
24283WAT      O73090   3.641   2.355   5.836
24283WAT     H173091   3.720   2.414   5.852
24283WAT     H273092   3.667   2.259   5.850
24284WAT      O73093   3.371   4.961   7.499
24284WAT     H173094   3.421   4.883   7.534
24284WAT     H273095   3.341   5.018   7.575
24285WAT      O73096   4.123   8.668   4.220
24285WAT     H173097   4.160   8.698   4.308
24285WAT     H273098   4.198   8.650   4.157
24286WAT      O73099   0.301   1.966   9.724
24286WAT     H173100   0.323   1.884   9.671
24286WAT     H273101   0.211   1.956   9.766
24287WAT      O73102   3.496   3.129   0.974
24287WAT     H173103   3.567   3.100   1.038
24287WAT     H273104   3.508   3.081   0.888
24288WAT      O73105   2.667   4.965   1.417
24288WAT     H173106   2.650   4.911   1.500
24288WAT     H273107   2.657   4.906   1.337
24289WAT      O73108   5.888   1.240   4.248
24289WAT     H173109   5.843   1.169   4.302
24289WAT     H273110   5.923   1.311   4.309
24290WAT      O73111   0.647   1.742   0.686
24290WAT     H173112   0.701   1.706   0.611
24290WAT     H273113   0.552   1.711   0.677
24291WAT      O73114   2.126   8.767   9.049
24291WAT     H173115   2.056   8.745   9.116
24291WAT     H273116   2.214   8.730   9.079
24292WAT      O73117   8.134   5.738   1.356
24292WAT     H173118   8.125   5.819   1.413
24292WAT     H273119   8.216   5.746   1.299
24293WAT      O73120   1.488   4.480   1.262
24293WAT     H173121   1.416   4.533   1.217
24293WAT     H273122   1.569   4.537   1.272
24294WAT      O73123   7.986   3.832   8.818
24294WAT     H173124   7.984   3.776   8.735
24294WAT     H273125   7.999   3.928   8.794
24295WAT      O73126   4.356   7.614   8.977
24295WAT     H173127   4.336   7.708   9.005
24295WAT     H273128   4.271   7.566   8.955
24296WAT      O73129   7.929   1.973   2.368
24296WAT     H173130   7.947   1.889   2.420
24296WAT     H273131   7.858   2.026   2.414
24297WAT      O73132   3.863   4.786   9.616
24297WAT     H173133   3.767   4.806   9.596
24297WAT     H273134   3.872   4.689   9.642
24298WAT      O73135   3.269   8.761   8.938
24298WAT     H173136   3.368   8.758   8.955
24298WAT     H273137   3.227   8.826   9.000
24299WAT      O73138   7.852   6.574   2.731
24299WAT     H173139   7.838   6.477   2.716
24299WAT     H273140   7.901   6.588   2.817
24300WAT      O73141   1.577   9.278   4.966
24300WAT     H173142   1.506   9.319   5.023
24300WAT     H273143   1.538   9.252   4.878
24301WAT      O73144   8.873   4.984   7.150
24301WAT     H173145   8.868   5.076   7.112
24301WAT     H273146   8.787   4.936   7.134
24302WAT      O73147   5.265   2.248   3.221
24302WAT     H173148   5.310   2.290   3.299
24302WAT     H273149   5.226   2.160   3.249
24303WAT      O73150   7.173   8.389   6.629
24303WAT     H173151   7.107   8.315   6.624
24303WAT     H273152   7.137   8.463   6.686
24304WAT      O73153   3.564   0.219   4.554
24304WAT     H173154   3.472   0.254   4.570
24304WAT     H273155   3.604   0.191   4.641
24305WAT      O73156   1.612   1.023   2.187
24305WAT     H173157   1.540   1.062   2.129
24305WAT     H273158   1.626   0.928   2.163
24306WAT      O73159   3.090   2.872   3.005
24306WAT     H173160   3.164   2.939   3.008
24306WAT     H273161   3.024   2.898   2.934
24307WAT      O73162   9.470   9.463   0.393
24307WAT     H173163   9.433   9.378   0.430
24307WAT     H273164   9.480   9.455   0.294
24308WAT      O73165   1.758   3.342   1.686
24308WAT     H173166   1.747   3.433   1.726
24308WAT     H273167   1.838   3.297   1.728
24309WAT      O73168   2.170   8.983   0.507
24309WAT     H173169   2.239   8.920   0.473
24309WAT     H273170   2.168   8.981   0.607
24310WAT      O73171   1.382   7.374   3.890
24310WAT     H173172   1.323   7.400   3.813
24310WAT     H273173   1.462   7.434   3.892
24311WAT      O73174   6.363   2.597   7.655
24311WAT     H173175   6.265   2.579   7.652
24311WAT     H273176   6.384   2.672   7.593
24312WAT      O73177   0.602   2.070   3.868
24312WAT     H173178   0.641   2.124   3.794
24312WAT     H273179   0.636   1.976   3.863
24313WAT      O73180   1.670   8.349   3.731
24313WAT     H173181   1.687   8.394   3.643
24313WAT     H273182   1.640   8.417   3.797
24314WAT      O73183   6.827   6.155   8.342
24314WAT     H173184   6.754   6.134   8.407
24314WAT     H273185   6.798   6.130   8.250
24315WAT      O73186   3.604   2.279   3.253
24315WAT     H173187   3.581   2.377   3.261
24315WAT     H273188   3.521   2.227   3.232
24316WAT      O73189   4.753   6.231   0.398
24316WAT     H173190   4.730   6.138   0.429
24316WAT     H273191   4.778   6.228   0.301
24317WAT      O73192   4.220   0.342   5.885
24317WAT     H173193   4.183   0.250   5.901
24317WAT     H273194   4.253   0.380   5.971
24318WAT      O73195   2.874   8.503   1.822
24318WAT     H173196   2.969   8.491   1.852
24318WAT     H273197   2.866   8.479   1.725
24319WAT      O73198   3.498   6.141   5.630
24319WAT     H173199   3.440   6.061   5.617
24319WAT     H273200   3.555   6.128   5.711
24320WAT      O73201   4.690   8.016   8.660
24320WAT     H173202   4.770   7.962   8.634
24320WAT     H273203   4.647   8.054   8.579
24321WAT      O73204   0.841   7.108   1.575
24321WAT     H173205   0.839   7.050   1.656
24321WAT     H273206   0.752   7.104   1.528
24322WAT      O73207   5.853   4.503   2.736
24322WAT     H173208   5.875   4.599   2.750
24322WAT     H273209   5.800   4.494   2.652
24323WAT      O73210   1.845   3.039   4.410
24323WAT     H173211   1.930   3.051   4.461
24323WAT     H273212   1.852   3.086   4.322
24324WAT      O73213   1.909   3.981   5.197
24324WAT     H173214   1.931   3.903   5.255
24324WAT     H273215   1.911   4.065   5.252
24325WAT      O73216   7.794   6.403   1.541
24325WAT     H173217   7.888   6.382   1.566
24325WAT     H273218   7.771   6.495   1.573
24326WAT      O73219   5.034   1.480   8.279
24326WAT     H173220   5.006   1.574   8.260
24326WAT     H273221   5.004   1.454   8.371
24327WAT      O73222   6.954   4.175   1.598
24327WAT     H173223   6.878   4.182   1.662
24327WAT     H273224   6.930   4.219   1.512
24328WAT      O73225   6.082   0.839   8.459
24328WAT     H173226   6.125   0.858   8.371
24328WAT     H273227   6.135   0.882   8.533
24329WAT      O73228   5.650   5.141   7.571
24329WAT     H173229   5.741   5.108   7.599
24329WAT     H273230   5.626   5.099   7.484
24330WAT      O73231   0.673   7.615   1.929
24330WAT     H173232   0.743   7.664   1.878
24330WAT     H273233   0.703   7.521   1.944
24331WAT      O73234   0.070   8.669   4.891
24331WAT     H173235  -0.017   8.716   4.907
24331WAT     H273236   0.065   8.576   4.928
24332WAT      O73237   9.351   5.704   1.365
24332WAT     H173238   9.311   5.648   1.292
24332WAT     H273239   9.399   5.782   1.325
24333WAT      O73240   5.258   9.683   7.211
24333WAT     H173241   5.349   9.725   7.209
24333WAT     H273242   5.268   9.584   7.224
24334WAT      O73243   9.701   0.223   2.894
24334WAT     H173244   9.772   0.292   2.886
24334WAT     H273245   9.715   0.152   2.826
24335WAT      O73246   6.663   0.768   3.954
24335WAT     H173247   6.620   0.762   4.045
24335WAT     H273248   6.743   0.827   3.959
24336WAT      O73249   6.854   6.252   5.382
24336WAT     H173250   6.840   6.336   5.435
24336WAT     H273251   6.905   6.186   5.438
24337WAT      O73252   3.567   3.449   2.727
24337WAT     H173253   3.650   3.479   2.680
24337WAT     H273254   3.508   3.528   2.745
24338WAT      O73255   3.498   8.118   5.870
24338WAT     H173256   3.410   8.164   5.855
24338WAT     H273257   3.539   8.095   5.782
24339WAT      O73258   6.388   8.927   6.309
24339WAT     H173259   6.452   8.851   6.321
24339WAT     H273260   6.295   8.891   6.303
24340WAT      O73261   2.930   8.868   4.858
24340WAT     H173262   2.948   8.783   4.908
24340WAT     H273263   2.946   8.852   4.761
24341WAT      O73264   0.381   4.125   0.078
24341WAT     H173265   0.410   4.068   0.154
24341WAT     H273266   0.302   4.083   0.034
24342WAT      O73267   2.393   6.475   0.199
24342WAT     H173268   2.430   6.444   0.111
24342WAT     H273269   2.465   6.523   0.250
24343WAT      O73270   6.915   6.752   9.518
24343WAT     H173271   6.925   6.672   9.459
24343WAT     H273272   6.836   6.806   9.488
24344WAT      O73273   8.972   8.644   0.298
24344WAT     H173274   8.884   8.641   0.251
24344WAT     H273275   8.996   8.738   0.319
24345WAT      O73276   3.890   9.047   7.556
24345WAT     H173277   3.954   9.042   7.480
24345WAT     H273278   3.871   8.955   7.591
24346WAT      O73279   0.787   2.977   8.092
24346WAT     H173280   0.697   3.002   8.129
24346WAT     H273281   0.795   3.009   7.998
24347WAT      O73282   5.625   9.056   0.502
24347WAT     H173283   5.597   9.105   0.420
24347WAT     H273284   5.582   9.098   0.582
24348WAT      O73285   5.442   2.593   6.756
24348WAT     H173286   5.387   2.587   6.839
24348WAT     H273287   5.456   2.501   6.719
24349WAT      O73288   1.330   6.143   7.523
24349WAT     H173289   1.397   6.196   7.471
24349WAT     H273290   1.323   6.051   7.484
24350WAT      O73291   3.605   7.888   4.250
24350WAT     H173292   3.556   7.871   4.165
24350WAT     H273293   3.655   7.806   4.277
24351WAT      O73294   9.053   2.888   4.092
24351WAT     H173295   8.966   2.849   4.063
24351WAT     H273296   9.053   2.987   4.076
24352WAT      O73297   0.330   5.492   4.052
24352WAT     H173298   0.319   5.586   4.083
24352WAT     H273299   0.240   5.450   4.040
24353WAT      O73300   8.575   2.837   2.577
24353WAT     H173301   8.614   2.873   2.492
24353WAT     H273302   8.481   2.808   2.561
24354WAT      O73303   7.034   1.642   1.508
24354WAT     H173304   7.019   1.738   1.531
24354WAT     H273305   7.022   1.586   1.589
24355WAT      O73306   8.441   4.177   9.809
24355WAT     H173307   8.537   4.191   9.784
24355WAT     H273308   8.417   4.081   9.798
24356WAT      O73309   8.706   2.756   9.136
24356WAT     H173310   8.643   2.822   9.095
24356WAT     H273311   8.764   2.716   9.064
24357WAT      O73312   4.490   6.356   1.400
24357WAT     H173313   4.468   6.261   1.377
24357WAT     H273314   4.427   6.417   1.353
24358WAT      O73315   7.541   7.462   1.988
24358WAT     H173316   7.469   7.518   2.029
24358WAT     H273317   7.555   7.491   1.893
24359WAT      O73318   5.692   6.202   1.593
24359WAT     H173319   5.706   6.268   1.667
24359WAT     H273320   5.757   6.218   1.520
24360WAT      O73321   2.727   5.550   2.656
24360WAT     H173322   2.710   5.494   2.737
24360WAT     H273323   2.813   5.523   2.614
24361WAT      O73324   2.915   8.636   8.738
24361WAT     H173325   2.973   8.617   8.818
24361WAT     H273326   2.972   8.666   8.662
24362WAT      O73327   8.880   4.662   2.807
24362WAT     H173328   8.886   4.628   2.901
24362WAT     H273329   8.966   4.644   2.760
24363WAT      O73330   7.255   6.392   5.837
24363WAT     H173331   7.338   6.342   5.862
24363WAT     H273332   7.195   6.332   5.784
24364WAT      O73333   2.239   3.041   7.958
24364WAT     H173334   2.201   2.958   7.919
24364WAT     H273335   2.173   3.084   8.019
24365WAT      O73336   1.056   5.233   6.043
24365WAT     H173337   1.119   5.255   6.118
24365WAT     H273338   1.094   5.158   5.989
24366WAT      O73339   1.078   6.845   2.642
24366WAT     H173340   1.175   6.834   2.663
24366WAT     H273341   1.035   6.903   2.711
24367WAT      O73342   6.524   1.791   0.450
24367WAT     H173343   6.493   1.700   0.422
24367WAT     H273344   6.459   1.860   0.417
24368WAT      O73345   8.204   2.825   8.406
24368WAT     H173346   8.112   2.863   8.417
24368WAT     H273347   8.252   2.827   8.494
24369WAT      O73348   3.842   9.751   6.105
24369WAT     H173349   3.766   9.788   6.160
24369WAT     H273350   3.808   9.679   6.045
24370WAT      O73351   8.385   9.266   5.565
24370WAT     H173352   8.466   9.220   5.602
24370WAT     H273353   8.324   9.293   5.640
24371WAT      O73354   6.155   9.692   4.283
24371WAT     H173355   6.167   9.604   4.237
24371WAT     H273356   6.238   9.714   4.334
24372WAT      O73357   8.813   5.863   8.713
24372WAT     H173358   8.735   5.834   8.768
24372WAT     H273359   8.780   5.907   8.629
24373WAT      O73360   5.148   2.327   6.723
24373WAT     H173361   5.185   2.367   6.639
24373WAT     H273362   5.126   2.400   6.788
24374WAT      O73363   7.579   4.290   5.201
24374WAT     H173364   7.558   4.305   5.297
24374WAT     H273365   7.633   4.367   5.166
24375WAT      O73366   9.740   6.555   9.029
24375WAT     H173367   9.733   6.462   8.993
24375WAT     H273368   9.728   6.552   9.129
24376WAT      O73369   1.008   9.164   6.244
24376WAT     H173370   0.987   9.096   6.174
24376WAT     H273371   0.944   9.241   6.236
24377WAT      O73372   5.433   5.549   4.183
24377WAT     H173373   5.513   5.601   4.213
24377WAT     H273374   5.353   5.609   4.181
24378WAT      O73375   7.291   7.155   1.066
24378WAT     H173376   7.326   7.119   1.152
24378WAT     H273377   7.313   7.092   0.991
24379WAT      O73378   2.230   1.593   6.226
24379WAT     H173379   2.225   1.568   6.129
24379WAT     H273380   2.192   1.520   6.282
24380WAT      O73381   8.669   0.517   8.413
24380WAT     H173382   8.740   0.536   8.480
24380WAT     H273383   8.623   0.431   8.437
24381WAT      O73384   7.286   5.432   6.419
24381WAT     H173385   7.360   5.497   6.438
24381WAT     H273386   7.202   5.482   6.398
24382WAT      O73387   5.410   4.646   4.758
24382WAT     H173388   5.347   4.629   4.835
24382WAT     H273389   5.489   4.696   4.791
24383WAT      O73390   2.395   6.860   4.059
24383WAT     H173391   2.313   6.837   4.008
24383WAT     H273392   2.370   6.888   4.152
24384WAT      O73393   7.189   1.970   7.258
24384WAT     H173394   7.141   2.033   7.198
24384WAT     H273395   7.139   1.883   7.263
24385WAT      O73396   5.796   0.888   8.554
24385WAT     H173397   5.830   0.863   8.463
24385WAT     H273398   5.801   0.987   8.566
24386WAT      O73399   8.719   1.982   6.080
24386WAT     H173400   8.670   1.944   6.001
24386WAT     H273401   8.816   1.989   6.058
24387WAT      O73402   9.175   8.746   3.697
24387WAT     H173403   9.274   8.747   3.712
24387WAT     H273404   9.155   8.758   3.600
24388WAT      O73405   0.416   3.212   6.670
24388WAT     H173406   0.484   3.286   6.679
24388WAT     H273407   0.458   3.135   6.621
24389WAT      O73408   0.231   8.107   3.689
24389WAT     H173409   0.160   8.174   3.710
24389WAT     H273410   0.300   8.108   3.761
24390WAT      O73411   3.653   0.625   6.267
24390WAT     H173412   3.657   0.525   6.268
24390WAT     H273413   3.639   0.658   6.360
24391WAT      O73414   4.526   0.775   7.883
24391WAT     H173415   4.506   0.679   7.864
24391WAT     H273416   4.596   0.781   7.954
24392WAT      O73417   3.641   3.336   4.842
24392WAT     H173418   3.655   3.429   4.877
24392WAT     H273419   3.631   3.338   4.743
24393WAT      O73420   0.211   3.311   1.733
24393WAT     H173421   0.160   3.295   1.648
24393WAT     H273422   0.266   3.230   1.754
24394WAT      O73423   8.521   8.536   1.096
24394WAT     H173424   8.592   8.576   1.039
24394WAT     H273425   8.498   8.445   1.061
24395WAT      O73426   5.693   0.584   3.270
24395WAT     H173427   5.742   0.497   3.285
24395WAT     H273428   5.617   0.568   3.207
24396WAT      O73429   5.962   6.414   0.219
24396WAT     H173430   5.900   6.422   0.141
24396WAT     H273431   5.991   6.505   0.248
24397WAT      O73432   2.995   2.240   3.034
24397WAT     H173433   3.090   2.272   3.038
24397WAT     H273434   2.939   2.307   2.985
24398WAT      O73435   4.512   2.083   3.761
24398WAT     H173436   4.420   2.046   3.771
24398WAT     H273437   4.509   2.170   3.712
24399WAT      O73438   7.288   4.115   3.283
24399WAT     H173439   7.204   4.075   3.318
24399WAT     H273440   7.350   4.043   3.253
24400WAT      O73441   7.402   2.922   2.588
24400WAT     H173442   7.498   2.929   2.614
24400WAT     H273443   7.390   2.842   2.530
24401WAT      O73444   2.745   3.541   3.256
24401WAT     H173445   2.728   3.551   3.354
24401WAT     H273446   2.827   3.486   3.242
24402WAT      O73447   8.774   4.058   5.512
24402WAT     H173448   8.689   4.061   5.459
24402WAT     H273449   8.777   3.974   5.566
24403WAT      O73450   2.306   8.221   4.005
24403WAT     H173451   2.358   8.281   3.944
24403WAT     H273452   2.363   8.143   4.031
24404WAT      O73453   8.348   6.992   2.226
24404WAT     H173454   8.297   7.077   2.238
24404WAT     H273455   8.289   6.924   2.181
24405WAT      O73456   0.677   9.151   3.821
24405WAT     H173457   0.616   9.211   3.872
24405WAT     H273458   0.710   9.199   3.740
24406WAT      O73459   4.780   9.196   9.401
24406WAT     H173460   4.694   9.246   9.394
24406WAT     H273461   4.788   9.133   9.324
24407WAT      O73462   7.759   4.286   3.305
24407WAT     H173463   7.685   4.351   3.323
24407WAT     H273464   7.814   4.319   3.229
24408WAT      O73465   9.140   6.800   9.731
24408WAT     H173466   9.104   6.773   9.642
24408WAT     H273467   9.206   6.875   9.719
24409WAT      O73468   0.855   8.939   0.795
24409WAT     H173469   0.768   8.980   0.823
24409WAT     H273470   0.891   8.882   0.869
24410WAT      O73471   9.691   4.168   5.798
24410WAT     H173472   9.623   4.129   5.737
24410WAT     H273473   9.699   4.267   5.781
24411WAT      O73474   8.832   0.089   6.352
24411WAT     H173475   8.900   0.070   6.281
24411WAT     H273476   8.825   0.009   6.413
24412WAT      O73477   4.267   5.535   1.370
24412WAT     H173478   4.192   5.567   1.312
24412WAT     H273479   4.285   5.603   1.441
24413WAT      O73480   3.433   1.247   5.323
24413WAT     H173481   3.389   1.273   5.409
24413WAT     H273482   3.393   1.161   5.290
24414WAT      O73483   1.957   3.376   2.561
24414WAT     H173484   1.890   3.450   2.567
24414WAT     H273485   2.048   3.412   2.583
24415WAT      O73486   1.860   1.250   4.617
24415WAT     H173487   1.828   1.162   4.583
24415WAT     H273488   1.922   1.235   4.694
24416WAT      O73489   0.986   3.237   3.029
24416WAT     H173490   1.000   3.216   3.126
24416WAT     H273491   0.957   3.332   3.019
24417WAT      O73492   9.476   1.836   2.371
24417WAT     H173493   9.426   1.760   2.414
24417WAT     H273494   9.539   1.876   2.438
24418WAT      O73495   7.547   8.979   6.846
24418WAT     H173496   7.567   9.073   6.821
24418WAT     H273497   7.593   8.916   6.783
24419WAT      O73498   8.255   3.514   4.182
24419WAT     H173499   8.292   3.546   4.094
24419WAT     H273500   8.159   3.490   4.171
24420WAT      O73501   5.909   0.125   3.604
24420WAT     H173502   5.953   0.080   3.526
24420WAT     H273503   5.932   0.223   3.602
24421WAT      O73504   5.220   9.027   1.770
24421WAT     H173505   5.142   9.061   1.717
24421WAT     H273506   5.303   9.036   1.715
24422WAT      O73507   2.201   1.915   8.113
24422WAT     H173508   2.234   1.987   8.053
24422WAT     H273509   2.104   1.930   8.134
24423WAT      O73510   5.570   7.781   3.121
24423WAT     H173511   5.541   7.715   3.052
24423WAT     H273512   5.584   7.871   3.079
24424WAT      O73513   1.972   7.086   7.619
24424WAT     H173514   1.946   7.120   7.709
24424WAT     H273515   1.981   7.163   7.556
24425WAT      O73516   7.788   1.693   7.276
24425WAT     H173517   7.702   1.745   7.272
24425WAT     H273518   7.768   1.595   7.278
24426WAT      O73519   9.371   6.483   9.591
24426WAT     H173520   9.279   6.502   9.624
24426WAT     H273521   9.414   6.414   9.649
24427WAT      O73522   0.442   8.885   1.904
24427WAT     H173523   0.409   8.824   1.976
24427WAT     H273524   0.484   8.831   1.831
24428WAT      O73525   6.437   6.253   2.636
24428WAT     H173526   6.424   6.271   2.538
24428WAT     H273527   6.363   6.297   2.687
24429WAT      O73528   8.838   7.709   3.093
24429WAT     H173529   8.848   7.801   3.130
24429WAT     H273530   8.796   7.713   3.002
24430WAT      O73531   5.338   3.541   8.907
24430WAT     H173532   5.286   3.525   8.990
24430WAT     H273533   5.298   3.617   8.855
24431WAT      O73534   0.803   2.035   8.313
24431WAT     H173535   0.895   2.004   8.337
24431WAT     H273536   0.806   2.085   8.227
24432WAT      O73537   3.139   5.693   7.483
24432WAT     H173538   3.141   5.643   7.396
24432WAT     H273539   3.172   5.633   7.557
24433WAT      O73540   8.415   8.799   4.110
24433WAT     H173541   8.350   8.777   4.037
24433WAT     H273542   8.431   8.716   4.165
24434WAT      O73543   5.831   3.688   9.605
24434WAT     H173544   5.882   3.703   9.690
24434WAT     H273545   5.829   3.590   9.584
24435WAT      O73546   1.146   3.808   8.796
24435WAT     H173547   1.097   3.872   8.856
24435WAT     H273548   1.215   3.759   8.849
24436WAT      O73549   7.508   3.235   6.750
24436WAT     H173550   7.580   3.187   6.698
24436WAT     H273551   7.515   3.333   6.733
24437WAT      O73552   5.415   4.533   8.944
24437WAT     H173553   5.387   4.617   8.990
24437WAT     H273554   5.397   4.455   9.004
24438WAT      O73555   4.231   6.633   7.505
24438WAT     H173556   4.305   6.700   7.509
24438WAT     H273557   4.260   6.548   7.548
24439WAT      O73558   9.600   8.977   4.422
24439WAT     H173559   9.610   8.963   4.324
24439WAT     H273560   9.569   8.892   4.465
24440WAT      O73561   1.178   8.414   3.810
24440WAT     H173562   1.263   8.377   3.773
24440WAT     H273563   1.113   8.340   3.826
24441WAT      O73564   2.327   7.092   7.539
24441WAT     H173565   2.294   7.064   7.449
24441WAT     H273566   2.287   7.032   7.609
24442WAT      O73567   8.733   3.215   1.297
24442WAT     H173568   8.832   3.210   1.295
24442WAT     H273569   8.701   3.212   1.392
24443WAT      O73570   9.236   3.462   4.671
24443WAT     H173571   9.312   3.451   4.607
24443WAT     H273572   9.268   3.512   4.752
24444WAT      O73573   1.603   7.465   1.410
24444WAT     H173574   1.668   7.461   1.335
24444WAT     H273575   1.620   7.546   1.466
24445WAT      O73576   1.777   2.312   9.583
24445WAT     H173577   1.812   2.401   9.613
24445WAT     H273578   1.715   2.276   9.651
24446WAT      O73579   3.754   6.078   7.187
24446WAT     H173580   3.744   6.118   7.278
24446WAT     H273581   3.833   6.016   7.187
24447WAT      O73582   8.485   6.906   8.538
24447WAT     H173583   8.506   6.940   8.630
24447WAT     H273584   8.496   6.806   8.537
24448WAT      O73585   8.576   3.082   1.122
24448WAT     H173586   8.577   3.082   1.022
24448WAT     H273587   8.625   3.163   1.156
24449WAT      O73588   5.199   2.517   0.300
24449WAT     H173589   5.269   2.504   0.371
24449WAT     H273590   5.158   2.428   0.278
24450WAT      O73591   2.450   3.451   8.193
24450WAT     H173592   2.402   3.487   8.274
24450WAT     H273593   2.405   3.485   8.110
24451WAT      O73594   7.647   5.566   5.025
24451WAT     H173595   7.569   5.553   5.087
24451WAT     H273596   7.640   5.656   4.981
24452WAT      O73597   0.845   5.623   7.864
24452WAT     H173598   0.765   5.684   7.862
24452WAT     H273599   0.815   5.530   7.846
24453WAT      O73600   1.901   8.706   2.358
24453WAT     H173601   1.893   8.681   2.454
24453WAT     H273602   1.988   8.753   2.343
24454WAT      O73603   3.434   2.697   0.559
24454WAT     H173604   3.514   2.754   0.579
24454WAT     H273605   3.358   2.725   0.616
24455WAT      O73606   3.896   8.427   8.858
24455WAT     H173607   3.963   8.388   8.921
24455WAT     H273608   3.817   8.367   8.852
24456WAT      O73609   3.638   3.670   6.313
24456WAT     H173610   3.715   3.723   6.280
24456WAT     H273611   3.613   3.701   6.405
24457WAT      O73612   0.644   0.922   6.884
24457WAT     H173613   0.664   0.873   6.969
24457WAT     H273614   0.722   0.914   6.822
24458WAT      O73615   7.404   6.840   3.875
24458WAT     H173616   7.332   6.788   3.827
24458WAT     H273617   7.400   6.936   3.847
24459WAT      O73618   0.685   8.548   6.554
24459WAT     H173619   0.746   8.478   6.591
24459WAT     H273620   0.712   8.638   6.588
24460WAT      O73621   9.674   8.442   5.586
24460WAT     H173622   9.721   8.529   5.598
24460WAT     H273623   9.626   8.418   5.671
24461WAT      O73624   9.165   2.591   0.868
24461WAT     H173625   9.132   2.638   0.950
24461WAT     H273626   9.091   2.538   0.828
24462WAT      O73627   8.605   0.450   9.340
24462WAT     H173628   8.536   0.512   9.376
24462WAT     H273629   8.677   0.502   9.294
24463WAT      O73630   1.783   6.066   6.769
24463WAT     H173631   1.806   6.159   6.797
24463WAT     H273632   1.688   6.047   6.791
24464WAT      O73633   4.917   8.103   7.485
24464WAT     H173634   4.934   8.090   7.583
24464WAT     H273635   4.994   8.152   7.444
24465WAT      O73636   3.608   8.800   9.330
24465WAT     H173637   3.658   8.870   9.380
24465WAT     H273638   3.511   8.804   9.353
24466WAT      O73639   4.395   3.078   0.115
24466WAT     H173640   4.449   3.125   0.185
24466WAT     H273641   4.330   3.016   0.160
24467WAT      O73642   6.788   2.109   7.021
24467WAT     H173643   6.725   2.171   7.069
24467WAT     H273644   6.739   2.063   6.947
24468WAT      O73645   0.894   3.741   2.271
24468WAT     H173646   0.910   3.810   2.200
24468WAT     H273647   0.818   3.682   2.242
24469WAT      O73648   0.538   8.132   1.171
24469WAT     H173649   0.582   8.096   1.088
24469WAT     H273650   0.459   8.076   1.193
24470WAT      O73651   5.406   2.697   2.055
24470WAT     H173652   5.384   2.602   2.031
24470WAT     H273653   5.332   2.756   2.024
24471WAT      O73654   8.545   5.403   3.856
24471WAT     H173655   8.488   5.397   3.938
24471WAT     H273656   8.536   5.494   3.815
24472WAT      O73657   0.857   6.881   3.793
24472WAT     H173658   0.914   6.843   3.721
24472WAT     H273659   0.893   6.970   3.820
24473WAT      O73660   8.022   2.551   6.347
24473WAT     H173661   7.945   2.526   6.405
24473WAT     H273662   8.022   2.494   6.265
24474WAT      O73663   7.306   2.874   8.963
24474WAT     H173664   7.304   2.970   8.989
24474WAT     H273665   7.357   2.863   8.878
24475WAT      O73666   8.796   6.886   6.496
24475WAT     H173667   8.849   6.891   6.412
24475WAT     H273668   8.721   6.821   6.484
24476WAT      O73669   0.872   8.799   0.547
24476WAT     H173670   0.777   8.822   0.528
24476WAT     H273671   0.898   8.834   0.637
24477WAT      O73672   7.235   8.184   8.104
24477WAT     H173673   7.190   8.096   8.116
24477WAT     H273674   7.304   8.196   8.175
24478WAT      O73675   2.952   4.654   2.233
24478WAT     H173676   2.975   4.646   2.330
24478WAT     H273677   2.854   4.671   2.224
24479WAT      O73678   9.082   4.404   2.130
24479WAT     H173679   9.138   4.371   2.206
24479WAT     H273680   9.139   4.457   2.067
24480WAT      O73681   3.060   3.549   0.891
24480WAT     H173682   3.151   3.573   0.925
24480WAT     H273683   3.036   3.609   0.814
24481WAT      O73684   4.891   1.006   4.031
24481WAT     H173685   4.891   1.024   4.130
24481WAT     H273686   4.866   1.090   3.983
24482WAT      O73687   1.529   4.251   1.499
24482WAT     H173688   1.573   4.210   1.419
24482WAT     H273689   1.567   4.210   1.582
24483WAT      O73690   9.886   3.284   7.420
24483WAT     H173691   9.950   3.327   7.357
24483WAT     H273692   9.873   3.188   7.394
24484WAT      O73693   3.174   4.365   0.490
24484WAT     H173694   3.149   4.288   0.432
24484WAT     H273695   3.223   4.331   0.570
24485WAT      O73696   8.340   1.944   6.107
24485WAT     H173697   8.336   1.988   6.017
24485WAT     H273698   8.418   1.882   6.110
24486WAT      O73699   3.288   2.286   7.042
24486WAT     H173700   3.362   2.327   6.988
24486WAT     H273701   3.208   2.346   7.040
24487WAT      O73702   9.383   1.476   1.743
24487WAT     H173703   9.385   1.566   1.787
24487WAT     H273704   9.355   1.408   1.809
24488WAT      O73705   1.370   5.406   1.518
24488WAT     H173706   1.294   5.358   1.474
24488WAT     H273707   1.445   5.341   1.535
24489WAT      O73708   6.522   0.135   5.679
24489WAT     H173709   6.511   0.089   5.591
24489WAT     H273710   6.437   0.129   5.731
24490WAT      O73711   8.751   3.801   0.636
24490WAT     H173712   8.673   3.833   0.690
24490WAT     H273713   8.743   3.834   0.542
24491WAT      O73714   3.699   7.145   1.136
24491WAT     H173715   3.762   7.219   1.115
24491WAT     H273716   3.664   7.105   1.051
24492WAT      O73717   2.955   0.939   7.831
24492WAT     H173718   2.946   1.000   7.753
24492WAT     H273719   2.946   0.844   7.801
24493WAT      O73720   4.700   3.259   1.099
24493WAT     H173721   4.778   3.244   1.037
24493WAT     H273722   4.726   3.325   1.170
24494WAT      O73723   3.965   8.359   0.810
24494WAT     H173724   3.867   8.359   0.792
24494WAT     H273725   4.015   8.366   0.724
24495WAT      O73726   2.489   2.145   5.701
24495WAT     H173727   2.433   2.121   5.621
24495WAT     H273728   2.447   2.107   5.784
24496WAT      O73729   6.116   1.591   7.189
24496WAT     H173730   6.028   1.634   7.210
24496WAT     H273731   6.183   1.616   7.258
24497WAT      O73732   5.898   4.081   5.433
24497WAT     H173733   5.820   4.143   5.435
24497WAT     H273734   5.881   4.009   5.366
24498WAT      O73735   1.628   0.205   8.774
24498WAT     H173736   1.686   0.151   8.713
24498WAT     H273737   1.681   0.280   8.814
24499WAT      O73738   4.847   2.080   6.341
24499WAT     H173739   4.882   2.134   6.418
24499WAT     H273740   4.864   2.129   6.256
24500WAT      O73741   6.732   5.205   0.145
24500WAT     H173742   6.732   5.283   0.083
24500WAT     H273743   6.655   5.212   0.208
24501WAT      O73744   8.793   6.767   4.739
24501WAT     H173745   8.830   6.708   4.811
24501WAT     H273746   8.845   6.754   4.655
24502WAT      O73747   3.222   0.006   0.580
24502WAT     H173748   3.129   0.008   0.543
24502WAT     H273749   3.218  -0.015   0.677
24503WAT      O73750   1.014   3.310   6.080
24503WAT     H173751   1.094   3.302   6.020
24503WAT     H273752   0.996   3.221   6.123
24504WAT      O73753   0.467   3.610   6.869
24504WAT     H173754   0.410   3.552   6.927
24504WAT     H273755   0.410   3.678   6.824
24505WAT      O73756   8.984   6.849   7.451
24505WAT     H173757   8.983   6.895   7.362
24505WAT     H273758   9.055   6.887   7.508
24506WAT      O73759   6.929   7.654   4.795
24506WAT     H173760   6.861   7.689   4.730
24506WAT     H273761   6.970   7.571   4.758
24507WAT      O73762   5.815   5.958   4.935
24507WAT     H173763   5.912   5.950   4.960
24507WAT     H273764   5.769   6.021   4.998
24508WAT      O73765   5.562   5.159   8.053
24508WAT     H173766   5.487   5.099   8.026
24508WAT     H273767   5.537   5.254   8.034
24509WAT      O73768   8.024   2.941   5.147
24509WAT     H173769   8.006   2.899   5.236
24509WAT     H273770   7.943   2.931   5.088
24510WAT      O73771   5.115   7.754   8.025
24510WAT     H173772   5.128   7.668   8.074
24510WAT     H273773   5.036   7.747   7.964
24511WAT      O73774   8.080   0.861   9.516
24511WAT     H173775   8.077   0.889   9.612
24511WAT     H273776   8.123   0.933   9.461
24512WAT      O73777   9.862   4.977   0.428
24512WAT     H173778   9.779   4.939   0.386
24512WAT     H273779   9.898   4.913   0.496
24513WAT      O73780   4.693   1.472   8.770
24513WAT     H173781   4.748   1.389   8.773
24513WAT     H273782   4.750   1.549   8.743
24514WAT      O73783   5.648   8.293   2.286
24514WAT     H173784   5.655   8.225   2.214
24514WAT     H273785   5.738   8.335   2.302
24515WAT      O73786   5.004   2.716   2.555
24515WAT     H173787   5.001   2.618   2.574
24515WAT     H273788   5.010   2.731   2.456
24516WAT      O73789   7.107   1.726   1.899
24516WAT     H173790   7.155   1.643   1.872
24516WAT     H273791   7.097   1.786   1.820
24517WAT      O73792   0.329   7.890   3.298
24517WAT     H173793   0.393   7.951   3.251
24517WAT     H273794   0.360   7.796   3.290
24518WAT      O73795   1.459   7.742   2.300
24518WAT     H173796   1.422   7.753   2.208
24518WAT     H273797   1.394   7.692   2.357
24519WAT      O73798   8.080   7.857   3.609
24519WAT     H173799   8.173   7.890   3.592
24519WAT     H273800   8.046   7.811   3.527
24520WAT      O73801   4.409   2.211   0.074
24520WAT     H173802   4.497   2.175   0.105
24520WAT     H273803   4.338   2.184   0.139
24521WAT      O73804   0.196   7.379   2.257
24521WAT     H173805   0.121   7.320   2.289
24521WAT     H273806   0.271   7.377   2.324
24522WAT      O73807   2.047   5.286   7.725
24522WAT     H173808   2.013   5.202   7.682
24522WAT     H273809   2.063   5.356   7.654
24523WAT      O73810   5.350   6.198   1.695
24523WAT     H173811   5.429   6.230   1.748
24523WAT     H273812   5.278   6.267   1.697
24524WAT      O73813   9.831   2.576   5.329
24524WAT     H173814   9.911   2.520   5.307
24524WAT     H273815   9.752   2.516   5.342
24525WAT      O73816   1.832   4.529   7.762
24525WAT     H173817   1.821   4.489   7.853
24525WAT     H273818   1.748   4.576   7.735
24526WAT      O73819   7.856   2.020   3.829
24526WAT     H173820   7.805   2.103   3.804
24526WAT     H273821   7.949   2.046   3.857
24527WAT      O73822   2.901   9.158   5.283
24527WAT     H173823   2.969   9.227   5.305
24527WAT     H273824   2.834   9.196   5.219
24528WAT      O73825   3.944   2.381   1.439
24528WAT     H173826   3.868   2.351   1.382
24528WAT     H273827   3.955   2.318   1.516
24529WAT      O73828   4.595   1.553   0.066
24529WAT     H173829   4.588   1.550   0.166
24529WAT     H273830   4.688   1.580   0.040
24530WAT      O73831   2.683   7.131   9.689
24530WAT     H173832   2.752   7.095   9.627
24530WAT     H273833   2.704   7.227   9.711
24531WAT      O73834   5.491   3.320   0.466
24531WAT     H173835   5.493   3.411   0.508
24531WAT     H273836   5.505   3.250   0.536
24532WAT      O73837   7.678   1.732   9.307
24532WAT     H173838   7.584   1.766   9.309
24532WAT     H273839   7.742   1.805   9.330
24533WAT      O73840   4.205   7.556   3.301
24533WAT     H173841   4.229   7.463   3.276
24533WAT     H273842   4.226   7.572   3.398
24534WAT      O73843   0.374   2.272   7.873
24534WAT     H173844   0.421   2.348   7.829
24534WAT     H273845   0.430   2.189   7.866
24535WAT      O73846   8.900   4.402   7.658
24535WAT     H173847   8.849   4.366   7.736
24535WAT     H273848   8.860   4.490   7.630
24536WAT      O73849   7.588   7.523   1.729
24536WAT     H173850   7.551   7.576   1.653
24536WAT     H273851   7.673   7.478   1.700
24537WAT      O73852   8.667   6.787   0.762
24537WAT     H173853   8.660   6.817   0.857
24537WAT     H273854   8.636   6.860   0.701
24538WAT      O73855   0.509   6.883   3.467
24538WAT     H173856   0.485   6.836   3.382
24538WAT     H273857   0.450   6.851   3.541
24539WAT      O73858   6.453   6.899   8.957
24539WAT     H173859   6.519   6.862   8.892
24539WAT     H273860   6.396   6.966   8.910
24540WAT      O73861   3.816   7.070   4.643
24540WAT     H173862   3.765   6.991   4.676
24540WAT     H273863   3.755   7.128   4.587
24541WAT      O73864   1.650   0.684   1.147
24541WAT     H173865   1.571   0.704   1.088
24541WAT     H273866   1.693   0.769   1.176
24542WAT      O73867   0.475   7.918   8.241
24542WAT     H173868   0.392   7.886   8.197
24542WAT     H273869   0.518   7.989   8.185
24543WAT      O73870   4.243   1.164   0.950
24543WAT     H173871   4.162   1.215   0.922
24543WAT     H273872   4.291   1.214   1.022
24544WAT      O73873   2.675   8.556   5.877
24544WAT     H173874   2.752   8.496   5.897
24544WAT     H273875   2.636   8.590   5.962
24545WAT      O73876   4.308   5.788   2.368
24545WAT     H173877   4.227   5.749   2.324
24545WAT     H273878   4.280   5.863   2.429
24546WAT      O73879   4.607   8.231   8.502
24546WAT     H173880   4.543   8.305   8.524
24546WAT     H273881   4.663   8.258   8.424
24547WAT      O73882   6.255   0.073   2.313
24547WAT     H173883   6.332   0.134   2.329
24547WAT     H273884   6.170   0.117   2.342
24548WAT      O73885   2.896   1.503   7.928
24548WAT     H173886   2.963   1.463   7.866
24548WAT     H273887   2.837   1.566   7.877
24549WAT      O73888   9.175   1.219   4.093
24549WAT     H173889   9.135   1.248   4.006
24549WAT     H273890   9.200   1.122   4.088
24550WAT      O73891   5.133   8.405   5.836
24550WAT     H173892   5.120   8.473   5.764
24550WAT     H273893   5.152   8.316   5.794
24551WAT      O73894   4.246   5.932   0.994
24551WAT     H173895   4.259   5.845   1.040
24551WAT     H273896   4.151   5.941   0.964
24552WAT      O73897   7.341   1.836   0.993
24552WAT     H173898   7.387   1.899   1.055
24552WAT     H273899   7.381   1.844   0.901
24553WAT      O73900   4.275   3.017   9.349
24553WAT     H173901   4.301   2.939   9.406
24553WAT     H273902   4.176   3.023   9.343
24554WAT      O73903   4.491   0.205   0.081
24554WAT     H173904   4.479   0.266   0.003
24554WAT     H273905   4.416   0.218   0.146
24555WAT      O73906   6.797   8.738   0.451
24555WAT     H173907   6.734   8.800   0.405
24555WAT     H273908   6.886   8.783   0.461
24556WAT      O73909   7.783   3.965   9.704
24556WAT     H173910   7.756   3.993   9.612
24556WAT     H273911   7.882   3.979   9.715
24557WAT      O73912   0.802   7.936   3.517
24557WAT     H173913   0.859   7.856   3.498
24557WAT     H273914   0.706   7.908   3.526
24558WAT      O73915   3.767   9.006   1.605
24558WAT     H173916   3.777   8.925   1.662
24558WAT     H273917   3.722   9.078   1.657
24559WAT      O73918   4.143   9.717   9.691
24559WAT     H173919   4.220   9.728   9.754
24559WAT     H273920   4.084   9.642   9.723
24560WAT      O73921   9.560   6.931   3.334
24560WAT     H173922   9.658   6.941   3.354
24560WAT     H273923   9.516   7.020   3.336
24561WAT      O73924   1.765   2.656   9.379
24561WAT     H173925   1.767   2.716   9.299
24561WAT     H273926   1.671   2.644   9.410
24562WAT      O73927   2.064   1.014   7.625
24562WAT     H173928   2.121   1.064   7.560
24562WAT     H273929   2.122   0.959   7.685
24563WAT      O73930   2.158   6.891   3.838
24563WAT     H173931   2.117   6.822   3.778
24563WAT     H273932   2.096   6.910   3.914
24564WAT      O73933   2.034   9.180   9.877
24564WAT     H173934   2.127   9.145   9.864
24564WAT     H273935   1.968   9.110   9.852
24565WAT      O73936   3.619   3.722   2.569
24565WAT     H173937   3.578   3.813   2.569
24565WAT     H273938   3.686   3.715   2.495
24566WAT      O73939   6.315   4.785   1.825
24566WAT     H173940   6.300   4.881   1.802
24566WAT     H273941   6.369   4.742   1.752
24567WAT      O73942   8.839   9.425   0.519
24567WAT     H173943   8.870   9.435   0.613
24567WAT     H273944   8.851   9.512   0.471
24568WAT      O73945   5.612   1.605   0.084
24568WAT     H173946   5.517   1.636   0.084
24568WAT     H273947   5.623   1.532   0.152
24569WAT      O73948   7.674   6.193   1.423
24569WAT     H173949   7.734   6.113   1.424
24569WAT     H273950   7.712   6.264   1.483
24570WAT      O73951   8.763   1.824   9.574
24570WAT     H173952   8.723   1.748   9.522
24570WAT     H273953   8.700   1.901   9.576
24571WAT      O73954   1.193   7.372   6.497
24571WAT     H173955   1.164   7.392   6.591
24571WAT     H273956   1.173   7.451   6.439
24572WAT      O73957   8.455   6.937   5.673
24572WAT     H173958   8.554   6.945   5.661
24572WAT     H273959   8.425   7.002   5.742
24573WAT      O73960   2.167   7.807   4.522
24573WAT     H173961   2.232   7.776   4.591
24573WAT     H273962   2.177   7.753   4.439
24574WAT      O73963   9.415   8.850   9.800
24574WAT     H173964   9.356   8.834   9.721
24574WAT     H273965   9.503   8.885   9.769
24575WAT      O73966   9.460   0.563   2.675
24575WAT     H173967   9.470   0.510   2.760
24575WAT     H273968   9.365   0.589   2.663
24576WAT      O73969   7.450   6.874   4.912
24576WAT     H173970   7.381   6.911   4.851
24576WAT     H273971   7.480   6.945   4.976
24577WAT      O73972   7.445   6.712   1.833
24577WAT     H173973   7.371   6.774   1.808
24577WAT     H273974   7.531   6.743   1.792
24578WAT      O73975   7.505   7.803   2.130
24578WAT     H173976   7.536   7.791   2.036
24578WAT     H273977   7.442   7.880   2.135
24579WAT      O73978   9.419   6.659   5.085
24579WAT     H173979   9.433   6.672   4.987
24579WAT     H273980   9.421   6.561   5.106
24580WAT      O73981   7.379   0.770   9.480
24580WAT     H173982   7.315   0.753   9.406
24580WAT     H273983   7.335   0.750   9.568
24581WAT      O73984   6.783   7.121   3.723
24581WAT     H173985   6.720   7.163   3.658
24581WAT     H273986   6.875   7.160   3.709
24582WAT      O73987   2.068   3.338   5.577
24582WAT     H173988   2.129   3.319   5.500
24582WAT     H273989   2.021   3.425   5.561
24583WAT      O73990   3.771   5.038   1.038
24583WAT     H173991   3.728   5.075   0.956
24583WAT     H273992   3.739   4.945   1.053
24584WAT      O73993   5.838   5.177   6.162
24584WAT     H173994   5.770   5.214   6.098
24584WAT     H273995   5.887   5.252   6.206
24585WAT      O73996   5.001   1.213   6.637
24585WAT     H173997   5.017   1.279   6.710
24585WAT     H273998   5.074   1.221   6.568
24586WAT      O73999   2.776   4.709   3.161
24586WAT     H174000   2.823   4.758   3.088
24586WAT     H274001   2.784   4.610   3.145
24587WAT      O74002   8.812   1.941   8.299
24587WAT     H174003   8.808   1.966   8.396
24587WAT     H274004   8.729   1.975   8.253
24588WAT      O74005   4.686   1.965   1.264
24588WAT     H174006   4.695   1.936   1.359
24588WAT     H274007   4.637   2.053   1.261
24589WAT      O74008   9.261   8.679   7.088
24589WAT     H174009   9.332   8.715   7.028
24589WAT     H274010   9.205   8.754   7.123
24590WAT      O74011   2.750   1.986   9.386
24590WAT     H174012   2.850   1.988   9.390
24590WAT     H274013   2.713   2.066   9.434
24591WAT      O74014   8.427   4.740   1.134
24591WAT     H174015   8.454   4.756   1.229
24591WAT     H274016   8.445   4.644   1.111
24592WAT      O74017   3.808   5.687   3.185
24592WAT     H174018   3.815   5.670   3.283
24592WAT     H274019   3.739   5.757   3.167
24593WAT      O74020   3.730   0.765   3.905
24593WAT     H174021   3.729   0.786   4.003
24593WAT     H274022   3.825   0.766   3.872
24594WAT      O74023   3.309   8.978   3.651
24594WAT     H174024   3.383   9.027   3.697
24594WAT     H274025   3.304   9.006   3.555
24595WAT      O74026   5.797   5.318   8.541
24595WAT     H174027   5.859   5.273   8.605
24595WAT     H274028   5.849   5.357   8.465
24596WAT      O74029   2.994   2.648   5.880
24596WAT     H174030   3.090   2.673   5.891
24596WAT     H274031   2.975   2.627   5.784
24597WAT      O74032   7.712   2.090   2.548
24597WAT     H174033   7.730   2.114   2.643
24597WAT     H274034   7.656   2.161   2.506
24598WAT      O74035   7.725   8.903   2.006
24598WAT     H174036   7.726   9.000   1.982
24598WAT     H274037   7.817   8.866   1.997
24599WAT      O74038   5.178   0.041   1.848
24599WAT     H174039   5.103   0.006   1.903
24599WAT     H274040   5.203  -0.027   1.779
24600WAT      O74041   4.036   2.327   3.811
24600WAT     H174042   4.042   2.256   3.880
24600WAT     H274043   4.009   2.414   3.855
24601WAT      O74044   5.711   8.986   7.212
24601WAT     H174045   5.650   8.947   7.143
24601WAT     H274046   5.657   9.029   7.284
24602WAT      O74047   2.169   1.688   4.279
24602WAT     H174048   2.205   1.757   4.342
24602WAT     H274049   2.245   1.636   4.239
24603WAT      O74050   1.583   7.341   0.684
24603WAT     H174051   1.587   7.441   0.690
24603WAT     H274052   1.660   7.308   0.629
24604WAT      O74053   1.672   5.786   6.011
24604WAT     H174054   1.575   5.766   5.999
24604WAT     H274055   1.716   5.712   6.062
24605WAT      O74056   3.976   8.566   5.841
24605WAT     H174057   3.913   8.566   5.764
24605WAT     H274058   3.943   8.502   5.911
24606WAT      O74059   0.852   6.016   1.395
24606WAT     H174060   0.855   6.063   1.483
24606WAT     H274061   0.946   6.003   1.362
24607WAT      O74062   8.961   2.772   8.044
24607WAT     H174063   8.899   2.844   8.012
24607WAT     H274064   8.908   2.691   8.067
24608WAT      O74065   6.702   1.946   3.988
24608WAT     H174066   6.673   1.909   4.077
24608WAT     H274067   6.797   1.974   3.994
24609WAT      O74068   7.114   3.433   9.592
24609WAT     H174069   7.110   3.381   9.678
24609WAT     H274070   7.207   3.426   9.554
24610WAT      O74071   5.157   3.145   1.378
24610WAT     H174072   5.067   3.151   1.423
24610WAT     H274073   5.227   3.129   1.447
24611WAT      O74074   1.779   2.669   6.140
24611WAT     H174075   1.767   2.728   6.220
24611WAT     H274076   1.693   2.622   6.120
24612WAT      O74077   7.491   6.034   4.995
24612WAT     H174078   7.464   6.046   5.090
24612WAT     H274079   7.572   5.975   4.991
24613WAT      O74080   2.896   8.324   0.154
24613WAT     H174081   2.820   8.309   0.091
24613WAT     H274082   2.860   8.331   0.248
24614WAT      O74083   2.570   1.078   1.715
24614WAT     H174084   2.534   1.091   1.623
24614WAT     H274085   2.638   1.004   1.714
24615WAT      O74086   4.507   2.360   2.959
24615WAT     H174087   4.434   2.358   3.028
24615WAT     H274088   4.589   2.401   3.000
24616WAT      O74089   6.225   8.272   6.965
24616WAT     H174090   6.226   8.172   6.959
24616WAT     H274091   6.195   8.310   6.878
24617WAT      O74092   8.446   8.674   8.265
24617WAT     H174093   8.364   8.726   8.288
24617WAT     H274094   8.432   8.626   8.179
24618WAT      O74095   4.975   2.907   7.815
24618WAT     H174096   4.883   2.907   7.775
24618WAT     H274097   5.043   2.915   7.741
24619WAT      O74098   2.661   7.379   6.325
24619WAT     H174099   2.684   7.465   6.281
24619WAT     H274100   2.561   7.371   6.334
24620WAT      O74101   0.153   7.182   6.741
24620WAT     H174102   0.093   7.126   6.684
24620WAT     H274103   0.241   7.194   6.694
24621WAT      O74104   7.589   4.880   8.560
24621WAT     H174105   7.650   4.867   8.482
24621WAT     H274106   7.634   4.940   8.627
24622WAT      O74107   9.134   1.354   6.466
24622WAT     H174108   9.178   1.416   6.530
24622WAT     H274109   9.164   1.260   6.484
24623WAT      O74110   2.746   7.480   4.397
24623WAT     H174111   2.738   7.380   4.386
24623WAT     H274112   2.775   7.501   4.490
24624WAT      O74113   1.288   7.987   0.473
24624WAT     H174114   1.332   7.944   0.394
24624WAT     H274115   1.236   8.067   0.443
24625WAT      O74116   3.645   7.886   3.827
24625WAT     H174117   3.589   7.878   3.745
24625WAT     H274118   3.612   7.962   3.883
24626WAT      O74119   0.953   9.407   0.763
24626WAT     H174120   1.018   9.346   0.808
24626WAT     H274121   0.860   9.376   0.782
24627WAT      O74122   0.404   2.240   8.614
24627WAT     H174123   0.415   2.338   8.631
24627WAT     H274124   0.444   2.217   8.525
24628WAT      O74125   9.366   0.625   9.047
24628WAT     H174126   9.326   0.631   9.139
24628WAT     H274127   9.436   0.554   9.046
24629WAT      O74128   2.394   1.286   9.375
24629WAT     H174129   2.340   1.202   9.367
24629WAT     H274130   2.336   1.361   9.405
24630WAT      O74131   6.551   0.737   9.552
24630WAT     H174132   6.531   0.692   9.464
24630WAT     H274133   6.618   0.809   9.538
24631WAT      O74134   4.307   4.006   3.110
24631WAT     H174135   4.279   3.961   3.025
24631WAT     H274136   4.406   4.021   3.108
24632WAT      O74137   2.293   2.186   0.351
24632WAT     H174138   2.288   2.185   0.451
24632WAT     H274139   2.200   2.186   0.313
24633WAT      O74140   5.660   4.390   8.898
24633WAT     H174141   5.626   4.296   8.887
24633WAT     H274142   5.596   4.441   8.956
24634WAT      O74143   9.855   7.698   0.412
24634WAT     H174144   9.770   7.748   0.428
24634WAT     H274145   9.843   7.603   0.439
24635WAT      O74146   7.786   4.152   3.666
24635WAT     H174147   7.874   4.188   3.695
24635WAT     H274148   7.798   4.091   3.588
24636WAT      O74149   6.309   0.879   2.420
24636WAT     H174150   6.253   0.915   2.495
24636WAT     H274151   6.403   0.867   2.453
24637WAT      O74152   5.761   4.437   9.850
24637WAT     H174153   5.734   4.534   9.848
24637WAT     H274154   5.686   4.382   9.812
24638WAT      O74155   2.295   9.265   5.138
24638WAT     H174156   2.283   9.201   5.214
24638WAT     H274157   2.236   9.238   5.062
24639WAT      O74158   6.625   1.431   4.912
24639WAT     H174159   6.719   1.436   4.879
24639WAT     H274160   6.584   1.522   4.909
24640WAT      O74161   9.504   8.992   2.216
24640WAT     H174162   9.429   9.025   2.158
24640WAT     H274163   9.561   9.068   2.244
24641WAT      O74164   1.158   6.638   7.202
24641WAT     H174165   1.115   6.570   7.144
24641WAT     H274166   1.227   6.594   7.259
24642WAT      O74167   8.956   2.434   1.517
24642WAT     H174168   8.929   2.420   1.422
24642WAT     H274169   8.968   2.346   1.562
24643WAT      O74170   4.267   7.699   5.064
24643WAT     H174171   4.234   7.605   5.074
24643WAT     H274172   4.341   7.716   5.129
24644WAT      O74173   2.516   5.033   6.139
24644WAT     H174174   2.446   5.104   6.141
24644WAT     H274175   2.472   4.943   6.131
24645WAT      O74176   5.127   7.820   8.773
24645WAT     H174177   5.059   7.798   8.843
24645WAT     H274178   5.217   7.787   8.802
24646WAT      O74179   6.017   2.201   6.473
24646WAT     H174180   6.016   2.249   6.561
24646WAT     H274181   6.027   2.268   6.399
24647WAT      O74182   0.767   0.462   3.549
24647WAT     H174183   0.686   0.403   3.553
24647WAT     H274184   0.838   0.427   3.610
24648WAT      O74185   2.358   3.476   1.534
24648WAT     H174186   2.334   3.400   1.474
24648WAT     H274187   2.395   3.551   1.479
24649WAT      O74188   2.149   3.886   0.680
24649WAT     H174189   2.229   3.858   0.627
24649WAT     H274190   2.070   3.894   0.619
24650WAT      O74191   0.913   8.785   1.051
24650WAT     H174192   0.831   8.728   1.055
24650WAT     H274193   0.994   8.727   1.059
24651WAT      O74194   7.872   4.953   5.800
24651WAT     H174195   7.886   4.987   5.707
24651WAT     H274196   7.866   5.030   5.863
24652WAT      O74197   2.292   1.861   1.191
24652WAT     H174198   2.250   1.896   1.275
24652WAT     H274199   2.382   1.903   1.179
24653WAT      O74200   8.558   1.553   8.088
24653WAT     H174201   8.567   1.455   8.072
24653WAT     H274202   8.468   1.573   8.127
24654WAT      O74203   8.797   8.338   6.317
24654WAT     H174204   8.835   8.245   6.311
24654WAT     H274205   8.753   8.350   6.406
24655WAT      O74206   4.322   0.716   3.318
24655WAT     H174207   4.413   0.684   3.343
24655WAT     H274208   4.330   0.801   3.265
24656WAT      O74209   4.606   8.681   1.414
24656WAT     H174210   4.656   8.709   1.333
24656WAT     H274211   4.557   8.760   1.452
24657WAT      O74212   2.874   6.433   6.515
24657WAT     H174213   2.776   6.447   6.502
24657WAT     H274214   2.902   6.350   6.467
24658WAT      O74215   2.058   7.937   9.773
24658WAT     H174216   2.149   7.904   9.748
24658WAT     H274217   2.026   8.002   9.705
24659WAT      O74218   4.537   1.087   2.728
24659WAT     H174219   4.579   1.015   2.674
24659WAT     H274220   4.438   1.070   2.736
24660WAT      O74221   8.980   8.352   9.070
24660WAT     H174222   8.888   8.351   9.110
24660WAT     H274223   9.023   8.262   9.084
24661WAT      O74224   5.922   9.695   8.387
24661WAT     H174225   5.884   9.766   8.328
24661WAT     H274226   5.859   9.617   8.392
24662WAT      O74227   5.311   1.733   8.517
24662WAT     H174228   5.362   1.795   8.457
24662WAT     H274229   5.220   1.770   8.535
24663WAT      O74230   2.431   5.263   2.857
24663WAT     H174231   2.513   5.305   2.896
24663WAT     H274232   2.392   5.324   2.788
24664WAT      O74233   5.944   7.306   9.194
24664WAT     H174234   5.971   7.220   9.237
24664WAT     H274235   6.026   7.351   9.156
24665WAT      O74236   6.805   2.416   5.049
24665WAT     H174237   6.866   2.496   5.048
24665WAT     H274238   6.719   2.441   5.093
24666WAT      O74239   4.445   8.922   0.368
24666WAT     H174240   4.487   9.011   0.384
24666WAT     H274241   4.357   8.934   0.321
24667WAT      O74242   4.096   1.995   5.782
24667WAT     H174243   4.163   2.061   5.815
24667WAT     H274244   4.141   1.908   5.762
24668WAT      O74245   7.840   3.369   3.859
24668WAT     H174246   7.882   3.295   3.806
24668WAT     H274247   7.741   3.361   3.855
24669WAT      O74248   0.489   4.116   9.070
24669WAT     H174249   0.430   4.094   9.148
24669WAT     H274250   0.585   4.118   9.101
24670WAT      O74251   8.443   2.228   2.345
24670WAT     H174252   8.536   2.215   2.310
24670WAT     H274253   8.434   2.321   2.381
24671WAT      O74254   4.227   8.512   1.774
24671WAT     H174255   4.263   8.422   1.800
24671WAT     H274256   4.303   8.571   1.746
24672WAT      O74257   2.151   5.002   4.146
24672WAT     H174258   2.076   4.945   4.178
24672WAT     H274259   2.119   5.096   4.133
24673WAT      O74260   0.167   2.699   4.103
24673WAT     H174261   0.227   2.766   4.146
24673WAT     H274262   0.216   2.612   4.094
24674WAT      O74263   8.817   7.413   0.220
24674WAT     H174264   8.909   7.397   0.256
24674WAT     H274265   8.805   7.511   0.201
24675WAT      O74266   0.808   0.776   6.030
24675WAT     H174267   0.848   0.845   6.091
24675WAT     H274268   0.759   0.708   6.084
24676WAT      O74269   6.466   6.393   5.718
24676WAT     H174270   6.401   6.421   5.789
24676WAT     H274271   6.548   6.449   5.724
24677WAT      O74272   8.611   9.625   6.642
24677WAT     H174273   8.563   9.712   6.655
24677WAT     H274274   8.584   9.561   6.714
24678WAT      O74275   4.349   7.647   0.569
24678WAT     H174276   4.397   7.687   0.647
24678WAT     H274277   4.372   7.550   0.562
24679WAT      O74278   0.147   4.898   0.663
24679WAT     H174279   0.118   4.808   0.697
24679WAT     H274280   0.197   4.947   0.734
24680WAT      O74281   7.715   0.055   3.000
24680WAT     H174282   7.655   0.118   2.949
24680WAT     H274283   7.784   0.106   3.049
24681WAT      O74284   2.985   9.458   0.331
24681WAT     H174285   2.912   9.392   0.346
24681WAT     H274286   3.072   9.420   0.365
24682WAT      O74287   8.095   1.842   6.762
24682WAT     H174288   8.092   1.861   6.664
24682WAT     H274289   8.002   1.826   6.796
24683WAT      O74290   3.272   3.951   3.343
24683WAT     H174291   3.315   3.966   3.255
24683WAT     H274292   3.274   4.035   3.397
24684WAT      O74293   7.648   7.887   6.569
24684WAT     H174294   7.732   7.834   6.583
24684WAT     H274295   7.570   7.825   6.562
24685WAT      O74296   4.794   4.600   2.098
24685WAT     H174297   4.754   4.616   2.189
24685WAT     H274298   4.892   4.588   2.107
24686WAT      O74299   6.086   4.806   3.690
24686WAT     H174300   6.070   4.902   3.666
24686WAT     H274301   6.073   4.749   3.609
24687WAT      O74302   4.216   2.418   7.138
24687WAT     H174303   4.137   2.478   7.144
24687WAT     H274304   4.191   2.326   7.167
24688WAT      O74305   8.378   1.272   3.274
24688WAT     H174306   8.444   1.322   3.329
24688WAT     H274307   8.425   1.199   3.224
24689WAT      O74308   1.351   7.587   7.536
24689WAT     H174309   1.274   7.619   7.481
24689WAT     H274310   1.345   7.487   7.546
24690WAT      O74311   7.450   1.956   5.946
24690WAT     H174312   7.513   2.020   5.901
24690WAT     H274313   7.360   1.999   5.956
24691WAT      O74314   7.370   1.292   4.789
24691WAT     H174315   7.458   1.285   4.836
24691WAT     H274316   7.361   1.382   4.748
24692WAT      O74317   4.612   0.362   0.870
24692WAT     H174318   4.642   0.292   0.804
24692WAT     H274319   4.531   0.329   0.918
24693WAT      O74320   8.400   6.679   8.119
24693WAT     H174321   8.313   6.695   8.072
24693WAT     H274322   8.474   6.670   8.052
24694WAT      O74323   6.672   4.328   1.451
24694WAT     H174324   6.752   4.295   1.401
24694WAT     H274325   6.653   4.267   1.528
24695WAT      O74326   1.048   2.583   1.693
24695WAT     H174327   1.026   2.509   1.629
24695WAT     H274328   0.974   2.649   1.696
24696WAT      O74329   1.183   2.612   8.603
24696WAT     H174330   1.195   2.627   8.505
24696WAT     H274331   1.254   2.550   8.636
24697WAT      O74332   5.617   6.053   8.174
24697WAT     H174333   5.698   6.048   8.233
24697WAT     H274334   5.621   5.981   8.105
24698WAT      O74335   7.788   2.926   5.026
24698WAT     H174336   7.779   2.929   4.927
24698WAT     H274337   7.733   2.999   5.067
24699WAT      O74338   9.745   6.594   2.472
24699WAT     H174339   9.806   6.672   2.487
24699WAT     H274340   9.664   6.603   2.530
24700WAT      O74341   4.670   9.553   9.500
24700WAT     H174342   4.745   9.512   9.551
24700WAT     H274343   4.590   9.563   9.559
24701WAT      O74344   2.566   8.251   8.689
24701WAT     H174345   2.600   8.156   8.691
24701WAT     H274346   2.642   8.313   8.709
24702WAT      O74347   6.175   2.421   8.548
24702WAT     H174348   6.124   2.337   8.532
24702WAT     H274349   6.209   2.422   8.642
24703WAT      O74350   6.112   3.734   8.837
24703WAT     H174351   6.033   3.758   8.780
24703WAT     H274352   6.159   3.655   8.797
24704WAT      O74353   2.059   8.296   0.609
24704WAT     H174354   2.122   8.222   0.583
24704WAT     H274355   2.090   8.382   0.568
24705WAT      O74356   2.690   3.913   4.320
24705WAT     H174357   2.699   4.011   4.341
24705WAT     H274358   2.760   3.887   4.254
24706WAT      O74359   6.127   5.402   2.823
24706WAT     H174360   6.160   5.341   2.894
24706WAT     H274361   6.027   5.396   2.818
24707WAT      O74362   6.655   7.814   6.111
24707WAT     H174363   6.697   7.822   6.202
24707WAT     H274364   6.698   7.881   6.049
24708WAT      O74365   9.565   7.175   6.217
24708WAT     H174366   9.622   7.242   6.266
24708WAT     H274367   9.576   7.085   6.258
24709WAT      O74368   9.335   1.956   9.230
24709WAT     H174369   9.264   2.017   9.267
24709WAT     H274370   9.316   1.938   9.134
24710WAT      O74371   5.127   2.901   1.118
24710WAT     H174372   5.084   2.815   1.089
24710WAT     H274373   5.150   2.956   1.038
24711WAT      O74374   2.875   0.779   4.891
24711WAT     H174375   2.793   0.835   4.903
24711WAT     H274376   2.850   0.682   4.898
24712WAT      O74377   6.193   8.341   2.309
24712WAT     H174378   6.134   8.312   2.385
24712WAT     H274379   6.200   8.441   2.310
24713WAT      O74380   1.302   2.323   5.026
24713WAT     H174381   1.387   2.280   5.057
24713WAT     H274382   1.289   2.305   4.929
24714WAT      O74383   3.213   8.976   1.301
24714WAT     H174384   3.220   8.928   1.389
24714WAT     H274385   3.273   8.931   1.235
24715WAT      O74386   2.155   3.116   6.704
24715WAT     H174387   2.150   3.025   6.744
24715WAT     H274388   2.064   3.142   6.670
24716WAT      O74389   3.942   1.599   9.665
24716WAT     H174390   4.017   1.557   9.717
24716WAT     H274391   3.979   1.663   9.598
24717WAT      O74392   4.763   1.711   0.368
24717WAT     H174393   4.847   1.699   0.315
24717WAT     H274394   4.714   1.623   0.372
24718WAT      O74395   8.878   0.417   6.968
24718WAT     H174396   8.904   0.465   6.884
24718WAT     H274397   8.954   0.419   7.032
24719WAT      O74398   7.746   1.745   1.545
24719WAT     H174399   7.777   1.770   1.453
24719WAT     H274400   7.749   1.646   1.555
24720WAT      O74401   6.807   2.433   3.894
24720WAT     H174402   6.864   2.439   3.812
24720WAT     H274403   6.741   2.359   3.884
24721WAT      O74404   9.772   1.773   4.025
24721WAT     H174405   9.733   1.847   3.970
24721WAT     H274406   9.837   1.810   4.090
24722WAT      O74407   4.107   9.414   3.126
24722WAT     H174408   4.043   9.490   3.128
24722WAT     H274409   4.128   9.386   3.220
24723WAT      O74410   2.069   2.661   4.821
24723WAT     H174411   2.044   2.752   4.853
24723WAT     H274412   2.159   2.636   4.858
24724WAT      O74413   3.931   7.286   4.878
24724WAT     H174414   3.998   7.213   4.891
24724WAT     H274415   3.839   7.249   4.888
24725WAT      O74416   9.279   4.146   6.712
24725WAT     H174417   9.327   4.234   6.706
24725WAT     H274418   9.194   4.151   6.659
24726WAT      O74419   4.606   7.244   7.706
24726WAT     H174420   4.700   7.275   7.698
24726WAT     H274421   4.551   7.286   7.634
24727WAT      O74422   0.810   0.328   8.369
24727WAT     H174423   0.892   0.277   8.397
24727WAT     H274424   0.802   0.325   8.269
24728WAT      O74425   4.185   7.053   6.656
24728WAT     H174426   4.180   7.143   6.614
24728WAT     H274427   4.131   7.053   6.741
24729WAT      O74428   4.463   8.278   4.095
24729WAT     H174429   4.432   8.318   4.009
24729WAT     H274430   4.493   8.351   4.157
24730WAT      O74431   0.617   3.268   4.980
24730WAT     H174432   0.631   3.359   4.941
24730WAT     H274433   0.703   3.235   5.019
24731WAT      O74434   1.609   4.275   5.414
24731WAT     H174435   1.694   4.271   5.362
24731WAT     H274436   1.596   4.368   5.450
24732WAT      O74437   1.890   2.367   2.000
24732WAT     H174438   1.838   2.415   1.931
24732WAT     H274439   1.828   2.320   2.063
24733WAT      O74440   4.610   2.320   1.866
24733WAT     H174441   4.690   2.260   1.873
24733WAT     H274442   4.569   2.312   1.775
24734WAT      O74443   0.622   5.327   5.943
24734WAT     H174444   0.629   5.282   6.031
24734WAT     H274445   0.714   5.344   5.906
24735WAT      O74446   2.612   4.805   0.836
24735WAT     H174447   2.575   4.884   0.787
24735WAT     H274448   2.701   4.780   0.797
24736WAT      O74449   1.528   4.110   7.080
24736WAT     H174450   1.593   4.034   7.091
24736WAT     H274451   1.438   4.073   7.059
24737WAT      O74452   6.063   8.554   2.005
24737WAT     H174453   6.129   8.479   1.996
24737WAT     H274454   6.072   8.597   2.094
24738WAT      O74455   6.214   5.360   0.836
24738WAT     H174456   6.291   5.382   0.776
24738WAT     H274457   6.132   5.346   0.780
24739WAT      O74458   8.957   3.419   2.220
24739WAT     H174459   8.945   3.465   2.308
24739WAT     H274460   8.911   3.472   2.149
24740WAT      O74461   0.277   7.724   5.296
24740WAT     H174462   0.362   7.767   5.326
24740WAT     H274463   0.229   7.685   5.375
24741WAT      O74464   2.314   7.640   4.685
24741WAT     H174465   2.342   7.560   4.633
24741WAT     H274466   2.391   7.677   4.736
24742WAT      O74467   1.877   2.935   4.846
24742WAT     H174468   1.855   2.972   4.756
24742WAT     H274469   1.795   2.893   4.886
24743WAT      O74470   8.210   5.917   9.490
24743WAT     H174471   8.166   5.828   9.502
24743WAT     H274472   8.141   5.986   9.470
24744WAT      O74473   3.407   4.843   8.508
24744WAT     H174474   3.482   4.800   8.560
24744WAT     H274475   3.430   4.938   8.490
24745WAT      O74476   7.228   0.231   2.473
24745WAT     H174477   7.278   0.151   2.508
24745WAT     H274478   7.245   0.309   2.533
24746WAT      O74479   5.366   1.437   7.923
24746WAT     H174480   5.390   1.389   7.839
24746WAT     H274481   5.435   1.506   7.945
24747WAT      O74482   0.535   8.465   8.956
24747WAT     H174483   0.575   8.379   8.923
24747WAT     H274484   0.461   8.493   8.895
24748WAT      O74485   8.446   8.194   4.068
24748WAT     H174486   8.405   8.267   4.122
24748WAT     H274487   8.473   8.230   3.979
24749WAT      O74488   7.976   4.351   6.832
24749WAT     H174489   8.005   4.330   6.739
24749WAT     H274490   7.883   4.387   6.831
24750WAT      O74491   9.881   9.660   7.074
24750WAT     H174492   9.902   9.607   6.991
24750WAT     H274493   9.943   9.738   7.080
24751WAT      O74494   8.716   4.341   4.467
24751WAT     H174495   8.793   4.290   4.507
24751WAT     H274496   8.631   4.311   4.509
24752WAT      O74497   2.337   9.792   3.781
24752WAT     H174498   2.333   9.698   3.746
24752WAT     H274499   2.420   9.836   3.748
24753WAT      O74500   3.195   3.246   7.704
24753WAT     H174501   3.151   3.169   7.657
24753WAT     H274502   3.187   3.233   7.803
24754WAT      O74503   7.572   8.365   5.460
24754WAT     H174504   7.486   8.315   5.468
24754WAT     H274505   7.568   8.427   5.382
24755WAT      O74506   5.692   9.344   4.450
24755WAT     H174507   5.620   9.276   4.442
24755WAT     H274508   5.734   9.359   4.360
24756WAT      O74509   3.804   0.050   6.602
24756WAT     H174510   3.762  -0.039   6.622
24756WAT     H274511   3.839   0.089   6.687
24757WAT      O74512   1.301   5.806   4.943
24757WAT     H174513   1.300   5.854   4.856
24757WAT     H274514   1.355   5.722   4.934
24758WAT      O74515   5.648   1.782   0.876
24758WAT     H174516   5.650   1.876   0.843
24758WAT     H274517   5.630   1.720   0.800
24759WAT      O74518   9.548   7.982   4.487
24759WAT     H174519   9.519   7.887   4.483
24759WAT     H274520   9.591   8.007   4.401
24760WAT      O74521   4.868   1.726   8.449
24760WAT     H174522   4.810   1.729   8.531
24760WAT     H274523   4.817   1.686   8.373
24761WAT      O74524   4.151   3.696   8.487
24761WAT     H174525   4.071   3.645   8.518
24761WAT     H274526   4.231   3.668   8.541
24762WAT      O74527   7.796   7.212   4.904
24762WAT     H174528   7.828   7.306   4.917
24762WAT     H274529   7.717   7.212   4.843
24763WAT      O74530   7.350   7.994   4.390
24763WAT     H174531   7.300   7.954   4.466
24763WAT     H274532   7.424   7.932   4.363
24764WAT      O74533   5.065   1.319   5.169
24764WAT     H174534   4.968   1.343   5.176
24764WAT     H274535   5.097   1.336   5.076
24765WAT      O74536   4.826   0.898   9.762
24765WAT     H174537   4.888   0.862   9.831
24765WAT     H274538   4.732   0.885   9.792
24766WAT      O74539   9.009   9.712   9.437
24766WAT     H174540   8.990   9.806   9.463
24766WAT     H274541   9.035   9.659   9.518
24767WAT      O74542   4.466   9.304   4.289
24767WAT     H174543   4.522   9.224   4.307
24767WAT     H274544   4.372   9.275   4.267
24768WAT      O74545   0.534   9.752   8.251
24768WAT     H174546   0.498   9.669   8.292
24768WAT     H274547   0.541   9.823   8.321
24769WAT      O74548   1.457   7.549   4.132
24769WAT     H174549   1.482   7.643   4.112
24769WAT     H274550   1.399   7.546   4.213
24770WAT      O74551   2.083   1.209   1.410
24770WAT     H174552   2.049   1.290   1.362
24770WAT     H274553   2.183   1.213   1.416
24771WAT      O74554   7.354   1.238   1.148
24771WAT     H174555   7.443   1.267   1.111
24771WAT     H274556   7.286   1.242   1.075
24772WAT      O74557   3.578   9.817   8.570
24772WAT     H174558   3.602   9.882   8.497
24772WAT     H274559   3.646   9.744   8.574
24773WAT      O74560   4.017   1.340   0.909
24773WAT     H174561   4.019   1.327   1.008
24773WAT     H274562   4.019   1.438   0.889
24774WAT      O74563   9.591   2.751   4.684
24774WAT     H174564   9.685   2.750   4.719
24774WAT     H274565   9.592   2.739   4.585
24775WAT      O74566   5.705   0.076   0.735
24775WAT     H174567   5.758   0.073   0.820
24775WAT     H274568   5.688   0.171   0.709
24776WAT      O74569   9.227   9.092   6.967
24776WAT     H174570   9.147   9.151   6.976
24776WAT     H274571   9.300   9.142   6.921
24777WAT      O74572   9.524   2.357   9.809
24777WAT     H174573   9.597   2.391   9.750
24777WAT     H274574   9.442   2.338   9.755
24778WAT      O74575   6.040   9.471   2.895
24778WAT     H174576   5.979   9.440   2.822
24778WAT     H274577   6.050   9.398   2.963
24779WAT      O74578   5.179   3.047   9.460
24779WAT     H174579   5.156   3.079   9.552
24779WAT     H274580   5.103   3.068   9.398
24780WAT      O74581   6.180   9.511   9.682
24780WAT     H174582   6.097   9.506   9.627
24780WAT     H274583   6.155   9.515   9.779
24781WAT      O74584   2.324   7.110   8.004
24781WAT     H174585   2.272   7.154   8.077
24781WAT     H274586   2.280   7.025   7.978
24782WAT      O74587   8.432   1.669   3.486
24782WAT     H174588   8.400   1.673   3.581
24782WAT     H274589   8.529   1.694   3.482
24783WAT      O74590   9.302   2.311   3.236
24783WAT     H174591   9.306   2.215   3.265
24783WAT     H274592   9.394   2.343   3.215
24784WAT      O74593   8.331   4.882   6.120
24784WAT     H174594   8.293   4.832   6.042
24784WAT     H274595   8.407   4.830   6.159
24785WAT      O74596   5.587   8.201   0.844
24785WAT     H174597   5.607   8.270   0.775
24785WAT     H274598   5.650   8.212   0.921
24786WAT      O74599   9.363   3.111   4.463
24786WAT     H174600   9.383   3.020   4.426
24786WAT     H274601   9.273   3.110   4.506
24787WAT      O74602   2.926   4.487   2.854
24787WAT     H174603   2.922   4.501   2.756
24787WAT     H274604   2.991   4.552   2.895
24788WAT      O74605   5.932   1.263   1.339
24788WAT     H174606   5.973   1.269   1.430
24788WAT     H274607   5.867   1.338   1.327
24789WAT      O74608   2.803   0.137   7.977
24789WAT     H174609   2.823   0.043   7.949
24789WAT     H274610   2.887   0.182   8.007
24790WAT      O74611   7.377   1.130   4.479
24790WAT     H174612   7.438   1.166   4.550
24790WAT     H274613   7.404   1.037   4.455
24791WAT      O74614   1.273   7.738   2.962
24791WAT     H174615   1.294   7.802   3.036
24791WAT     H274616   1.357   7.700   2.926
24792WAT      O74617   0.610   1.249   8.105
24792WAT     H174618   0.647   1.332   8.062
24792WAT     H274619   0.679   1.176   8.100
24793WAT      O74620   0.420   2.714   2.752
24793WAT     H174621   0.415   2.735   2.849
24793WAT     H274622   0.512   2.732   2.718
24794WAT      O74623   3.340   8.280   2.424
24794WAT     H174624   3.261   8.224   2.398
24794WAT     H274625   3.386   8.239   2.502
24795WAT      O74626   3.296   7.811   1.725
24795WAT     H174627   3.244   7.889   1.760
24795WAT     H274628   3.281   7.731   1.783
24796WAT      O74629   1.538   7.193   3.152
24796WAT     H174630   1.618   7.141   3.183
24796WAT     H274631   1.475   7.131   3.105
24797WAT      O74632   4.430   0.568   0.417
24797WAT     H174633   4.441   0.545   0.321
24797WAT     H274634   4.388   0.659   0.425
24798WAT      O74635   2.261   1.202   0.092
24798WAT     H174636   2.319   1.281   0.109
24798WAT     H274637   2.250   1.149   0.176
24799WAT      O74638   4.998   2.573   9.546
24799WAT     H174639   5.097   2.581   9.535
24799WAT     H274640   4.977   2.557   9.642
24800WAT      O74641   5.563   4.827   8.918
24800WAT     H174642   5.580   4.898   8.987
24800WAT     H274643   5.613   4.744   8.942
24801WAT      O74644   7.471   9.466   5.179
24801WAT     H174645   7.404   9.540   5.176
24801WAT     H274646   7.426   9.382   5.210
24802WAT      O74647   1.105   7.601   4.313
24802WAT     H174648   1.047   7.612   4.232
24802WAT     H274649   1.078   7.519   4.362
24803WAT      O74650   2.289   9.440   0.137
24803WAT     H174651   2.265   9.400   0.225
24803WAT     H274652   2.378   9.405   0.108
24804WAT      O74653   6.881   0.992   8.577
24804WAT     H174654   6.878   0.909   8.632
24804WAT     H274655   6.975   1.027   8.576
24805WAT      O74656   6.810   8.302   0.051
24805WAT     H174657   6.811   8.358  -0.032
24805WAT     H274658   6.888   8.327   0.109
24806WAT      O74659   8.039   2.440   6.617
24806WAT     H174660   8.135   2.424   6.639
24806WAT     H274661   7.986   2.359   6.641
24807WAT      O74662   6.620   1.191   5.068
24807WAT     H174663   6.602   1.275   5.018
24807WAT     H274664   6.545   1.127   5.054
24808WAT      O74665   6.040   5.446   9.235
24808WAT     H174666   6.105   5.429   9.161
24808WAT     H274667   6.074   5.521   9.292
24809WAT      O74668   8.589   9.136   5.165
24809WAT     H174669   8.518   9.108   5.229
24809WAT     H274670   8.555   9.130   5.072
24810WAT      O74671   1.670   3.840   7.451
24810WAT     H174672   1.745   3.852   7.386
24810WAT     H274673   1.601   3.910   7.436
24811WAT      O74674   5.983   9.660   3.132
24811WAT     H174675   6.040   9.626   3.206
24811WAT     H274676   6.000   9.606   3.049
24812WAT      O74677   0.264   7.552   9.295
24812WAT     H174678   0.290   7.461   9.262
24812WAT     H274679   0.292   7.620   9.228
24813WAT      O74680   0.900   1.842   5.977
24813WAT     H174681   0.951   1.875   5.897
24813WAT     H274682   0.952   1.861   6.060
24814WAT      O74683   5.560   5.434   2.639
24814WAT     H174684   5.545   5.523   2.597
24814WAT     H274685   5.520   5.434   2.731
24815WAT      O74686   7.325   1.343   2.109
24815WAT     H174687   7.388   1.282   2.061
24815WAT     H274688   7.375   1.398   2.175
24816WAT      O74689   6.159   8.664   8.479
24816WAT     H174690   6.160   8.689   8.383
24816WAT     H274691   6.213   8.729   8.532
24817WAT      O74692   7.798   5.159   6.831
24817WAT     H174693   7.897   5.157   6.816
24817WAT     H274694   7.777   5.114   6.918
24818WAT      O74695   1.255   7.391   9.104
24818WAT     H174696   1.316   7.427   9.175
24818WAT     H274697   1.233   7.463   9.039
24819WAT      O74698   5.959   5.296   1.125
24819WAT     H174699   6.054   5.303   1.094
24819WAT     H274700   5.933   5.200   1.133
24820WAT      O74701   3.945   1.074   3.444
24820WAT     H174702   3.850   1.098   3.466
24820WAT     H274703   4.007   1.132   3.497
24821WAT      O74704   3.179   6.833   7.244
24821WAT     H174705   3.227   6.877   7.319
24821WAT     H274706   3.082   6.856   7.248
24822WAT      O74707   7.575   1.708   7.563
24822WAT     H174708   7.548   1.634   7.623
24822WAT     H274709   7.661   1.749   7.596
24823WAT      O74710   0.145   2.890   3.137
24823WAT     H174711   0.087   2.808   3.138
24823WAT     H274712   0.096   2.965   3.091
24824WAT      O74713   6.915   2.232   0.441
24824WAT     H174714   6.846   2.244   0.369
24824WAT     H274715   6.942   2.136   0.446
24825WAT      O74716   0.825   3.075   7.825
24825WAT     H174717   0.911   3.026   7.814
24825WAT     H274718   0.783   3.089   7.735
24826WAT      O74719   0.237   3.863   6.524
24826WAT     H174720   0.150   3.901   6.492
24826WAT     H274721   0.286   3.823   6.447
24827WAT      O74722   2.716   4.035   3.903
24827WAT     H174723   2.673   4.006   3.818
24827WAT     H274724   2.754   3.956   3.950
24828WAT      O74725   0.289   0.113   3.597
24828WAT     H174726   0.269   0.015   3.594
24828WAT     H274727   0.203   0.164   3.599
24829WAT      O74728   3.832   7.718   3.870
24829WAT     H174729   3.764   7.790   3.865
24829WAT     H274730   3.867   7.699   3.778
24830WAT      O74731   4.993   7.099   9.845
24830WAT     H174732   4.962   7.194   9.849
24830WAT     H274733   5.060   7.089   9.771
24831WAT      O74734   0.611   8.738   9.410
24831WAT     H174735   0.613   8.790   9.324
24831WAT     H274736   0.638   8.643   9.392
24832WAT      O74737   6.410   0.805   7.658
24832WAT     H174738   6.472   0.874   7.695
24832WAT     H274739   6.324   0.808   7.709
24833WAT      O74740   1.135   4.142   9.587
24833WAT     H174741   1.209   4.199   9.624
24833WAT     H274742   1.142   4.050   9.625
24834WAT      O74743   1.880   3.716   7.628
24834WAT     H174744   1.937   3.657   7.569
24834WAT     H274745   1.814   3.765   7.572
24835WAT      O74746   2.654   0.633   3.488
24835WAT     H174747   2.725   0.679   3.436
24835WAT     H274748   2.619   0.556   3.435
24836WAT      O74749   9.261   6.117   9.563
24836WAT     H174750   9.186   6.068   9.607
24836WAT     H274751   9.228   6.161   9.480
24837WAT      O74752   2.576   5.463   2.137
24837WAT     H174753   2.671   5.432   2.133
24837WAT     H274754   2.567   5.536   2.204
24838WAT      O74755   7.828   5.054   3.658
24838WAT     H174756   7.761   4.999   3.709
24838WAT     H274757   7.913   5.002   3.649
24839WAT      O74758   8.864   5.410   0.773
24839WAT     H174759   8.837   5.347   0.846
24839WAT     H274760   8.830   5.502   0.793
24840WAT      O74761   9.775   2.075   4.091
24840WAT     H174762   9.689   2.094   4.044
24840WAT     H274763   9.847   2.055   4.025
24841WAT      O74764   2.353   5.467   9.665
24841WAT     H174765   2.288   5.540   9.647
24841WAT     H274766   2.383   5.471   9.760
24842WAT      O74767   5.050   9.529   4.577
24842WAT     H174768   5.010   9.566   4.493
24842WAT     H274769   4.992   9.553   4.655
24843WAT      O74770   4.715   7.322   9.111
24843WAT     H174771   4.636   7.373   9.146
24843WAT     H274772   4.704   7.305   9.013
24844WAT      O74773   6.193   9.567   6.035
24844WAT     H174774   6.268   9.505   6.057
24844WAT     H274775   6.110   9.536   6.081
24845WAT      O74776   7.929   0.267   9.012
24845WAT     H174777   7.963   0.187   8.961
24845WAT     H274778   8.000   0.336   9.017
24846WAT      O74779   8.067   6.354   0.429
24846WAT     H174780   8.070   6.330   0.332
24846WAT     H274781   8.158   6.385   0.459
24847WAT      O74782   0.846   3.158   5.059
24847WAT     H174783   0.840   3.066   5.099
24847WAT     H274784   0.942   3.187   5.057
24848WAT      O74785   8.651   2.226   2.892
24848WAT     H174786   8.578   2.288   2.918
24848WAT     H274787   8.690   2.255   2.804
24849WAT      O74788   1.277   8.413   3.429
24849WAT     H174789   1.252   8.510   3.431
24849WAT     H274790   1.200   8.359   3.396
24850WAT      O74791   9.143   7.668   5.449
24850WAT     H174792   9.130   7.738   5.378
24850WAT     H274793   9.088   7.692   5.529
24851WAT      O74794   3.807   1.981   1.834
24851WAT     H174795   3.823   2.046   1.760
24851WAT     H274796   3.852   1.894   1.813
24852WAT      O74797   4.854   1.928   4.478
24852WAT     H174798   4.903   1.955   4.561
24852WAT     H274799   4.867   1.830   4.462
24853WAT      O74800   2.497   0.344   6.166
24853WAT     H174801   2.534   0.437   6.169
24853WAT     H274802   2.527   0.299   6.082
24854WAT      O74803   9.021   9.698   7.325
24854WAT     H174804   9.104   9.715   7.378
24854WAT     H274805   9.047   9.665   7.234
24855WAT      O74806   3.461   2.893   1.265
24855WAT     H174807   3.370   2.923   1.293
24855WAT     H274808   3.525   2.905   1.341
24856WAT      O74809   7.397   2.740   8.225
24856WAT     H174810   7.321   2.708   8.169
24856WAT     H274811   7.399   2.688   8.311
24857WAT      O74812   7.954   3.326   7.721
24857WAT     H174813   7.877   3.374   7.763
24857WAT     H274814   8.037   3.381   7.729
24858WAT      O74815   5.471   9.544   6.114
24858WAT     H174816   5.384   9.498   6.131
24858WAT     H274817   5.480   9.623   6.174
24859WAT      O74818   2.320   8.707   2.525
24859WAT     H174819   2.278   8.753   2.447
24859WAT     H274820   2.408   8.750   2.546
24860WAT      O74821   5.060   0.942   5.830
24860WAT     H174822   5.101   1.018   5.780
24860WAT     H274823   5.064   0.960   5.928
24861WAT      O74824   7.611   6.020   7.040
24861WAT     H174825   7.584   6.088   6.972
24861WAT     H274826   7.542   6.014   7.111
24862WAT      O74827   2.784   0.894   5.830
24862WAT     H174828   2.839   0.972   5.861
24862WAT     H274829   2.845   0.822   5.795
24863WAT      O74830   2.995   4.699   9.785
24863WAT     H174831   3.063   4.770   9.768
24863WAT     H274832   2.948   4.717   9.872
24864WAT      O74833   4.480   4.621   3.918
24864WAT     H174834   4.578   4.643   3.923
24864WAT     H274835   4.468   4.523   3.908
24865WAT      O74836   0.254   5.948   4.978
24865WAT     H174837   0.353   5.950   4.971
24865WAT     H274838   0.224   6.008   5.052
24866WAT      O74839   2.537   0.200   7.982
24866WAT     H174840   2.519   0.293   8.014
24866WAT     H274841   2.635   0.183   7.981
24867WAT      O74842   0.529   2.066   4.328
24867WAT     H174843   0.525   1.969   4.305
24867WAT     H274844   0.473   2.118   4.263
24868WAT      O74845   2.036   5.271   9.507
24868WAT     H174846   2.136   5.269   9.501
24868WAT     H274847   1.997   5.257   9.416
24869WAT      O74848   0.692   9.071   6.116
24869WAT     H174849   0.690   9.118   6.204
24869WAT     H274850   0.773   9.012   6.112
24870WAT      O74851   5.527   7.503   6.454
24870WAT     H174852   5.430   7.525   6.456
24870WAT     H274853   5.553   7.459   6.540
24871WAT      O74854   0.020   0.848   3.929
24871WAT     H174855   0.052   0.849   4.024
24871WAT     H274856  -0.035   0.766   3.913
24872WAT      O74857   9.334   7.225   8.989
24872WAT     H174858   9.347   7.323   9.002
24872WAT     H274859   9.371   7.198   8.900
24873WAT      O74860   3.600   8.339   7.326
24873WAT     H174861   3.649   8.252   7.326
24873WAT     H274862   3.588   8.370   7.231
24874WAT      O74863   3.331   9.697   8.526
24874WAT     H174864   3.431   9.695   8.526
24874WAT     H274865   3.299   9.776   8.475
24875WAT      O74866   0.086   8.243   3.275
24875WAT     H174867   0.170   8.287   3.308
24875WAT     H274868   0.076   8.154   3.320
24876WAT      O74869   6.921   0.738   8.672
24876WAT     H174870   6.869   0.666   8.625
24876WAT     H274871   7.019   0.719   8.663
24877WAT      O74872   7.439   2.178   6.960
24877WAT     H174873   7.471   2.230   6.881
24877WAT     H274874   7.463   2.082   6.949
24878WAT      O74875   1.060   2.804   9.738
24878WAT     H174876   0.971   2.762   9.723
24878WAT     H274877   1.092   2.781   9.830
24879WAT      O74878   3.033   8.169   7.128
24879WAT     H174879   2.963   8.105   7.160
24879WAT     H274880   3.116   8.118   7.106
24880WAT      O74881   9.445   2.907   7.487
24880WAT     H174882   9.518   2.856   7.534
24880WAT     H274883   9.461   3.005   7.497
24881WAT      O74884   3.908   5.419   8.233
24881WAT     H174885   3.982   5.365   8.272
24881WAT     H274886   3.876   5.377   8.148
24882WAT      O74887   8.557   7.522   7.038
24882WAT     H174888   8.467   7.548   7.072
24882WAT     H274889   8.569   7.557   6.945
24883WAT      O74890   9.345   5.629   1.628
24883WAT     H174891   9.343   5.664   1.535
24883WAT     H274892   9.300   5.540   1.632
24884WAT      O74893   1.109   9.422   8.484
24884WAT     H174894   1.012   9.438   8.470
24884WAT     H274895   1.128   9.324   8.478
24885WAT      O74896   9.276   5.270   0.324
24885WAT     H174897   9.322   5.290   0.237
24885WAT     H274898   9.199   5.209   0.308
24886WAT      O74899   0.283   1.719   5.164
24886WAT     H174900   0.352   1.655   5.131
24886WAT     H274901   0.260   1.697   5.259
24887WAT      O74902   7.273   5.002   5.272
24887WAT     H174903   7.260   4.951   5.186
24887WAT     H274904   7.244   4.945   5.349
24888WAT      O74905   2.835   4.304   0.472
24888WAT     H174906   2.825   4.205   0.475
24888WAT     H274907   2.837   4.340   0.565
24889WAT      O74908   4.009   6.487   6.726
24889WAT     H174909   3.919   6.467   6.765
24889WAT     H274910   4.065   6.404   6.727
24890WAT      O74911   6.092   3.034   0.714
24890WAT     H174912   6.082   2.940   0.681
24890WAT     H274913   6.171   3.040   0.775
24891WAT      O74914   6.737   3.138   0.677
24891WAT     H174915   6.777   3.144   0.768
24891WAT     H274916   6.676   3.216   0.662
24892WAT      O74917   4.632   9.023   2.187
24892WAT     H174918   4.696   8.963   2.139
24892WAT     H274919   4.667   9.117   2.185
24893WAT      O74920   9.622   4.880   0.319
24893WAT     H174921   9.544   4.930   0.356
24893WAT     H274922   9.600   4.783   0.312
24894WAT      O74923   3.217   3.377   5.908
24894WAT     H174924   3.256   3.466   5.931
24894WAT     H274925   3.139   3.358   5.967
24895WAT      O74926   2.818   3.672   1.538
24895WAT     H174927   2.915   3.660   1.519
24895WAT     H274928   2.765   3.604   1.487
24896WAT      O74929   0.771   7.219   9.723
24896WAT     H174930   0.747   7.122   9.716
24896WAT     H274931   0.715   7.272   9.659
24897WAT      O74932   6.270   7.679   9.230
24897WAT     H174933   6.361   7.664   9.191
24897WAT     H274934   6.277   7.734   9.313
24898WAT      O74935   0.398   9.837   8.787
24898WAT     H174936   0.374   9.762   8.726
24898WAT     H274937   0.314   9.875   8.827
24899WAT      O74938   1.754   3.940   8.415
24899WAT     H174939   1.831   3.933   8.352
24899WAT     H274940   1.682   3.876   8.388
24900WAT      O74941   6.827   0.968   0.560
24900WAT     H174942   6.802   0.931   0.650
24900WAT     H274943   6.918   1.009   0.565
24901WAT      O74944   9.437   9.504   8.498
24901WAT     H174945   9.506   9.576   8.500
24901WAT     H274946   9.347   9.543   8.513
24902WAT      O74947   6.383   0.789   4.702
24902WAT     H174948   6.423   0.855   4.639
24902WAT     H274949   6.299   0.751   4.663
24903WAT      O74950   6.492   4.123   7.766
24903WAT     H174951   6.571   4.095   7.821
24903WAT     H274952   6.517   4.201   7.709
24904WAT      O74953   8.672   1.779   3.460
24904WAT     H174954   8.763   1.777   3.419
24904WAT     H274955   8.633   1.870   3.448
24905WAT      O74956   7.913   4.958   8.750
24905WAT     H174957   7.820   4.985   8.727
24905WAT     H274958   7.971   5.040   8.757
24906WAT      O74959   5.305   9.261   0.225
24906WAT     H174960   5.294   9.186   0.160
24906WAT     H274961   5.221   9.271   0.279
24907WAT      O74962   0.518   5.031   5.242
24907WAT     H174963   0.499   5.062   5.335
24907WAT     H274964   0.436   5.041   5.186
24908WAT      O74965   9.304   7.459   9.876
24908WAT     H174966   9.364   7.475   9.955
24908WAT     H274967   9.243   7.383   9.896
24909WAT      O74968   0.473   4.564   5.930
24909WAT     H174969   0.560   4.596   5.969
24909WAT     H274970   0.480   4.467   5.906
24910WAT      O74971   3.039   8.597   4.886
24910WAT     H174972   3.137   8.602   4.869
24910WAT     H274973   3.021   8.611   4.983
24911WAT      O74974   5.579   6.920   1.353
24911WAT     H174975   5.653   6.873   1.401
24911WAT     H274976   5.511   6.853   1.323
24912WAT      O74977   8.802   4.818   3.320
24912WAT     H174978   8.771   4.874   3.244
24912WAT     H274979   8.820   4.725   3.288
24913WAT      O74980   3.437   6.276   0.053
24913WAT     H174981   3.421   6.182   0.024
24913WAT     H274982   3.535   6.297   0.048
24914WAT      O74983   1.778   5.933   2.551
24914WAT     H174984   1.822   6.023   2.554
24914WAT     H274985   1.723   5.926   2.468
24915WAT      O74986   8.769   5.990   0.433
24915WAT     H174987   8.775   5.897   0.396
24915WAT     H274988   8.703   5.993   0.508
24916WAT      O74989   4.961   8.151   3.146
24916WAT     H174990   5.042   8.097   3.169
24916WAT     H274991   4.950   8.154   3.046
24917WAT      O74992   8.225   7.089   1.055
24917WAT     H174993   8.248   7.140   0.972
24917WAT     H274994   8.225   7.151   1.134
24918WAT      O74995   2.945   3.417   0.032
24918WAT     H174996   2.988   3.331   0.061
24918WAT     H274997   2.872   3.398  -0.033
24919WAT      O74998   2.787   4.199   7.222
24919WAT     H174999   2.807   4.230   7.129
24919WAT     H275000   2.772   4.100   7.221
24920WAT      O75001   0.094   2.715   1.508
24920WAT     H175002   0.072   2.663   1.590
24920WAT     H275003   0.028   2.693   1.436
24921WAT      O75004   0.541   6.622   1.555
24921WAT     H175005   0.523   6.561   1.478
24921WAT     H275006   0.456   6.664   1.585
24922WAT      O75007   1.204   5.231   1.405
24922WAT     H175008   1.199   5.172   1.325
24922WAT     H275009   1.155   5.189   1.481
24923WAT      O75010   0.013   2.953   7.015
24923WAT     H175011  -0.032   3.042   7.021
24923WAT     H275012   0.028   2.930   6.919
24924WAT      O75013   9.641   2.985   8.041
24924WAT     H175014   9.662   2.957   7.947
24924WAT     H275015   9.564   2.932   8.075
24925WAT      O75016   7.473   1.347   5.238
24925WAT     H175017   7.494   1.263   5.189
24925WAT     H275018   7.497   1.426   5.182
24926WAT      O75019   0.814   2.688   1.827
24926WAT     H175020   0.765   2.683   1.914
24926WAT     H275021   0.854   2.779   1.817
24927WAT      O75022   7.068   9.491   3.929
24927WAT     H175023   7.065   9.569   3.992
24927WAT     H275024   7.064   9.406   3.980
24928WAT      O75025   5.478   1.501   4.503
24928WAT     H175026   5.410   1.563   4.543
24928WAT     H275027   5.441   1.461   4.419
24929WAT      O75028   0.228   8.141   8.471
24929WAT     H175029   0.172   8.211   8.516
24929WAT     H275030   0.301   8.186   8.419
24930WAT      O75031   3.793   6.904   9.294
24930WAT     H175032   3.804   6.849   9.377
24930WAT     H275033   3.706   6.882   9.251
24931WAT      O75034   7.338   1.151   7.642
24931WAT     H175035   7.382   1.239   7.631
24931WAT     H275036   7.344   1.121   7.737
24932WAT      O75037   7.767   1.101   8.694
24932WAT     H175038   7.772   1.002   8.679
24932WAT     H275039   7.786   1.149   8.609
24933WAT      O75040   8.430   8.586   3.486
24933WAT     H175041   8.416   8.545   3.395
24933WAT     H275042   8.406   8.683   3.481
24934WAT      O75043   4.589   6.914   1.917
24934WAT     H175044   4.511   6.919   1.978
24934WAT     H275045   4.565   6.954   1.829
24935WAT      O75046   7.216   4.926   0.954
24935WAT     H175047   7.299   4.893   0.909
24935WAT     H275048   7.142   4.862   0.938
24936WAT      O75049   7.933   2.949   0.997
24936WAT     H175050   8.030   2.963   0.977
24936WAT     H275051   7.877   3.007   0.938
24937WAT      O75052   8.197   0.685   1.150
24937WAT     H175053   8.137   0.744   1.203
24937WAT     H275054   8.291   0.718   1.157
24938WAT      O75055   1.768   9.146   2.456
24938WAT     H175056   1.722   9.163   2.369
24938WAT     H275057   1.712   9.181   2.531
24939WAT      O75058   7.087   4.246   2.070
24939WAT     H175059   7.027   4.169   2.049
24939WAT     H275060   7.139   4.271   1.989
24940WAT      O75061   9.724   0.080   1.417
24940WAT     H175062   9.636   0.113   1.383
24940WAT     H275063   9.798   0.128   1.369
24941WAT      O75064   9.488   5.957   8.347
24941WAT     H175065   9.464   5.985   8.440
24941WAT     H275066   9.459   6.027   8.282
24942WAT      O75067   7.494   7.955   0.862
24942WAT     H175068   7.512   7.928   0.767
24942WAT     H275069   7.575   7.939   0.918
24943WAT      O75070   4.001   2.246   8.715
24943WAT     H175071   4.086   2.298   8.724
24943WAT     H275072   3.931   2.288   8.772
24944WAT      O75073   0.956   0.949   6.950
24944WAT     H175074   0.901   0.906   7.021
24944WAT     H275075   0.966   0.887   6.873
24945WAT      O75076   0.978   1.028   5.757
24945WAT     H175077   1.069   0.988   5.772
24945WAT     H275078   0.951   1.080   5.837
24946WAT      O75079   6.063   1.531   3.406
24946WAT     H175080   6.084   1.610   3.464
24946WAT     H275081   6.138   1.465   3.411
24947WAT      O75082   2.501   4.466   2.278
24947WAT     H175083   2.576   4.480   2.213
24947WAT     H275084   2.539   4.454   2.370
24948WAT      O75085   1.360   2.488   9.625
24948WAT     H175086   1.416   2.417   9.583
24948WAT     H275087   1.392   2.578   9.596
24949WAT      O75088   2.425   3.291   5.829
24949WAT     H175089   2.474   3.294   5.742
24949WAT     H275090   2.491   3.297   5.905
24950WAT      O75091   5.215   4.088   7.108
24950WAT     H175092   5.253   4.165   7.159
24950WAT     H275093   5.196   4.116   7.014
24951WAT      O75094   5.614   3.334   1.601
24951WAT     H175095   5.556   3.255   1.618
24951WAT     H275096   5.558   3.410   1.568
24952WAT      O75097   3.663   6.327   8.201
24952WAT     H175098   3.741   6.341   8.141
24952WAT     H275099   3.637   6.414   8.245
24953WAT      O75100   9.518   0.086   1.224
24953WAT     H175101   9.512   0.155   1.152
24953WAT     H275102   9.441   0.023   1.216
24954WAT      O75103   3.784   1.945   3.868
24954WAT     H175104   3.762   2.024   3.925
24954WAT     H275105   3.720   1.871   3.889
24955WAT      O75106   7.477   0.088   5.318
24955WAT     H175107   7.536   0.031   5.260
24955WAT     H275108   7.403   0.032   5.354
24956WAT      O75109   1.295   9.704   2.806
24956WAT     H175110   1.259   9.729   2.717
24956WAT     H275111   1.226   9.653   2.857
24957WAT      O75112   0.946   8.211   4.364
24957WAT     H175113   1.012   8.248   4.299
24957WAT     H275114   0.966   8.247   4.456
24958WAT      O75115   8.474   7.170   8.481
24958WAT     H175116   8.571   7.189   8.464
24958WAT     H275117   8.462   7.072   8.497
24959WAT      O75118   9.638   9.337   1.526
24959WAT     H175119   9.712   9.359   1.462
24959WAT     H275120   9.676   9.326   1.618
24960WAT      O75121   7.180   7.685   5.073
24960WAT     H175122   7.193   7.674   5.172
24960WAT     H275123   7.083   7.701   5.054
24961WAT      O75124   6.771   2.512   8.898
24961WAT     H175125   6.748   2.431   8.845
24961WAT     H275126   6.856   2.552   8.863
24962WAT      O75127   6.228   7.131   4.580
24962WAT     H175128   6.213   7.143   4.678
24962WAT     H275129   6.144   7.096   4.538
24963WAT      O75130   6.645   5.250   7.130
24963WAT     H175131   6.594   5.164   7.134
24963WAT     H275132   6.743   5.231   7.125
24964WAT      O75133   6.266   7.225   5.093
24964WAT     H175134   6.346   7.183   5.135
24964WAT     H275135   6.211   7.271   5.163
24965WAT      O75136   0.541   7.556   9.785
24965WAT     H175137   0.460   7.574   9.729
24965WAT     H275138   0.533   7.604   9.873
24966WAT      O75139   5.511   3.305   2.996
24966WAT     H175140   5.419   3.331   2.966
24966WAT     H275141   5.513   3.299   3.096
24967WAT      O75142   2.767   7.863   3.680
24967WAT     H175143   2.685   7.845   3.626
24967WAT     H275144   2.799   7.777   3.721
24968WAT      O75145   8.653   2.134   4.326
24968WAT     H175146   8.577   2.080   4.291
24968WAT     H275147   8.730   2.128   4.263
24969WAT      O75148   1.390   2.326   0.811
24969WAT     H175149   1.330   2.373   0.875
24969WAT     H275150   1.416   2.237   0.849
24970WAT      O75151   0.512   1.033   1.636
24970WAT     H175152   0.448   0.976   1.585
24970WAT     H275153   0.556   1.097   1.575
24971WAT      O75154   1.785   8.579   3.038
24971WAT     H175155   1.816   8.536   2.953
24971WAT     H275156   1.773   8.509   3.108
24972WAT      O75157   3.052   5.429   5.049
24972WAT     H175158   3.078   5.342   5.007
24972WAT     H275159   3.119   5.453   5.119
24973WAT      O75160   5.301   6.463   0.222
24973WAT     H175161   5.360   6.507   0.154
24973WAT     H275162   5.356   6.437   0.302
24974WAT      O75163   9.039   0.726   6.748
24974WAT     H175164   9.007   0.812   6.708
24974WAT     H275165   9.138   0.718   6.735
24975WAT      O75166   7.720   6.381   6.472
24975WAT     H175167   7.801   6.326   6.495
24975WAT     H275168   7.652   6.370   6.545
24976WAT      O75169   3.231   7.460   3.542
24976WAT     H175170   3.253   7.364   3.528
24976WAT     H275171   3.312   7.516   3.525
24977WAT      O75172   8.646   3.565   5.993
24977WAT     H175173   8.585   3.573   5.914
24977WAT     H275174   8.600   3.602   6.074
24978WAT      O75175   6.670   4.955   1.805
24978WAT     H175176   6.598   4.944   1.737
24978WAT     H275177   6.643   4.909   1.890
24979WAT      O75178   1.853   1.950   9.123
24979WAT     H175179   1.821   1.856   9.126
24979WAT     H275180   1.936   1.959   9.179
24980WAT      O75181   5.709   0.013   2.453
24980WAT     H175182   5.663   0.085   2.505
24980WAT     H275183   5.731  -0.063   2.514
24981WAT      O75184   2.912   1.531   1.601
24981WAT     H175185   2.953   1.469   1.534
24981WAT     H275186   2.875   1.611   1.554
24982WAT      O75187   7.406   5.324   2.568
24982WAT     H175188   7.313   5.363   2.567
24982WAT     H275189   7.467   5.387   2.616
24983WAT      O75190   2.202   1.867   3.299
24983WAT     H175191   2.105   1.845   3.306
24983WAT     H275192   2.215   1.965   3.316
24984WAT      O75193   4.549   4.444   7.786
24984WAT     H175194   4.488   4.431   7.865
24984WAT     H275195   4.643   4.456   7.819
24985WAT      O75196   8.877   4.252   7.171
24985WAT     H175197   8.949   4.322   7.175
24985WAT     H275198   8.803   4.277   7.232
24986WAT      O75199   8.238   5.413   3.359
24986WAT     H175200   8.207   5.441   3.268
24986WAT     H275201   8.158   5.387   3.414
24987WAT      O75202   0.888   5.223   5.628
24987WAT     H175203   0.838   5.280   5.563
24987WAT     H275204   0.871   5.126   5.607
24988WAT      O75205   1.008   1.208   8.670
24988WAT     H175206   0.941   1.215   8.596
24988WAT     H275207   1.062   1.124   8.659
24989WAT      O75208   9.186   6.262   0.420
24989WAT     H175209   9.180   6.335   0.489
24989WAT     H275210   9.211   6.301   0.332
24990WAT      O75211   4.088   1.662   4.843
24990WAT     H175212   4.016   1.674   4.774
24990WAT     H275213   4.075   1.728   4.916
24991WAT      O75214   0.664   5.874   4.363
24991WAT     H175215   0.589   5.825   4.319
24991WAT     H275216   0.669   5.967   4.326
24992WAT      O75217   1.253   0.467   6.647
24992WAT     H175218   1.325   0.530   6.618
24992WAT     H275219   1.199   0.509   6.720
24993WAT      O75220   3.803   9.406   0.360
24993WAT     H175221   3.878   9.402   0.426
24993WAT     H275222   3.786   9.314   0.323
24994WAT      O75223   4.213   3.669   8.197
24994WAT     H175224   4.310   3.687   8.178
24994WAT     H275225   4.201   3.649   8.294
24995WAT      O75226   8.430   7.024   3.509
24995WAT     H175227   8.473   7.018   3.600
24995WAT     H275228   8.361   7.096   3.510
24996WAT      O75229   2.525   9.572   8.109
24996WAT     H175230   2.446   9.511   8.118
24996WAT     H275231   2.601   9.537   8.164
24997WAT      O75232   1.480   4.038   7.378
24997WAT     H175233   1.467   4.114   7.440
24997WAT     H275234   1.526   4.070   7.295
24998WAT      O75235   9.365   9.595   9.681
24998WAT     H175236   9.357   9.495   9.674
24998WAT     H275237   9.295   9.629   9.744
24999WAT      O75238   4.113   4.847   2.323
24999WAT     H175239   4.101   4.942   2.297
24999WAT     H275240   4.153   4.842   2.415
25000WAT      O75241   0.317   5.419   0.170
25000WAT     H175242   0.258   5.484   0.122
25000WAT     H275243   0.357   5.355   0.104
25001WAT      O75244   4.982   6.054   8.286
25001WAT     H175245   5.068   6.086   8.327
25001WAT     H275246   4.910   6.055   8.355
25002WAT      O75247   6.280   8.077   7.925
25002WAT     H175248   6.290   8.091   7.826
25002WAT     H275249   6.360   8.028   7.960
25003WAT      O75250   9.395   0.941   0.759
25003WAT     H175251   9.429   0.856   0.798
25003WAT     H275252   9.417   0.944   0.661
25004WAT      O75253   8.929   3.074   8.701
25004WAT     H175254   8.849   3.019   8.725
25004WAT     H275255   8.906   3.137   8.628
25005WAT      O75256   4.114   0.806   2.785
25005WAT     H175257   4.114   0.706   2.780
25005WAT     H275258   4.197   0.836   2.831
25006WAT      O75259   3.006   3.869   3.339
25006WAT     H175260   3.001   3.801   3.412
25006WAT     H275261   3.098   3.909   3.336
25007WAT      O75262   3.218   2.970   4.856
25007WAT     H175263   3.276   2.974   4.937
25007WAT     H275264   3.233   3.052   4.800
25008WAT      O75265   2.130   7.995   1.171
25008WAT     H175266   2.130   7.968   1.267
25008WAT     H275267   2.160   8.090   1.163
25009WAT      O75268   4.210   6.699   3.658
25009WAT     H175269   4.174   6.743   3.740
25009WAT     H275270   4.244   6.769   3.595
25010WAT      O75271   6.098   4.274   0.463
25010WAT     H175272   6.064   4.180   0.456
25010WAT     H275273   6.063   4.315   0.547
25011WAT      O75274   0.436   6.046   3.177
25011WAT     H175275   0.446   6.015   3.272
25011WAT     H275276   0.431   5.967   3.117
25012WAT      O75277   2.196   1.036   0.319
25012WAT     H175278   2.243   1.074   0.399
25012WAT     H275279   2.106   1.003   0.347
25013WAT      O75280   6.701   2.052   0.617
25013WAT     H175281   6.675   1.964   0.576
25013WAT     H275282   6.764   2.035   0.693
25014WAT      O75283   9.231   8.777   0.777
25014WAT     H175284   9.224   8.875   0.757
25014WAT     H275285   9.301   8.763   0.848
25015WAT      O75286   8.134   5.421   8.128
25015WAT     H175287   8.108   5.512   8.161
25015WAT     H275288   8.178   5.430   8.039
25016WAT      O75289   3.899   0.869   2.588
25016WAT     H175290   3.905   0.948   2.528
25016WAT     H275291   3.977   0.867   2.650
25017WAT      O75292   7.375   7.225   6.654
25017WAT     H175293   7.309   7.284   6.606
25017WAT     H275294   7.395   7.145   6.598
25018WAT      O75295   5.721   4.940   3.477
25018WAT     H175296   5.724   4.841   3.479
25018WAT     H275297   5.665   4.973   3.553
25019WAT      O75298   4.286   9.353   5.092
25019WAT     H175299   4.273   9.451   5.083
25019WAT     H275300   4.282   9.327   5.189
25020WAT      O75301   4.535   8.953   9.716
25020WAT     H175302   4.625   8.920   9.688
25020WAT     H275303   4.481   8.975   9.635
25021WAT      O75304   2.022   2.926   2.642
25021WAT     H175305   2.102   2.957   2.692
25021WAT     H275306   2.051   2.879   2.558
25022WAT      O75307   2.292   5.063   7.737
25022WAT     H175308   2.282   5.034   7.641
25022WAT     H275309   2.319   5.159   7.740
25023WAT      O75310   2.067   8.019   2.399
25023WAT     H175311   2.103   7.956   2.468
25023WAT     H275312   1.967   8.019   2.403
25024WAT      O75313   1.965   2.937   1.410
25024WAT     H175314   1.998   2.849   1.377
25024WAT     H275315   1.895   2.923   1.480
25025WAT      O75316   2.414   4.181   2.481
25025WAT     H175317   2.402   4.093   2.526
25025WAT     H275318   2.398   4.254   2.547
25026WAT      O75319   8.562   5.746   2.072
25026WAT     H175320   8.583   5.759   1.975
25026WAT     H275321   8.500   5.818   2.103
25027WAT      O75322   3.718   2.341   4.443
25027WAT     H175323   3.626   2.311   4.469
25027WAT     H275324   3.753   2.282   4.371
25028WAT      O75325   9.836   7.196   6.564
25028WAT     H175326   9.855   7.232   6.473
25028WAT     H275327   9.864   7.263   6.633
25029WAT      O75328   7.971   8.528   6.524
25029WAT     H175329   8.064   8.521   6.486
25029WAT     H275330   7.969   8.484   6.615
25030WAT      O75331   7.539   8.610   6.765
25030WAT     H175332   7.455   8.653   6.731
25030WAT     H275333   7.522   8.513   6.781
25031WAT      O75334   7.355   6.123   4.422
25031WAT     H175335   7.454   6.114   4.425
25031WAT     H275336   7.313   6.055   4.482
25032WAT      O75337   8.389   6.042   7.186
25032WAT     H175338   8.442   6.054   7.269
25032WAT     H275339   8.437   5.980   7.124
25033WAT      O75340   3.703   2.270   1.350
25033WAT     H175341   3.649   2.350   1.376
25033WAT     H275342   3.651   2.215   1.285
25034WAT      O75343   4.014   0.959   0.741
25034WAT     H175344   3.945   1.025   0.771
25034WAT     H275345   4.073   0.935   0.819
25035WAT      O75346   2.337   2.142   2.757
25035WAT     H175347   2.287   2.106   2.836
25035WAT     H275348   2.353   2.240   2.770
25036WAT      O75349   8.389   5.206   3.766
25036WAT     H175350   8.450   5.271   3.812
25036WAT     H275351   8.399   5.214   3.667
25037WAT      O75352   6.649   5.068   0.789
25037WAT     H175353   6.595   5.134   0.841
25037WAT     H275354   6.713   5.117   0.730
25038WAT      O75355   0.414   8.918   2.789
25038WAT     H175356   0.323   8.953   2.811
25038WAT     H275357   0.471   8.918   2.872
25039WAT      O75358   2.005   4.824   6.167
25039WAT     H175359   2.068   4.839   6.091
25039WAT     H275360   2.032   4.880   6.245
25040WAT      O75361   9.322   3.863   9.148
25040WAT     H175362   9.257   3.930   9.183
25040WAT     H275363   9.274   3.778   9.127
25041WAT      O75364   9.636   9.100   6.683
25041WAT     H175365   9.626   9.001   6.669
25041WAT     H275366   9.634   9.146   6.594
25042WAT      O75367   6.679   3.045   6.651
25042WAT     H175368   6.655   2.948   6.641
25042WAT     H275369   6.727   3.076   6.569
25043WAT      O75370   2.452   3.959   2.078
25043WAT     H175371   2.377   3.908   2.120
25043WAT     H275372   2.477   4.036   2.137
25044WAT      O75373   6.199   6.326   8.794
25044WAT     H175374   6.233   6.381   8.870
25044WAT     H275375   6.099   6.328   8.793
25045WAT      O75376   9.544   6.435   0.571
25045WAT     H175377   9.553   6.397   0.663
25045WAT     H275378   9.447   6.448   0.550
25046WAT      O75379   5.511   0.440   7.333
25046WAT     H175380   5.505   0.536   7.305
25046WAT     H275381   5.440   0.421   7.401
25047WAT      O75382   5.531   4.828   8.264
25047WAT     H175383   5.568   4.782   8.184
25047WAT     H275384   5.595   4.819   8.341
25048WAT      O75385   0.431   8.051   1.497
25048WAT     H175386   0.406   8.086   1.406
25048WAT     H275387   0.467   8.126   1.552
25049WAT      O75388   8.890   2.631   3.866
25049WAT     H175389   8.847   2.572   3.798
25049WAT     H275390   8.970   2.676   3.825
25050WAT      O75391   0.447   9.223   8.373
25050WAT     H175392   0.451   9.262   8.465
25050WAT     H275393   0.539   9.214   8.336
25051WAT      O75394   8.277   7.902   8.134
25051WAT     H175395   8.211   7.902   8.209
25051WAT     H275396   8.367   7.877   8.168
25052WAT      O75397   2.594   3.083   5.102
25052WAT     H175398   2.533   3.161   5.114
25052WAT     H275399   2.569   3.034   5.018
25053WAT      O75400   5.527   5.526   1.235
25053WAT     H175401   5.612   5.484   1.266
25053WAT     H275402   5.538   5.626   1.234
25054WAT      O75403   6.981   2.406   7.636
25054WAT     H175404   6.986   2.485   7.697
25054WAT     H275405   7.053   2.412   7.567
25055WAT      O75406   3.082   7.261   9.768
25055WAT     H175407   2.997   7.297   9.806
25055WAT     H275408   3.073   7.162   9.752
25056WAT      O75409   7.832   4.984   1.692
25056WAT     H175410   7.842   4.886   1.713
25056WAT     H275411   7.835   5.036   1.777
25057WAT      O75412   2.385   3.086   9.459
25057WAT     H175413   2.410   3.001   9.413
25057WAT     H275414   2.441   3.161   9.423
25058WAT      O75415   0.382   7.593   9.566
25058WAT     H175416   0.475   7.625   9.550
25058WAT     H275417   0.329   7.605   9.482
25059WAT      O75418   8.978   2.535   2.925
25059WAT     H175419   8.973   2.458   2.861
25059WAT     H275420   8.886   2.568   2.945
25060WAT      O75421   2.086   6.989   2.766
25060WAT     H175422   2.144   7.040   2.829
25060WAT     H275423   2.079   6.894   2.796
25061WAT      O75424   7.365   0.396   0.220
25061WAT     H175425   7.275   0.354   0.213
25061WAT     H275426   7.413   0.360   0.301
25062WAT      O75427   1.155   0.383   5.624
25062WAT     H175428   1.098   0.462   5.602
25062WAT     H275429   1.121   0.303   5.575
25063WAT      O75430   1.014   7.636   2.908
25063WAT     H175431   1.099   7.688   2.911
25063WAT     H275432   0.946   7.686   2.854
25064WAT      O75433   6.529   1.856   5.524
25064WAT     H175434   6.573   1.796   5.590
25064WAT     H275435   6.599   1.901   5.468
25065WAT      O75436   5.498   7.451   1.161
25065WAT     H175437   5.428   7.465   1.231
25065WAT     H275438   5.463   7.481   1.072
25066WAT      O75439   8.520   5.774   0.096
25066WAT     H175440   8.445   5.830   0.061
25066WAT     H275441   8.597   5.833   0.121
25067WAT      O75442   1.238   1.879   6.515
25067WAT     H175443   1.263   1.809   6.448
25067WAT     H275444   1.152   1.921   6.489
25068WAT      O75445   3.050   7.337   0.163
25068WAT     H175446   3.086   7.409   0.222
25068WAT     H275447   3.053   7.249   0.211
25069WAT      O75448   0.662   7.706   7.719
25069WAT     H175449   0.735   7.756   7.673
25069WAT     H275450   0.702   7.633   7.774
25070WAT      O75451   5.785   9.677   9.888
25070WAT     H175452   5.744   9.768   9.884
25070WAT     H275453   5.819   9.651   9.797
25071WAT      O75454   9.544   6.175   8.655
25071WAT     H175455   9.643   6.160   8.648
25071WAT     H275456   9.496   6.089   8.636
25072WAT      O75457   3.189   0.572   6.346
25072WAT     H175458   3.251   0.508   6.390
25072WAT     H275459   3.228   0.664   6.348
25073WAT      O75460   7.901   9.378   4.491
25073WAT     H175461   7.862   9.335   4.409
25073WAT     H275462   7.996   9.402   4.474
25074WAT      O75463   2.151   3.351   4.929
25074WAT     H175464   2.094   3.273   4.953
25074WAT     H275465   2.129   3.428   4.988
25075WAT      O75466   7.145   5.421   2.624
25075WAT     H175467   7.092   5.393   2.704
25075WAT     H275468   7.157   5.520   2.625
25076WAT      O75469   3.247   0.118   6.720
25076WAT     H175470   3.177   0.067   6.669
25076WAT     H275471   3.311   0.160   6.655
25077WAT      O75472   1.420   8.934   1.755
25077WAT     H175473   1.333   8.885   1.748
25077WAT     H275474   1.482   8.902   1.683
25078WAT      O75475   5.093   3.542   7.160
25078WAT     H175476   5.061   3.569   7.251
25078WAT     H275477   5.018   3.499   7.111
25079WAT      O75478   6.143   7.209   9.664
25079WAT     H175479   6.238   7.230   9.639
25079WAT     H275480   6.132   7.110   9.672
25080WAT      O75481   2.127   7.968   3.396
25080WAT     H175482   2.177   7.898   3.447
25080WAT     H275483   2.105   7.933   3.305
25081WAT      O75484   2.467   2.365   5.157
25081WAT     H175485   2.492   2.268   5.161
25081WAT     H275486   2.368   2.373   5.164
25082WAT      O75487   4.867   6.283   4.150
25082WAT     H175488   4.956   6.273   4.194
25082WAT     H275489   4.869   6.241   4.059
25083WAT      O75490   4.873   0.565   2.615
25083WAT     H175491   4.940   0.565   2.690
25083WAT     H275492   4.912   0.610   2.535
25084WAT      O75493   4.928   0.270   8.261
25084WAT     H175494   4.885   0.242   8.175
25084WAT     H275495   4.924   0.193   8.326
25085WAT      O75496   5.981   9.786   9.663
25085WAT     H175497   6.003   9.729   9.583
25085WAT     H275498   5.884   9.809   9.661
25086WAT      O75499   4.397   1.807   1.159
25086WAT     H175500   4.411   1.716   1.120
25086WAT     H275501   4.481   1.861   1.148
25087WAT      O75502   2.268   7.412   1.042
25087WAT     H175503   2.282   7.475   1.118
25087WAT     H275504   2.295   7.457   0.956
25088WAT      O75505   0.765   0.777   5.078
25088WAT     H175506   0.724   0.689   5.058
25088WAT     H275507   0.772   0.831   4.994
25089WAT      O75508   3.852   8.630   8.668
25089WAT     H175509   3.893   8.564   8.731
25089WAT     H275510   3.756   8.643   8.690
25090WAT      O75511   7.512   4.133   6.585
25090WAT     H175512   7.483   4.040   6.563
25090WAT     H275513   7.431   4.192   6.589
25091WAT      O75514   3.096   7.404   1.936
25091WAT     H175515   3.004   7.392   1.899
25091WAT     H275516   3.093   7.396   2.036
25092WAT      O75517   5.187   3.818   8.214
25092WAT     H175518   5.246   3.877   8.269
25092WAT     H275519   5.130   3.875   8.155
25093WAT      O75520   1.349   8.111   4.649
25093WAT     H175521   1.442   8.093   4.680
25093WAT     H275522   1.308   8.182   4.706
25094WAT      O75523   8.567   4.730   8.567
25094WAT     H175524   8.550   4.706   8.662
25094WAT     H275525   8.491   4.697   8.510
25095WAT      O75526   2.332   3.883   8.747
25095WAT     H175527   2.253   3.885   8.686
25095WAT     H275528   2.323   3.953   8.817
25096WAT      O75529   3.262   2.900   6.705
25096WAT     H175530   3.244   2.831   6.775
25096WAT     H275531   3.307   2.858   6.626
25097WAT      O75532   9.454   1.624   4.660
25097WAT     H175533   9.460   1.723   4.646
25097WAT     H275534   9.487   1.601   4.751
25098WAT      O75535   5.517   0.723   1.011
25098WAT     H175536   5.565   0.646   0.970
25098WAT     H275537   5.464   0.771   0.942
25099WAT      O75538   3.860   8.489   2.392
25099WAT     H175539   3.770   8.530   2.376
25099WAT     H275540   3.865   8.458   2.487
25100WAT      O75541   8.881   5.846   7.529
25100WAT     H175542   8.931   5.781   7.587
25100WAT     H275543   8.793   5.807   7.503
25101WAT      O75544   9.722   3.553   4.174
25101WAT     H175545   9.654   3.582   4.240
25101WAT     H275546   9.682   3.484   4.113
25102WAT      O75547   1.775   3.045   1.113
25102WAT     H175548   1.746   2.963   1.063
25102WAT     H275549   1.846   3.092   1.062
25103WAT      O75550   5.783   6.994   8.853
25103WAT     H175551   5.722   6.925   8.892
25103WAT     H275552   5.749   7.085   8.874
25104WAT      O75553   7.089   0.403   0.499
25104WAT     H175554   7.165   0.466   0.512
25104WAT     H275555   7.124   0.309   0.491
25105WAT      O75556   1.503   9.751   0.699
25105WAT     H175557   1.422   9.791   0.743
25105WAT     H275558   1.509   9.783   0.605
25106WAT      O75559   4.256   1.838   6.028
25106WAT     H175560   4.244   1.921   6.082
25106WAT     H275561   4.201   1.844   5.944
25107WAT      O75562   4.270   3.427   7.391
25107WAT     H175563   4.319   3.349   7.430
25107WAT     H275564   4.309   3.512   7.427
25108WAT      O75565   0.712   3.552   8.570
25108WAT     H175566   0.771   3.475   8.590
25108WAT     H275567   0.731   3.586   8.477
25109WAT      O75568   6.929   8.230   2.810
25109WAT     H175569   6.854   8.226   2.744
25109WAT     H275570   6.924   8.151   2.871
25110WAT      O75571   9.095   2.652   7.009
25110WAT     H175572   9.041   2.582   6.963
25110WAT     H275573   9.191   2.623   7.013
25111WAT      O75574   3.403   7.068   6.845
25111WAT     H175575   3.472   7.116   6.792
25111WAT     H275576   3.387   6.977   6.805
25112WAT      O75577   4.562   1.458   5.218
25112WAT     H175578   4.644   1.421   5.261
25112WAT     H275579   4.570   1.557   5.210
25113WAT      O75580   5.013   8.454   0.336
25113WAT     H175581   4.957   8.528   0.301
25113WAT     H275582   5.085   8.491   0.395
25114WAT      O75583   3.853   7.689   3.583
25114WAT     H175584   3.811   7.756   3.521
25114WAT     H275585   3.874   7.605   3.533
25115WAT      O75586   2.560   6.796   3.383
25115WAT     H175587   2.630   6.755   3.325
25115WAT     H275588   2.506   6.725   3.427
25116WAT      O75589   5.748   3.059   1.977
25116WAT     H175590   5.754   3.158   1.964
25116WAT     H275591   5.837   3.018   1.960
25117WAT      O75592   4.056   2.187   7.499
25117WAT     H175593   4.056   2.182   7.599
25117WAT     H275594   4.042   2.282   7.471
25118WAT      O75595   2.900   3.986   8.839
25118WAT     H175596   2.898   3.933   8.923
25118WAT     H275597   2.994   4.014   8.819
25119WAT      O75598   3.742   3.082   1.552
25119WAT     H175599   3.749   3.178   1.525
25119WAT     H275600   3.813   3.029   1.505
25120WAT      O75601   4.851   4.137   7.069
25120WAT     H175602   4.880   4.095   7.155
25120WAT     H275603   4.860   4.070   6.995
25121WAT      O75604   1.597   9.542   6.229
25121WAT     H175605   1.603   9.635   6.265
25121WAT     H275606   1.511   9.501   6.259
25122WAT      O75607   0.473   5.916   7.535
25122WAT     H175608   0.568   5.948   7.532
25122WAT     H275609   0.463   5.848   7.607
25123WAT      O75610   7.855   0.679   7.059
25123WAT     H175611   7.766   0.699   7.018
25123WAT     H275612   7.920   0.751   7.035
25124WAT      O75613   1.712   8.682   7.798
25124WAT     H175614   1.626   8.677   7.849
25124WAT     H275615   1.692   8.678   7.700
25125WAT      O75616   7.482   2.015   9.640
25125WAT     H175617   7.575   1.980   9.632
25125WAT     H275618   7.460   2.071   9.560
25126WAT      O75619   8.885   3.067   5.487
25126WAT     H175620   8.945   3.146   5.485
25126WAT     H275621   8.909   3.008   5.564
25127WAT      O75622   0.528   6.253   7.392
25127WAT     H175623   0.568   6.345   7.393
25127WAT     H275624   0.470   6.241   7.473
25128WAT      O75625   5.333   0.205   9.227
25128WAT     H175626   5.402   0.276   9.210
25128WAT     H275627   5.253   0.223   9.170
25129WAT      O75628   4.274   7.278   3.217
25129WAT     H175629   4.364   7.240   3.194
25129WAT     H275630   4.252   7.255   3.312
25130WAT      O75631   6.864   3.371   4.938
25130WAT     H175632   6.812   3.383   5.023
25130WAT     H275633   6.937   3.439   4.933
25131WAT      O75634   6.814   8.600   1.857
25131WAT     H175635   6.851   8.622   1.767
25131WAT     H275636   6.714   8.590   1.851
25132WAT      O75637   9.228   7.243   8.434
25132WAT     H175638   9.325   7.221   8.440
25132WAT     H275639   9.204   7.260   8.338
25133WAT      O75640   9.080   0.224   0.376
25133WAT     H175641   9.071   0.125   0.387
25133WAT     H275642   9.176   0.250   0.390
25134WAT      O75643   7.607   3.297   0.301
25134WAT     H175644   7.512   3.326   0.314
25134WAT     H275645   7.669   3.372   0.326
25135WAT      O75646   5.391   2.194   0.820
25135WAT     H175647   5.313   2.176   0.759
25135WAT     H275648   5.373   2.277   0.873
25136WAT      O75649   6.093   2.528   7.687
25136WAT     H175650   6.044   2.614   7.700
25136WAT     H275651   6.028   2.452   7.684
25137WAT      O75652   1.811   4.178   9.016
25137WAT     H175653   1.889   4.221   8.971
25137WAT     H275654   1.726   4.215   8.977
25138WAT      O75655   4.098   1.147   8.164
25138WAT     H175656   4.122   1.121   8.257
25138WAT     H275657   4.181   1.146   8.107
25139WAT      O75658   3.722   1.608   3.237
25139WAT     H175659   3.793   1.633   3.172
25139WAT     H275660   3.758   1.611   3.330
25140WAT      O75661   1.250   3.313   8.650
25140WAT     H175662   1.310   3.339   8.575
25140WAT     H275663   1.250   3.214   8.661
25141WAT      O75664   1.984   8.275   9.221
25141WAT     H175665   1.951   8.190   9.181
25141WAT     H275666   2.000   8.343   9.149
25142WAT      O75667   1.580   0.128   4.992
25142WAT     H175668   1.593   0.161   4.899
25142WAT     H275669   1.494   0.078   4.999
25143WAT      O75670   7.315   4.331   6.621
25143WAT     H175671   7.382   4.390   6.666
25143WAT     H275672   7.303   4.361   6.526
25144WAT      O75673   6.920   0.361   4.921
25144WAT     H175674   6.948   0.295   4.851
25144WAT     H275675   6.834   0.404   4.894
25145WAT      O75676   7.356   8.409   3.250
25145WAT     H175677   7.449   8.397   3.283
25145WAT     H275678   7.307   8.473   3.309
25146WAT      O75679   7.800   4.956   1.224
25146WAT     H175680   7.863   4.992   1.155
25146WAT     H275681   7.784   4.859   1.208
25147WAT      O75682   4.934   5.991   7.198
25147WAT     H175683   4.942   5.901   7.153
25147WAT     H275684   4.987   6.058   7.147
25148WAT      O75685   6.234   3.337   6.509
25148WAT     H175686   6.306   3.309   6.445
25148WAT     H275687   6.167   3.393   6.460
25149WAT      O75688   4.117   8.297   2.201
25149WAT     H175689   4.178   8.290   2.280
25149WAT     H275690   4.171   8.298   2.117
25150WAT      O75691   3.126   5.889   2.534
25150WAT     H175692   3.066   5.917   2.459
25150WAT     H275693   3.129   5.960   2.604
25151WAT      O75694   5.242   5.410   6.804
25151WAT     H175695   5.253   5.470   6.726
25151WAT     H275696   5.184   5.332   6.779
25152WAT      O75697   3.219   2.582   4.419
25152WAT     H175698   3.160   2.639   4.362
25152WAT     H275699   3.214   2.487   4.389
25153WAT      O75700   4.675   3.614   3.080
25153WAT     H175701   4.659   3.517   3.099
25153WAT     H275702   4.664   3.666   3.164
25154WAT      O75703   2.095   6.411   1.146
25154WAT     H175704   2.037   6.387   1.223
25154WAT     H275705   2.152   6.333   1.122
25155WAT      O75706   7.225   3.319   2.672
25155WAT     H175707   7.231   3.226   2.710
25155WAT     H275708   7.304   3.336   2.614
25156WAT      O75709   1.731   8.983   0.575
25156WAT     H175710   1.681   9.067   0.598
25156WAT     H275711   1.698   8.948   0.487
25157WAT      O75712   7.857   8.860   5.153
25157WAT     H175713   7.801   8.826   5.077
25157WAT     H275714   7.802   8.862   5.236
25158WAT      O75715   8.688   6.851   6.814
25158WAT     H175716   8.680   6.761   6.770
25158WAT     H275717   8.611   6.909   6.785
25159WAT      O75718   8.703   0.613   8.154
25159WAT     H175719   8.609   0.634   8.125
25159WAT     H275720   8.703   0.580   8.248
25160WAT      O75721   7.682   4.374   0.552
25160WAT     H175722   7.703   4.300   0.488
25160WAT     H275723   7.587   4.402   0.540
25161WAT      O75724   1.274   5.974   3.167
25161WAT     H175725   1.356   5.938   3.122
25161WAT     H275726   1.246   5.911   3.239
25162WAT      O75727   3.498   2.255   5.147
25162WAT     H175728   3.504   2.273   5.245
25162WAT     H275729   3.578   2.293   5.101
25163WAT      O75730   3.006   6.681   3.034
25163WAT     H175731   3.001   6.747   2.959
25163WAT     H275732   3.053   6.599   3.004
25164WAT      O75733   9.703   4.544   2.703
25164WAT     H175734   9.793   4.588   2.704
25164WAT     H275735   9.647   4.583   2.776
25165WAT      O75736   2.738   2.975   7.316
25165WAT     H175737   2.759   2.877   7.310
25165WAT     H275738   2.817   3.028   7.286
25166WAT      O75739   6.908   0.240   1.053
25166WAT     H175740   7.000   0.225   1.090
25166WAT     H275741   6.900   0.195   0.964
25167WAT      O75742   8.808   8.104   6.771
25167WAT     H175743   8.856   8.088   6.857
25167WAT     H275744   8.751   8.026   6.748
25168WAT      O75745   7.450   7.439   5.918
25168WAT     H175746   7.478   7.346   5.942
25168WAT     H275747   7.500   7.469   5.837
25169WAT      O75748   9.222   1.788   7.646
25169WAT     H175749   9.167   1.707   7.625
25169WAT     H275750   9.162   1.862   7.674
25170WAT      O75751   4.516   2.315   6.462
25170WAT     H175752   4.524   2.221   6.430
25170WAT     H275753   4.485   2.373   6.387
25171WAT      O75754   7.704   1.617   6.131
25171WAT     H175755   7.769   1.652   6.064
25171WAT     H275756   7.695   1.683   6.206
25172WAT      O75757   4.736   6.683   0.104
25172WAT     H175758   4.803   6.758   0.099
25172WAT     H275759   4.740   6.629   0.020
25173WAT      O75760   4.448   7.959   2.393
25173WAT     H175761   4.480   8.003   2.477
25173WAT     H275762   4.362   7.911   2.410
25174WAT      O75763   0.698   7.755   8.192
25174WAT     H175764   0.614   7.799   8.222
25174WAT     H275765   0.773   7.821   8.194
25175WAT      O75766   4.375   8.438   4.965
25175WAT     H175767   4.470   8.462   4.984
25175WAT     H275768   4.357   8.345   4.996
25176WAT      O75769   3.086   4.976   1.380
25176WAT     H175770   3.162   5.013   1.327
25176WAT     H275771   3.071   4.880   1.356
25177WAT      O75772   5.073   3.199   8.393
25177WAT     H175773   5.022   3.117   8.420
25177WAT     H275774   5.144   3.174   8.327
25178WAT      O75775   8.853   3.224   4.286
25178WAT     H175776   8.862   3.130   4.319
25178WAT     H275777   8.865   3.288   4.362
25179WAT      O75778   2.397   8.323   3.778
25179WAT     H175779   2.451   8.263   3.719
25179WAT     H275780   2.317   8.356   3.728
25180WAT      O75781   8.394   1.101   3.537
25180WAT     H175782   8.349   1.148   3.613
25180WAT     H275783   8.360   1.007   3.530
25181WAT      O75784   2.167   0.482   7.286
25181WAT     H175785   2.089   0.503   7.345
25181WAT     H275786   2.158   0.532   7.200
25182WAT      O75787   6.845   9.842   2.068
25182WAT     H175788   6.840   9.879   2.160
25182WAT     H275789   6.806   9.749   2.067
25183WAT      O75790   9.836   2.810   5.677
25183WAT     H175791   9.779   2.811   5.594
25183WAT     H275792   9.927   2.846   5.655
25184WAT      O75793   6.445   6.736   6.974
25184WAT     H175794   6.433   6.646   6.934
25184WAT     H275795   6.355   6.777   6.991
25185WAT      O75796   0.508   9.463   4.260
25185WAT     H175797   0.508   9.442   4.162
25185WAT     H275798   0.457   9.392   4.309
25186WAT      O75799   6.958   8.893   7.152
25186WAT     H175800   6.959   8.986   7.187
25186WAT     H275801   6.972   8.894   7.053
25187WAT      O75802   6.003   1.181   5.823
25187WAT     H175803   5.937   1.200   5.749
25187WAT     H275804   6.004   1.083   5.842
25188WAT      O75805   9.007   8.915   3.189
25188WAT     H175806   8.915   8.883   3.212
25188WAT     H275807   9.016   9.012   3.211
25189WAT      O75808   7.281   7.591   1.753
25189WAT     H175809   7.364   7.603   1.699
25189WAT     H275810   7.268   7.671   1.812
25190WAT      O75811   7.980   3.166   1.250
25190WAT     H175812   7.985   3.067   1.269
25190WAT     H275813   8.070   3.207   1.265
25191WAT      O75814   0.189   2.758   6.386
25191WAT     H175815   0.147   2.834   6.437
25191WAT     H275816   0.145   2.749   6.297
25192WAT      O75817   9.433   5.906   3.836
25192WAT     H175818   9.485   5.821   3.843
25192WAT     H275819   9.439   5.941   3.743
25193WAT      O75820   5.036   5.934   4.035
25193WAT     H175821   5.049   6.033   4.046
25193WAT     H275822   4.943   5.910   4.062
25194WAT      O75823   4.137   2.444   0.288
25194WAT     H175824   4.145   2.498   0.371
25194WAT     H275825   4.126   2.505   0.209
25195WAT      O75826   5.954   4.971   8.401
25195WAT     H175827   5.889   4.942   8.470
25195WAT     H275828   5.922   5.055   8.357
25196WAT      O75829   5.743   6.589   5.565
25196WAT     H175830   5.651   6.561   5.593
25196WAT     H275831   5.743   6.606   5.466
25197WAT      O75832   4.751   4.427   7.963
25197WAT     H175833   4.722   4.438   8.058
25197WAT     H275834   4.843   4.464   7.952
25198WAT      O75835   4.017   3.046   9.338
25198WAT     H175836   3.942   3.043   9.403
25198WAT     H275837   3.981   3.041   9.245
25199WAT      O75838   7.793   2.382   9.037
25199WAT     H175839   7.763   2.288   9.053
25199WAT     H275840   7.714   2.437   9.010
25200WAT      O75841   7.066   6.633   2.987
25200WAT     H175842   7.013   6.555   3.022
25200WAT     H275843   7.163   6.616   3.003
25201WAT      O75844   5.648   2.904   2.416
25201WAT     H175845   5.646   2.827   2.352
25201WAT     H275846   5.560   2.910   2.463
25202WAT      O75847   1.598   0.374   9.102
25202WAT     H175848   1.513   0.337   9.140
25202WAT     H275849   1.671   0.306   9.112
25203WAT      O75850   0.821   4.583   5.398
25203WAT     H175851   0.794   4.558   5.305
25203WAT     H275852   0.916   4.555   5.414
25204WAT      O75853   2.993   0.875   3.604
25204WAT     H175854   3.036   0.849   3.518
25204WAT     H275855   2.894   0.886   3.590
25205WAT      O75856   2.461   4.696   1.085
25205WAT     H175857   2.453   4.597   1.096
25205WAT     H275858   2.496   4.718   0.994
25206WAT      O75859   3.456   1.464   2.250
25206WAT     H175860   3.473   1.436   2.156
25206WAT     H275861   3.421   1.386   2.302
25207WAT      O75862   8.893   3.056   0.350
25207WAT     H175863   8.991   3.060   0.371
25207WAT     H275864   8.864   3.143   0.310
25208WAT      O75865   4.822   0.666   4.289
25208WAT     H175866   4.817   0.572   4.324
25208WAT     H275867   4.775   0.727   4.352
25209WAT      O75868   4.169   4.988   4.166
25209WAT     H175869   4.261   5.028   4.168
25209WAT     H275870   4.107   5.043   4.223
25210WAT      O75871   3.826   2.638   0.375
25210WAT     H175872   3.801   2.549   0.413
25210WAT     H275873   3.743   2.691   0.356
25211WAT      O75874   7.379   5.238   6.786
25211WAT     H175875   7.318   5.173   6.832
25211WAT     H275876   7.369   5.328   6.828
25212WAT      O75877   9.113   3.206   8.930
25212WAT     H175878   9.042   3.138   8.949
25212WAT     H275879   9.085   3.265   8.855
25213WAT      O75880   9.858   0.403   5.014
25213WAT     H175881   9.915   0.379   4.935
25213WAT     H275882   9.789   0.469   4.986
25214WAT      O75883   9.717   1.229   0.708
25214WAT     H175884   9.801   1.283   0.711
25214WAT     H275885   9.731   1.143   0.758
25215WAT      O75886   7.014   2.929   5.608
25215WAT     H175887   6.979   3.012   5.653
25215WAT     H275888   6.961   2.912   5.525
25216WAT      O75889   6.603   9.089   8.064
25216WAT     H175890   6.687   9.034   8.065
25216WAT     H275891   6.613   9.165   8.001
25217WAT      O75892   9.759   8.532   8.121
25217WAT     H175893   9.811   8.616   8.135
25217WAT     H275894   9.822   8.458   8.095
25218WAT      O75895   1.175   7.368   1.435
25218WAT     H175896   1.127   7.281   1.430
25218WAT     H275897   1.241   7.366   1.511
25219WAT      O75898   2.100   9.638   1.492
25219WAT     H175899   2.168   9.625   1.564
25219WAT     H275900   2.059   9.550   1.469
25220WAT      O75901  -0.001   9.460   0.070
25220WAT     H175902   0.005   9.413  -0.018
25220WAT     H275903   0.058   9.415   0.137
25221WAT      O75904   1.581   2.047   4.200
25221WAT     H175905   1.606   2.124   4.258
25221WAT     H275906   1.597   2.071   4.104
25222WAT      O75907   1.411   1.557   5.622
25222WAT     H175908   1.479   1.536   5.692
25222WAT     H275909   1.431   1.506   5.539
25223WAT      O75910   3.455   5.883   7.806
25223WAT     H175911   3.375   5.828   7.784
25223WAT     H275912   3.465   5.890   7.905
25224WAT      O75913   2.265   8.817   5.666
25224WAT     H175914   2.255   8.916   5.658
25224WAT     H275915   2.177   8.776   5.688
25225WAT      O75916   6.788   6.939   6.646
25225WAT     H175917   6.815   6.933   6.742
25225WAT     H275918   6.750   6.851   6.617
25226WAT      O75919   4.543   7.226   9.682
25226WAT     H175920   4.459   7.223   9.628
25226WAT     H275921   4.526   7.279   9.766
25227WAT      O75922   4.921   8.264   6.176
25227WAT     H175923   4.975   8.307   6.249
25227WAT     H275924   4.907   8.330   6.103
25228WAT      O75925   8.446   6.652   2.168
25228WAT     H175926   8.458   6.663   2.070
25228WAT     H275927   8.354   6.680   2.194
25229WAT      O75928   6.816   7.888   9.422
25229WAT     H175929   6.807   7.822   9.348
25229WAT     H275930   6.778   7.848   9.506
25230WAT      O75931   0.893   9.140   5.330
25230WAT     H175932   0.805   9.131   5.376
25230WAT     H275933   0.948   9.210   5.375
25231WAT      O75934   8.929   9.819   0.711
25231WAT     H175935   8.974   9.876   0.780
25231WAT     H275936   8.841   9.787   0.746
25232WAT      O75937   0.510   6.174   4.390
25232WAT     H175938   0.602   6.149   4.361
25232WAT     H275939   0.470   6.238   4.324
25233WAT      O75940   1.343   7.736   0.318
25233WAT     H175941   1.411   7.786   0.265
25233WAT     H275942   1.314   7.655   0.266
25234WAT      O75943   8.250   0.118   0.534
25234WAT     H175944   8.240   0.062   0.616
25234WAT     H275945   8.347   0.137   0.518
25235WAT      O75946   9.032   8.236   0.821
25235WAT     H175947   9.044   8.254   0.724
25235WAT     H275948   9.085   8.303   0.874
25236WAT      O75949   2.599   3.642   8.864
25236WAT     H175950   2.557   3.675   8.779
25236WAT     H275951   2.696   3.622   8.848
25237WAT      O75952   7.556   4.422   4.001
25237WAT     H175953   7.514   4.434   4.091
25237WAT     H275954   7.552   4.326   3.975
25238WAT      O75955   7.370   1.466   7.661
25238WAT     H175956   7.316   1.462   7.745
25238WAT     H275957   7.467   1.458   7.683
25239WAT      O75958   2.614   5.280   4.131
25239WAT     H175959   2.582   5.374   4.119
25239WAT     H275960   2.639   5.265   4.227
25240WAT      O75961   0.743   6.631   7.642
25240WAT     H175962   0.737   6.591   7.550
25240WAT     H275963   0.749   6.558   7.709
25241WAT      O75964   4.449   7.744   5.254
25241WAT     H175965   4.425   7.654   5.290
25241WAT     H275966   4.523   7.783   5.308
25242WAT      O75967   0.988   2.073   9.499
25242WAT     H175968   1.013   2.034   9.410
25242WAT     H275969   1.071   2.107   9.545
25243WAT      O75970   0.333   8.849   9.542
25243WAT     H175971   0.428   8.828   9.519
25243WAT     H275972   0.287   8.765   9.573
25244WAT      O75973   6.379   3.258   3.000
25244WAT     H175974   6.406   3.266   2.904
25244WAT     H275975   6.428   3.326   3.054
25245WAT      O75976   1.139   2.881   3.959
25245WAT     H175977   1.181   2.926   3.881
25245WAT     H275978   1.154   2.783   3.953
25246WAT      O75979   9.473   5.309   6.144
25246WAT     H175980   9.413   5.309   6.224
25246WAT     H275981   9.417   5.302   6.061
25247WAT      O75982   7.023   1.611   7.728
25247WAT     H175983   7.054   1.691   7.780
25247WAT     H275984   7.061   1.528   7.770
25248WAT      O75985   5.170   3.936   0.383
25248WAT     H175986   5.144   3.847   0.421
25248WAT     H275987   5.089   3.981   0.346
25249WAT      O75988   5.989   8.605   7.183
25249WAT     H175989   5.957   8.584   7.091
25249WAT     H275990   5.911   8.609   7.246
25250WAT      O75991   9.633   6.722   9.468
25250WAT     H175992   9.599   6.791   9.405
25250WAT     H275993   9.639   6.761   9.560
25251WAT      O75994   9.685   2.095   8.343
25251WAT     H175995   9.721   2.163   8.280
25251WAT     H275996   9.621   2.035   8.294
25252WAT      O75997   8.214   4.047   2.324
25252WAT     H175998   8.165   4.041   2.237
25252WAT     H275999   8.172   4.117   2.381
25253WAT      O76000   6.133   5.954   1.034
25253WAT     H176001   6.119   5.966   1.132
25253WAT     H276002   6.164   5.861   1.016
25254WAT      O76003   2.664   1.482   8.805
25254WAT     H176004   2.681   1.436   8.718
25254WAT     H276005   2.565   1.489   8.821
25255WAT      O76006   1.839   8.016   2.824
25255WAT     H176007   1.795   7.981   2.907
25255WAT     H276008   1.770   8.056   2.765
25256WAT      O76009   3.483   0.915   5.058
25256WAT     H176010   3.538   0.837   5.029
25256WAT     H276011   3.430   0.949   4.981
25257WAT      O76012   5.243   8.500   3.528
25257WAT     H176013   5.250   8.417   3.584
25257WAT     H276014   5.312   8.497   3.455
25258WAT      O76015   6.298   6.088   5.250
25258WAT     H176016   6.354   6.012   5.217
25258WAT     H276017   6.321   6.172   5.200
25259WAT      O76018   6.461   1.616   3.317
25259WAT     H176019   6.502   1.651   3.401
25259WAT     H276020   6.533   1.600   3.249
25260WAT      O76021   4.335   5.743   3.364
25260WAT     H176022   4.314   5.687   3.445
25260WAT     H276023   4.407   5.698   3.311
25261WAT      O76024   0.622   6.974   7.886
25261WAT     H176025   0.713   6.995   7.923
25261WAT     H276026   0.627   6.966   7.787
25262WAT      O76027   6.980   0.591   2.687
25262WAT     H176028   6.921   0.656   2.638
25262WAT     H276029   7.030   0.638   2.759
25263WAT      O76030   8.732   7.919   7.945
25263WAT     H176031   8.746   7.824   7.919
25263WAT     H276032   8.791   7.942   8.021
25264WAT      O76033   7.975   7.648   5.185
25264WAT     H176034   7.883   7.685   5.171
25264WAT     H276035   8.020   7.635   5.097
25265WAT      O76036   6.144   3.852   3.109
25265WAT     H176037   6.163   3.946   3.080
25265WAT     H276038   6.045   3.837   3.109
25266WAT      O76039   3.635   0.121   9.833
25266WAT     H176040   3.700   0.047   9.847
25266WAT     H276041   3.543   0.084   9.825
25267WAT      O76042   0.259   1.824   3.399
25267WAT     H176043   0.346   1.823   3.350
25267WAT     H276044   0.247   1.738   3.448
25268WAT      O76045   0.098   2.456   3.524
25268WAT     H176046   0.142   2.386   3.468
25268WAT     H276047   0.140   2.545   3.504
25269WAT      O76048   7.810   2.937   8.190
25269WAT     H176049   7.760   3.018   8.161
25269WAT     H276050   7.746   2.867   8.223
25270WAT      O76051   1.932   1.421   3.379
25270WAT     H176052   1.882   1.467   3.452
25270WAT     H276053   2.005   1.365   3.419
25271WAT      O76054   5.809   6.456   2.320
25271WAT     H176055   5.709   6.454   2.324
25271WAT     H276056   5.843   6.363   2.302
25272WAT      O76057   6.464   9.419   2.694
25272WAT     H176058   6.432   9.492   2.754
25272WAT     H276059   6.511   9.349   2.748
25273WAT      O76060   8.926   6.010   0.208
25273WAT     H176061   8.886   5.999   0.299
25273WAT     H276062   9.019   6.046   0.217
25274WAT      O76063   0.179   8.314   1.236
25274WAT     H176064   0.111   8.326   1.308
25274WAT     H276065   0.140   8.340   1.148
25275WAT      O76066   1.459   2.914   1.398
25275WAT     H176067   1.486   2.838   1.339
25275WAT     H276068   1.372   2.952   1.365
25276WAT      O76069   3.187   8.229   2.716
25276WAT     H176070   3.108   8.178   2.682
25276WAT     H276071   3.254   8.166   2.754
25277WAT      O76072   1.594   3.185   8.104
25277WAT     H176073   1.659   3.210   8.175
25277WAT     H276074   1.601   3.087   8.086
25278WAT      O76075   4.706   3.300   8.048
25278WAT     H176076   4.802   3.324   8.061
25278WAT     H276077   4.657   3.377   8.009
25279WAT      O76078   0.417   4.305   5.072
25279WAT     H176079   0.493   4.250   5.038
25279WAT     H276080   0.355   4.327   4.996
25280WAT      O76081   0.940   1.502   7.046
25280WAT     H176082   0.905   1.432   6.983
25280WAT     H276083   0.867   1.529   7.108
25281WAT      O76084   9.366   9.022   4.668
25281WAT     H176085   9.449   9.055   4.713
25281WAT     H276086   9.378   8.927   4.640
25282WAT      O76087   5.473   5.296   1.057
25282WAT     H176088   5.503   5.376   1.109
25282WAT     H276089   5.400   5.249   1.107
25283WAT      O76090   8.921   2.726   7.396
25283WAT     H176091   8.925   2.755   7.300
25283WAT     H276092   8.870   2.641   7.403
25284WAT      O76093   4.427   7.962   4.062
25284WAT     H176094   4.366   7.916   3.997
25284WAT     H276095   4.499   8.009   4.012
25285WAT      O76096   0.109   2.359   1.473
25285WAT     H176097   0.035   2.426   1.467
25285WAT     H276098   0.153   2.366   1.562
25286WAT      O76099   7.386   4.037   5.030
25286WAT     H176100   7.361   3.995   5.118
25286WAT     H276101   7.303   4.059   4.980
25287WAT      O76102   8.217   5.868   2.418
25287WAT     H176103   8.219   5.784   2.471
25287WAT     H276104   8.179   5.942   2.473
25288WAT      O76105   9.471   2.041   5.756
25288WAT     H176106   9.505   2.087   5.839
25288WAT     H276107   9.400   1.975   5.780
25289WAT      O76108   5.806   9.214   5.043
25289WAT     H176109   5.869   9.232   4.968
25289WAT     H276110   5.727   9.276   5.036
25290WAT      O76111   4.714   0.783   0.161
25290WAT     H176112   4.700   0.684   0.160
25290WAT     H276113   4.707   0.816   0.255
25291WAT      O76114   2.767   4.104   0.880
25291WAT     H176115   2.794   4.010   0.901
25291WAT     H276116   2.671   4.106   0.853
25292WAT      O76117   7.454   3.638   1.391
25292WAT     H176118   7.368   3.684   1.368
25292WAT     H276119   7.482   3.664   1.484
25293WAT      O76120   3.152   9.278   1.434
25293WAT     H176121   3.149   9.178   1.426
25293WAT     H276122   3.154   9.304   1.530
25294WAT      O76123   5.498   5.464   8.288
25294WAT     H176124   5.473   5.446   8.193
25294WAT     H276125   5.581   5.519   8.291
25295WAT      O76126   5.325   7.191   9.462
25295WAT     H176127   5.352   7.286   9.446
25295WAT     H276128   5.370   7.132   9.395
25296WAT      O76129   7.599   7.459   7.680
25296WAT     H176130   7.550   7.404   7.748
25296WAT     H276131   7.676   7.505   7.724
25297WAT      O76132   7.336   9.557   8.248
25297WAT     H176133   7.262   9.536   8.184
25297WAT     H276134   7.329   9.497   8.328
25298WAT      O76135   4.715   6.993   6.506
25298WAT     H176136   4.695   6.903   6.544
25298WAT     H276137   4.631   7.033   6.470
25299WAT      O76138   5.921   6.552   9.579
25299WAT     H176139   5.938   6.579   9.674
25299WAT     H276140   5.933   6.631   9.519
25300WAT      O76141   0.030   6.804   3.817
25300WAT     H176142  -0.056   6.782   3.864
25300WAT     H276143   0.079   6.874   3.868
25301WAT      O76144   3.097   5.001   0.970
25301WAT     H176145   3.023   4.933   0.967
25301WAT     H276146   3.157   4.982   1.047
25302WAT      O76147   6.304   8.833   6.901
25302WAT     H176148   6.311   8.932   6.918
25302WAT     H276149   6.248   8.818   6.819
25303WAT      O76150   9.747   8.525   2.964
25303WAT     H176151   9.733   8.574   3.049
25303WAT     H276152   9.815   8.453   2.977
25304WAT      O76153   4.012   8.033   4.860
25304WAT     H176154   4.021   8.115   4.803
25304WAT     H276155   3.915   8.017   4.881
25305WAT      O76156   7.770   7.570   6.198
25305WAT     H176157   7.795   7.507   6.272
25305WAT     H276158   7.811   7.660   6.217
25306WAT      O76159   7.937   3.487   3.289
25306WAT     H176160   7.859   3.548   3.303
25306WAT     H276161   7.910   3.413   3.227
25307WAT      O76162   2.349   1.218   6.661
25307WAT     H176163   2.306   1.193   6.574
25307WAT     H276164   2.395   1.138   6.700
25308WAT      O76165   9.664   1.356   4.328
25308WAT     H176166   9.597   1.299   4.280
25308WAT     H276167   9.736   1.383   4.264
25309WAT      O76168   8.909   0.478   8.890
25309WAT     H176169   8.980   0.548   8.903
25309WAT     H276170   8.837   0.490   8.958
25310WAT      O76171   2.960   7.955   0.082
25310WAT     H176172   3.036   7.903   0.121
25310WAT     H276173   2.995   8.039   0.040
25311WAT      O76174   1.491   0.660   8.141
25311WAT     H176175   1.542   0.695   8.063
25311WAT     H276176   1.445   0.575   8.115
25312WAT      O76177   4.081   5.884   3.321
25312WAT     H176178   4.094   5.808   3.258
25312WAT     H276179   4.140   5.872   3.401
25313WAT      O76180   7.827   5.426   8.719
25313WAT     H176181   7.769   5.465   8.791
25313WAT     H276182   7.863   5.338   8.749
25314WAT      O76183   5.942   3.177   0.999
25314WAT     H176184   5.914   3.157   0.905
25314WAT     H276185   6.041   3.171   1.006
25315WAT      O76186   1.280   8.891   3.149
25315WAT     H176187   1.286   8.792   3.139
25315WAT     H276188   1.266   8.933   3.060
25316WAT      O76189   5.564   7.190   3.926
25316WAT     H176190   5.540   7.101   3.889
25316WAT     H276191   5.480   7.242   3.946
25317WAT      O76192   9.670   7.459   2.322
25317WAT     H176193   9.716   7.500   2.401
25317WAT     H276194   9.602   7.393   2.353
25318WAT      O76195   4.584   0.335   5.681
25318WAT     H176196   4.541   0.383   5.605
25318WAT     H276197   4.670   0.294   5.651
25319WAT      O76198   7.879   1.764   1.849
25319WAT     H176199   7.839   1.752   1.758
25319WAT     H276200   7.901   1.860   1.864
25320WAT      O76201   7.128   1.785   7.911
25320WAT     H176202   7.219   1.775   7.871
25320WAT     H276203   7.136   1.817   8.006
25321WAT      O76204   0.056   4.976   7.937
25321WAT     H176205   0.105   4.896   7.901
25321WAT     H276206   0.043   4.965   8.036
25322WAT      O76207   7.145   5.577   1.244
25322WAT     H176208   7.098   5.539   1.324
25322WAT     H276209   7.081   5.632   1.191
25323WAT      O76210   4.362   3.554   1.779
25323WAT     H176211   4.304   3.601   1.846
25323WAT     H276212   4.327   3.571   1.687
25324WAT      O76213   7.251   2.678   9.183
25324WAT     H176214   7.220   2.757   9.236
25324WAT     H276215   7.300   2.710   9.101
25325WAT      O76216   2.716   4.261   5.374
25325WAT     H176217   2.744   4.169   5.403
25325WAT     H276218   2.727   4.270   5.275
25326WAT      O76219   2.477   8.349   7.965
25326WAT     H176220   2.456   8.425   7.904
25326WAT     H276221   2.436   8.265   7.929
25327WAT      O76222   0.799   4.722   3.805
25327WAT     H176223   0.756   4.637   3.774
25327WAT     H276224   0.741   4.799   3.781
25328WAT      O76225   9.013   4.972   8.137
25328WAT     H176226   9.096   4.916   8.125
25328WAT     H276227   8.987   5.012   8.048
25329WAT      O76228   4.713   8.355   0.568
25329WAT     H176229   4.644   8.285   0.582
25329WAT     H276230   4.756   8.343   0.479
25330WAT      O76231   7.300   9.266   0.260
25330WAT     H176232   7.365   9.190   0.269
25330WAT     H276233   7.337   9.333   0.195
25331WAT      O76234   9.153   2.193   7.614
25331WAT     H176235   9.106   2.125   7.670
25331WAT     H276236   9.248   2.202   7.643
25332WAT      O76237   0.634   0.312   0.655
25332WAT     H176238   0.660   0.240   0.591
25332WAT     H276239   0.669   0.290   0.746
25333WAT      O76240   6.068   7.971   6.287
25333WAT     H176241   6.048   7.905   6.359
25333WAT     H276242   6.130   8.041   6.323
25334WAT      O76243   3.961   7.079   2.901
25334WAT     H176244   4.027   7.129   2.846
25334WAT     H276245   4.002   7.053   2.988
25335WAT      O76246   5.175   0.808   1.807
25335WAT     H176247   5.184   0.894   1.758
25335WAT     H276248   5.202   0.733   1.748
25336WAT      O76249   9.403   6.731   3.239
25336WAT     H176250   9.439   6.824   3.254
25336WAT     H276251   9.304   6.736   3.223
25337WAT      O76252   7.145   9.382   2.389
25337WAT     H176253   7.243   9.374   2.410
25337WAT     H276254   7.092   9.344   2.464
25338WAT      O76255   2.790   2.959   8.703
25338WAT     H176256   2.757   2.871   8.669
25338WAT     H276257   2.805   2.953   8.802
25339WAT      O76258   0.252   1.904   7.571
25339WAT     H176259   0.325   1.837   7.583
25339WAT     H276260   0.291   1.991   7.544
25340WAT      O76261   7.511   7.646   8.733
25340WAT     H176262   7.588   7.593   8.769
25340WAT     H276263   7.537   7.687   8.645
25341WAT      O76264   4.365   8.612   3.249
25341WAT     H176265   4.326   8.700   3.221
25341WAT     H276266   4.456   8.627   3.289
25342WAT      O76267   2.592   6.726   3.946
25342WAT     H176268   2.667   6.793   3.946
25342WAT     H276269   2.509   6.769   3.982
25343WAT      O76270   5.833   3.022   2.264
25343WAT     H176271   5.767   3.018   2.339
25343WAT     H276272   5.785   3.040   2.178
25344WAT      O76273   3.127   9.283   7.229
25344WAT     H176274   3.209   9.318   7.273
25344WAT     H276275   3.074   9.229   7.295
25345WAT      O76276   5.729   3.503   9.389
25345WAT     H176277   5.797   3.443   9.348
25345WAT     H276278   5.701   3.572   9.323
25346WAT      O76279   2.312   9.768   5.771
25346WAT     H176280   2.330   9.851   5.718
25346WAT     H276281   2.371   9.695   5.739
25347WAT      O76282   7.116   0.173   7.968
25347WAT     H176283   7.131   0.210   7.876
25347WAT     H276284   7.050   0.098   7.963
25348WAT      O76285   8.590   8.663   9.081
25348WAT     H176286   8.652   8.728   9.126
25348WAT     H276287   8.619   8.649   8.987
25349WAT      O76288   7.290   5.774   6.935
25349WAT     H176289   7.198   5.797   6.967
25349WAT     H276290   7.292   5.776   6.835
25350WAT      O76291   5.906   9.747   0.590
25350WAT     H176292   5.825   9.800   0.614
25350WAT     H276293   5.981   9.809   0.568
25351WAT      O76294   1.939   8.744   5.073
25351WAT     H176295   1.856   8.790   5.042
25351WAT     H276296   1.920   8.646   5.084
25352WAT      O76297   6.245   7.332   3.058
25352WAT     H176298   6.207   7.257   3.004
25352WAT     H276299   6.172   7.396   3.081
25353WAT      O76300   1.508   9.438   2.817
25353WAT     H176301   1.517   9.520   2.874
25353WAT     H276302   1.523   9.463   2.721
25354WAT      O76303   2.239   4.555   3.547
25354WAT     H176304   2.242   4.479   3.611
25354WAT     H276305   2.188   4.631   3.587
25355WAT      O76306   6.423   8.607   2.938
25355WAT     H176307   6.337   8.658   2.950
25355WAT     H276308   6.491   8.667   2.896
25356WAT      O76309   2.418   3.251   0.697
25356WAT     H176310   2.487   3.180   0.684
25356WAT     H276311   2.387   3.249   0.792
25357WAT      O76312   9.133   4.536   0.382
25357WAT     H176313   9.213   4.486   0.351
25357WAT     H276314   9.161   4.610   0.443
25358WAT      O76315   0.938   8.781   9.293
25358WAT     H176316   0.907   8.707   9.352
25358WAT     H276317   1.000   8.841   9.344
25359WAT      O76318   3.330   0.768   0.762
25359WAT     H176319   3.387   0.845   0.733
25359WAT     H276320   3.344   0.691   0.700
25360WAT      O76321   8.382   5.195   0.030
25360WAT     H176322   8.301   5.168   0.082
25360WAT     H276323   8.425   5.114  -0.010
25361WAT      O76324   1.979   1.059   5.078
25361WAT     H176325   2.050   1.128   5.094
25361WAT     H276326   1.890   1.096   5.104
25362WAT      O76327   0.709   4.261   1.781
25362WAT     H176328   0.771   4.244   1.858
25362WAT     H276329   0.622   4.296   1.816
25363WAT      O76330   1.547   0.315   5.748
25363WAT     H176331   1.609   0.267   5.686
25363WAT     H276332   1.594   0.394   5.787
25364WAT      O76333   2.650   4.177   6.272
25364WAT     H176334   2.638   4.121   6.190
25364WAT     H276335   2.610   4.268   6.257
25365WAT      O76336   8.443   6.224   9.659
25365WAT     H176337   8.472   6.318   9.675
25365WAT     H276338   8.346   6.222   9.636
25366WAT      O76339   9.332   7.663   5.929
25366WAT     H176340   9.320   7.599   5.854
25366WAT     H276341   9.420   7.645   5.974
25367WAT      O76342   7.627   3.742   3.947
25367WAT     H176343   7.607   3.783   3.859
25367WAT     H276344   7.724   3.753   3.968
25368WAT      O76345   5.441   4.046   9.808
25368WAT     H176346   5.507   3.972   9.807
25368WAT     H276347   5.379   4.034   9.886
25369WAT      O76348   6.031   3.191   1.810
25369WAT     H176349   6.035   3.101   1.853
25369WAT     H276350   6.100   3.251   1.851
25370WAT      O76351   8.606   5.164   3.187
25370WAT     H176352   8.581   5.254   3.151
25370WAT     H276353   8.525   5.121   3.228
25371WAT      O76354   1.292   6.204   4.531
25371WAT     H176355   1.387   6.233   4.520
25371WAT     H276356   1.288   6.124   4.591
25372WAT      O76357   1.101   6.461   4.889
25372WAT     H176358   1.111   6.480   4.791
25372WAT     H276359   1.146   6.532   4.942
25373WAT      O76360   5.866   5.805   7.205
25373WAT     H176361   5.825   5.811   7.115
25373WAT     H276362   5.888   5.710   7.225
25374WAT      O76363   3.810   8.965   2.960
25374WAT     H176364   3.738   8.990   2.896
25374WAT     H276365   3.792   9.007   3.049
25375WAT      O76366   8.141   3.004   0.191
25375WAT     H176367   8.194   2.983   0.273
25375WAT     H276368   8.083   2.926   0.167
25376WAT      O76369   7.858   8.752   2.805
25376WAT     H176370   7.862   8.822   2.734
25376WAT     H276371   7.860   8.796   2.895
25377WAT      O76372   4.135   7.090   4.894
25377WAT     H176373   4.225   7.069   4.856
25377WAT     H276374   4.095   7.007   4.934
25378WAT      O76375   4.322   5.825   1.848
25378WAT     H176376   4.232   5.820   1.890
25378WAT     H276377   4.390   5.849   1.917
25379WAT      O76378   9.576   2.088   1.894
25379WAT     H176379   9.519   2.120   1.819
25379WAT     H276380   9.671   2.115   1.878
25380WAT      O76381   3.606   7.275   5.788
25380WAT     H176382   3.555   7.237   5.712
25380WAT     H276383   3.676   7.209   5.817
25381WAT      O76384   9.393   3.017   5.626
25381WAT     H176385   9.395   2.941   5.690
25381WAT     H276386   9.471   3.077   5.643
25382WAT      O76387   2.278   0.578   2.129
25382WAT     H176388   2.214   0.639   2.177
25382WAT     H276389   2.231   0.493   2.104
25383WAT      O76390   1.295   0.623   1.120
25383WAT     H176391   1.336   0.663   1.038
25383WAT     H276392   1.200   0.654   1.127
25384WAT      O76393   8.596   6.957   8.800
25384WAT     H176394   8.610   7.038   8.857
25384WAT     H276395   8.671   6.892   8.817
25385WAT      O76396   8.715   6.304   4.851
25385WAT     H176397   8.718   6.223   4.792
25385WAT     H276398   8.699   6.275   4.946
25386WAT      O76399   3.640   8.777   5.599
25386WAT     H176400   3.640   8.780   5.499
25386WAT     H276401   3.558   8.731   5.631
25387WAT      O76402   2.858   0.952   3.023
25387WAT     H176403   2.875   0.853   3.020
25387WAT     H276404   2.764   0.970   2.993
25388WAT      O76405   1.326   7.521   9.601
25388WAT     H176406   1.266   7.471   9.664
25388WAT     H276407   1.270   7.582   9.544
25389WAT      O76408   9.813   8.827   2.738
25389WAT     H176409   9.774   8.821   2.647
25389WAT     H276410   9.831   8.735   2.773
25390WAT      O76411   1.116   1.253   8.995
25390WAT     H176412   1.023   1.251   8.958
25390WAT     H276413   1.156   1.162   8.988
25391WAT      O76414   5.785   6.464   7.260
25391WAT     H176415   5.694   6.472   7.301
25391WAT     H276416   5.840   6.401   7.314
25392WAT      O76417   4.295   5.027   7.934
25392WAT     H176418   4.261   5.027   7.840
25392WAT     H276419   4.310   5.121   7.964
25393WAT      O76420   8.340   4.841   3.154
25393WAT     H176421   8.365   4.922   3.207
25393WAT     H276422   8.404   4.829   3.079
25394WAT      O76423   4.073   3.869   3.192
25394WAT     H176424   4.146   3.933   3.168
25394WAT     H276425   4.100   3.815   3.271
25395WAT      O76426   3.686   5.453   3.062
25395WAT     H176427   3.698   5.379   3.129
25395WAT     H276428   3.735   5.534   3.093
25396WAT      O76429   3.134   6.183   7.089
25396WAT     H176430   3.080   6.114   7.138
25396WAT     H276431   3.203   6.137   7.033
25397WAT      O76432   6.846   0.013   9.795
25397WAT     H176433   6.860  -0.013   9.890
25397WAT     H276434   6.933   0.010   9.746
25398WAT      O76435   4.680   9.329   0.611
25398WAT     H176436   4.777   9.311   0.599
25398WAT     H276437   4.652   9.301   0.703
25399WAT      O76438   7.790   9.630   8.859
25399WAT     H176439   7.744   9.713   8.827
25399WAT     H276440   7.888   9.637   8.840
25400WAT      O76441   3.962   7.511   3.404
25400WAT     H176442   3.889   7.513   3.335
25400WAT     H276443   4.050   7.526   3.359
25401WAT      O76444   3.868   9.300   7.024
25401WAT     H176445   3.877   9.354   7.108
25401WAT     H276446   3.773   9.305   6.992
25402WAT      O76447   1.975   8.295   2.064
25402WAT     H176448   2.009   8.387   2.085
25402WAT     H276449   2.043   8.227   2.091
25403WAT      O76450   6.491   0.641   9.294
25403WAT     H176451   6.495   0.741   9.292
25403WAT     H276452   6.480   0.606   9.201
25404WAT      O76453   5.951   4.222   7.667
25404WAT     H176454   5.974   4.144   7.609
25404WAT     H276455   5.985   4.206   7.760
25405WAT      O76456   6.300   7.864   1.044
25405WAT     H176457   6.357   7.924   1.100
25405WAT     H276458   6.303   7.771   1.081
25406WAT      O76459   7.370   1.304   9.885
25406WAT     H176460   7.420   1.259   9.812
25406WAT     H276461   7.274   1.275   9.883
25407WAT      O76462   0.241   2.504   5.826
25407WAT     H176463   0.148   2.540   5.820
25407WAT     H276464   0.296   2.564   5.883
25408WAT      O76465   1.776   1.309   1.081
25408WAT     H176466   1.781   1.337   0.985
25408WAT     H276467   1.701   1.243   1.093
25409WAT      O76468   5.284   4.674   1.262
25409WAT     H176469   5.198   4.647   1.304
25409WAT     H276470   5.357   4.671   1.330
25410WAT      O76471   9.104   5.767   6.691
25410WAT     H176472   9.066   5.753   6.599
25410WAT     H276473   9.137   5.860   6.700
25411WAT      O76474   9.392   4.999   3.652
25411WAT     H176475   9.401   4.936   3.728
25411WAT     H276476   9.321   4.965   3.589
25412WAT      O76477   7.777   9.732   9.184
25412WAT     H176478   7.716   9.680   9.124
25412WAT     H276479   7.847   9.671   9.222
25413WAT      O76480   7.757   6.261   2.704
25413WAT     H176481   7.700   6.318   2.763
25413WAT     H276482   7.762   6.168   2.740
25414WAT      O76483   2.789   5.500   5.119
25414WAT     H176484   2.748   5.451   5.041
25414WAT     H276485   2.884   5.522   5.098
25415WAT      O76486   8.033   7.072   3.327
25415WAT     H176487   8.126   7.082   3.291
25415WAT     H276488   8.011   6.974   3.336
25416WAT      O76489   5.634   4.805   6.616
25416WAT     H176490   5.590   4.761   6.538
25416WAT     H276491   5.674   4.735   6.676
25417WAT      O76492   8.415   5.246   3.494
25417WAT     H176493   8.512   5.271   3.490
25417WAT     H276494   8.360   5.322   3.460
25418WAT      O76495   5.911   6.970   0.963
25418WAT     H176496   5.988   6.974   1.027
25418WAT     H276497   5.874   7.062   0.949
25419WAT      O76498   1.950   9.199   1.138
25419WAT     H176499   1.999   9.145   1.070
25419WAT     H276500   2.006   9.207   1.221
25420WAT      O76501   2.040   6.262   9.298
25420WAT     H176502   1.981   6.222   9.367
25420WAT     H276503   2.042   6.361   9.308
25421WAT      O76504   8.420   2.083   7.187
25421WAT     H176505   8.465   2.009   7.136
25421WAT     H276506   8.453   2.083   7.281
25422WAT      O76507   1.431   5.952   6.369
25422WAT     H176508   1.417   5.857   6.340
25422WAT     H276509   1.514   5.957   6.425
25423WAT      O76510   3.360   1.670   5.381
25423WAT     H176511   3.264   1.655   5.356
25423WAT     H276512   3.387   1.762   5.352
25424WAT      O76513   5.607   0.216   9.492
25424WAT     H176514   5.581   0.156   9.568
25424WAT     H276515   5.705   0.233   9.494
25425WAT      O76516   5.853   6.817   9.176
25425WAT     H176517   5.938   6.844   9.133
25425WAT     H276518   5.793   6.774   9.108
25426WAT      O76519   7.042   4.493   5.501
25426WAT     H176520   7.094   4.492   5.416
25426WAT     H276521   7.103   4.520   5.576
25427WAT      O76522   2.817   3.210   1.314
25427WAT     H176523   2.798   3.113   1.304
25427WAT     H276524   2.911   3.229   1.286
25428WAT      O76525   7.450   7.627   9.105
25428WAT     H176526   7.516   7.576   9.051
25428WAT     H276527   7.495   7.666   9.185
25429WAT      O76528   3.891   7.000   1.486
25429WAT     H176529   3.905   6.957   1.396
25429WAT     H276530   3.942   6.949   1.555
25430WAT      O76531   5.193   2.872   4.658
25430WAT     H176532   5.194   2.850   4.755
25430WAT     H276533   5.281   2.912   4.632
25431WAT      O76534   1.199   2.013   0.072
25431WAT     H176535   1.114   2.007   0.125
25431WAT     H276536   1.234   1.921   0.054
25432WAT      O76537   8.400   1.094   3.022
25432WAT     H176538   8.348   1.009   3.030
25432WAT     H276539   8.338   1.169   2.998
25433WAT      O76540   3.294   0.561   3.640
25433WAT     H176541   3.213   0.612   3.670
25433WAT     H276542   3.376   0.601   3.680
25434WAT      O76543   1.801   0.429   9.845
25434WAT     H176544   1.840   0.388   9.763
25434WAT     H276545   1.763   0.519   9.823
25435WAT      O76546   5.071   9.091   5.514
25435WAT     H176547   5.157   9.065   5.471
25435WAT     H276548   5.076   9.074   5.613
25436WAT      O76549   0.949   6.157   9.234
25436WAT     H176550   0.945   6.082   9.168
25436WAT     H276551   0.946   6.120   9.327
25437WAT      O76552   0.802   5.413   5.055
25437WAT     H176553   0.897   5.386   5.041
25437WAT     H276554   0.742   5.338   5.027
25438WAT      O76555   6.256   5.258   8.995
25438WAT     H176556   6.256   5.347   8.949
25438WAT     H276557   6.238   5.186   8.928
25439WAT      O76558   5.435   6.134   3.097
25439WAT     H176559   5.508   6.067   3.078
25439WAT     H276560   5.370   6.095   3.161
25440WAT      O76561   6.198   8.691   0.951
25440WAT     H176562   6.221   8.662   0.858
25440WAT     H276563   6.157   8.782   0.948
25441WAT      O76564   0.174   5.368   7.444
25441WAT     H176565   0.183   5.447   7.383
25441WAT     H276566   0.125   5.295   7.396
25442WAT      O76567   5.347   4.804   0.615
25442WAT     H176568   5.402   4.861   0.554
25442WAT     H276569   5.286   4.747   0.561
25443WAT      O76570   1.492   8.113   4.420
25443WAT     H176571   1.556   8.051   4.465
25443WAT     H276572   1.412   8.127   4.478
25444WAT      O76573   7.329   6.821   7.099
25444WAT     H176574   7.294   6.815   7.193
25444WAT     H276575   7.426   6.846   7.101
25445WAT      O76576   2.217   4.075   1.219
25445WAT     H176577   2.122   4.057   1.247
25445WAT     H276578   2.227   4.052   1.122
25446WAT      O76579   6.672   0.592   5.876
25446WAT     H176580   6.717   0.675   5.843
25446WAT     H276581   6.697   0.515   5.817
25447WAT      O76582   4.365   8.936   2.639
25447WAT     H176583   4.452   8.951   2.592
25447WAT     H276584   4.367   8.981   2.729
25448WAT      O76585   6.612   0.781   5.381
25448WAT     H176586   6.706   0.771   5.414
25448WAT     H276587   6.598   0.722   5.301
25449WAT      O76588   4.362   9.814   1.979
25449WAT     H176589   4.427   9.754   1.932
25449WAT     H276590   4.361   9.903   1.933
25450WAT      O76591   9.347   9.727   2.914
25450WAT     H176592   9.280   9.665   2.956
25450WAT     H276593   9.416   9.752   2.981
25451WAT      O76594   4.628   1.742   5.131
25451WAT     H176595   4.706   1.804   5.127
25451WAT     H276596   4.648   1.659   5.079
25452WAT      O76597   8.043   1.889   0.951
25452WAT     H176598   7.950   1.853   0.945
25452WAT     H276599   8.057   1.957   0.879
25453WAT      O76600   6.969   4.819   0.850
25453WAT     H176601   6.905   4.820   0.926
25453WAT     H276602   6.990   4.913   0.823
25454WAT      O76603   2.403   3.677   3.810
25454WAT     H176604   2.395   3.737   3.730
25454WAT     H276605   2.389   3.731   3.893
25455WAT      O76606   1.584   8.794   1.355
25455WAT     H176607   1.495   8.772   1.314
25455WAT     H276608   1.588   8.892   1.376
25456WAT      O76609   1.055   6.770   4.896
25456WAT     H176610   1.068   6.869   4.902
25456WAT     H276611   0.966   6.751   4.854
25457WAT      O76612   4.049   3.840   8.048
25457WAT     H176613   4.092   3.751   8.066
25457WAT     H276614   4.036   3.889   8.134
25458WAT      O76615   1.647   0.048   5.326
25458WAT     H176616   1.550   0.039   5.303
25458WAT     H276617   1.694  -0.038   5.307
25459WAT      O76618   5.408   6.958   8.476
25459WAT     H176619   5.491   6.957   8.420
25459WAT     H276620   5.369   7.049   8.476
25460WAT      O76621   5.937   2.746   7.767
25460WAT     H176622   6.011   2.811   7.781
25460WAT     H276623   5.866   2.787   7.710
25461WAT      O76624   0.092   7.045   7.151
25461WAT     H176625   0.065   7.119   7.090
25461WAT     H276626   0.168   7.075   7.208
25462WAT      O76627   0.057   2.380   0.414
25462WAT     H176628   0.077   2.381   0.512
25462WAT     H276629   0.037   2.286   0.385
25463WAT      O76630   0.893   7.961   8.243
25463WAT     H176631   0.974   7.904   8.249
25463WAT     H276632   0.894   8.030   8.315
25464WAT      O76633   5.619   8.224   5.199
25464WAT     H176634   5.683   8.203   5.273
25464WAT     H276635   5.671   8.247   5.116
25465WAT      O76636   3.586   6.214   6.216
25465WAT     H176637   3.654   6.157   6.263
25465WAT     H276638   3.632   6.285   6.164
25466WAT      O76639   1.309   7.158   4.071
25466WAT     H176640   1.341   7.234   4.013
25466WAT     H276641   1.307   7.074   4.017
25467WAT      O76642   2.187   4.638   9.093
25467WAT     H176643   2.196   4.544   9.126
25467WAT     H276644   2.265   4.692   9.125
25468WAT      O76645   4.677   3.365   5.518
25468WAT     H176646   4.606   3.414   5.569
25468WAT     H276647   4.760   3.420   5.515
25469WAT      O76648   2.332   9.219   9.165
25469WAT     H176649   2.347   9.307   9.119
25469WAT     H276650   2.277   9.233   9.247
25470WAT      O76651   7.773   2.934   4.757
25470WAT     H176652   7.732   2.842   4.755
25470WAT     H276653   7.762   2.977   4.668
25471WAT      O76654   4.032   3.011   6.430
25471WAT     H176655   4.052   3.096   6.382
25471WAT     H276656   3.935   2.989   6.420
25472WAT      O76657   0.604   1.679   6.823
25472WAT     H176658   0.692   1.640   6.797
25472WAT     H276659   0.550   1.698   6.740
25473WAT      O76660   2.674   1.557   0.166
25473WAT     H176661   2.768   1.581   0.142
25473WAT     H276662   2.674   1.483   0.233
25474WAT      O76663   7.392   3.191   0.019
25474WAT     H176664   7.306   3.238  -0.003
25474WAT     H276665   7.410   3.121  -0.050
25475WAT      O76666   1.447   8.324   5.391
25475WAT     H176667   1.508   8.271   5.449
25475WAT     H276668   1.500   8.383   5.330
25476WAT      O76669   3.800   5.605   3.440
25476WAT     H176670   3.855   5.571   3.516
25476WAT     H276671   3.730   5.537   3.418
25477WAT      O76672   6.610   8.002   6.843
25477WAT     H176673   6.537   8.035   6.784
25477WAT     H276674   6.585   8.017   6.939
25478WAT      O76675   9.321   6.116   2.424
25478WAT     H176676   9.333   6.052   2.499
25478WAT     H276677   9.311   6.065   2.338
25479WAT      O76678   8.876   1.322   2.274
25479WAT     H176679   8.801   1.256   2.278
25479WAT     H276680   8.963   1.273   2.263
25480WAT      O76681   5.477   6.462   5.739
25480WAT     H176682   5.437   6.462   5.647
25480WAT     H276683   5.404   6.459   5.807
25481WAT      O76684   5.130   2.696   1.410
25481WAT     H176685   5.120   2.614   1.467
25481WAT     H276686   5.075   2.685   1.327
25482WAT      O76687   2.127   7.332   9.171
25482WAT     H176688   2.054   7.307   9.234
25482WAT     H276689   2.213   7.342   9.221
25483WAT      O76690   3.451   4.842   1.297
25483WAT     H176691   3.536   4.836   1.244
25483WAT     H276692   3.448   4.767   1.363
25484WAT      O76693   1.048   0.966   2.730
25484WAT     H176694   1.018   0.971   2.826
25484WAT     H276695   0.996   0.895   2.683
25485WAT      O76696   9.157   0.468   2.205
25485WAT     H176697   9.061   0.478   2.179
25485WAT     H276698   9.192   0.557   2.236
25486WAT      O76699   7.897   1.322   5.450
25486WAT     H176700   7.943   1.239   5.479
25486WAT     H276701   7.799   1.304   5.439
25487WAT      O76702   2.449   8.306   1.902
25487WAT     H176703   2.349   8.312   1.895
25487WAT     H276704   2.479   8.215   1.874
25488WAT      O76705   3.895   7.337   2.015
25488WAT     H176706   3.797   7.340   2.036
25488WAT     H276707   3.917   7.249   1.973
25489WAT      O76708   9.830   6.507   3.493
25489WAT     H176709   9.886   6.493   3.411
25489WAT     H276710   9.863   6.587   3.543
25490WAT      O76711   9.342   9.773   6.610
25490WAT     H176712   9.309   9.757   6.517
25490WAT     H276713   9.408   9.849   6.610
25491WAT      O76714   1.637   7.134   2.626
25491WAT     H176715   1.564   7.191   2.589
25491WAT     H276716   1.599   7.051   2.665
25492WAT      O76717   0.239   3.574   5.919
25492WAT     H176718   0.257   3.501   5.853
25492WAT     H276719   0.141   3.592   5.923
25493WAT      O76720   2.969   2.149   2.113
25493WAT     H176721   2.894   2.118   2.054
25493WAT     H276722   2.936   2.223   2.172
25494WAT      O76723   9.414   0.308   2.531
25494WAT     H176724   9.317   0.332   2.541
25494WAT     H276725   9.470   0.387   2.555
25495WAT      O76726   6.351   2.244   7.121
25495WAT     H176727   6.332   2.202   7.032
25495WAT     H276728   6.438   2.294   7.116
25496WAT      O76729   2.455   9.761   7.541
25496WAT     H176730   2.451   9.773   7.442
25496WAT     H276731   2.426   9.845   7.587
25497WAT      O76732   2.637   6.246   9.788
25497WAT     H176733   2.650   6.154   9.750
25497WAT     H276734   2.726   6.290   9.801
25498WAT      O76735   9.202   3.771   5.953
25498WAT     H176736   9.216   3.756   5.855
25498WAT     H276737   9.116   3.728   5.981
25499WAT      O76738   8.888   6.480   2.011
25499WAT     H176739   8.911   6.438   2.099
25499WAT     H276740   8.792   6.461   1.989
25500WAT      O76741   6.262   4.628   2.534
25500WAT     H176742   6.347   4.576   2.524
25500WAT     H276743   6.240   4.638   2.631
25501WAT      O76744   1.664   1.399   4.571
25501WAT     H176745   1.726   1.331   4.609
25501WAT     H276746   1.696   1.426   4.480
25502WAT      O76747   8.771   2.172   3.443
25502WAT     H176748   8.705   2.203   3.510
25502WAT     H276749   8.728   2.107   3.380
25503WAT      O76750   9.284   6.636   1.878
25503WAT     H176751   9.261   6.716   1.933
25503WAT     H276752   9.222   6.561   1.900
25504WAT      O76753   4.141   5.253   8.645
25504WAT     H176754   4.158   5.346   8.614
25504WAT     H276755   4.124   5.253   8.743
25505WAT      O76756   9.642   8.182   9.105
25505WAT     H176757   9.712   8.125   9.149
25505WAT     H276758   9.637   8.271   9.150
25506WAT      O76759   1.377   7.691   2.034
25506WAT     H176760   1.463   7.715   1.990
25506WAT     H276761   1.343   7.604   1.999
25507WAT      O76762   6.868   0.454   5.231
25507WAT     H176763   6.876   0.419   5.137
25507WAT     H276764   6.941   0.414   5.287
25508WAT      O76765   4.217   4.564   6.432
25508WAT     H176766   4.233   4.500   6.508
25508WAT     H276767   4.276   4.540   6.355
25509WAT      O76768   9.667   3.695   6.156
25509WAT     H176769   9.585   3.640   6.140
25509WAT     H276770   9.643   3.792   6.159
25510WAT      O76771   1.796   8.938   3.575
25510WAT     H176772   1.731   8.884   3.629
25510WAT     H276773   1.889   8.905   3.592
25511WAT      O76774   6.218   9.778   3.262
25511WAT     H176775   6.208   9.829   3.347
25511WAT     H276776   6.238   9.841   3.187
25512WAT      O76777   3.708   7.185   7.569
25512WAT     H176778   3.696   7.226   7.660
25512WAT     H276779   3.803   7.197   7.540
25513WAT      O76780   0.924   8.532   3.781
25513WAT     H176781   0.912   8.621   3.736
25513WAT     H276782   1.020   8.506   3.779
25514WAT      O76783   0.683   3.351   0.281
25514WAT     H176784   0.735   3.328   0.199
25514WAT     H276785   0.592   3.309   0.275
25515WAT      O76786   9.175   6.231   0.982
25515WAT     H176787   9.150   6.177   0.901
25515WAT     H276788   9.235   6.177   1.040
25516WAT      O76789   3.031   9.799   8.876
25516WAT     H176790   2.991   9.888   8.896
25516WAT     H276791   3.117   9.790   8.925
25517WAT      O76792   8.021   7.960   1.138
25517WAT     H176793   8.048   7.947   1.042
25517WAT     H276794   7.982   8.052   1.149
25518WAT      O76795   6.579   1.031   3.519
25518WAT     H176796   6.629   1.083   3.450
25518WAT     H276797   6.487   1.011   3.485
25519WAT      O76798   7.590   5.799   9.462
25519WAT     H176799   7.615   5.806   9.366
25519WAT     H276800   7.615   5.883   9.510
25520WAT      O76801   5.850   2.848   4.784
25520WAT     H176802   5.894   2.865   4.872
25520WAT     H276803   5.902   2.777   4.734
25521WAT      O76804   8.577   7.320   3.460
25521WAT     H176805   8.667   7.279   3.477
25521WAT     H276806   8.567   7.402   3.517
25522WAT      O76807   7.365   6.277   4.184
25522WAT     H176808   7.359   6.226   4.269
25522WAT     H276809   7.446   6.248   4.133
25523WAT      O76810   9.096   9.407   2.351
25523WAT     H176811   9.141   9.395   2.439
25523WAT     H276812   9.152   9.467   2.293
25524WAT      O76813   6.691   8.718   0.044
25524WAT     H176814   6.646   8.704   0.133
25524WAT     H276815   6.624   8.755  -0.021
25525WAT      O76816   9.009   3.490   6.596
25525WAT     H176817   8.967   3.399   6.593
25525WAT     H276818   9.081   3.492   6.666
25526WAT      O76819   7.051   8.841   0.351
25526WAT     H176820   7.148   8.819   0.364
25526WAT     H276821   7.026   8.828   0.255
25527WAT      O76822   7.251   2.991   3.524
25527WAT     H176823   7.155   2.970   3.543
25527WAT     H276824   7.266   3.089   3.530
25528WAT      O76825   2.837   8.915   5.905
25528WAT     H176826   2.846   8.868   5.993
25528WAT     H276827   2.763   8.981   5.909
25529WAT      O76828   3.829   4.490   9.631
25529WAT     H176829   3.863   4.421   9.695
25529WAT     H276830   3.777   4.444   9.558
25530WAT      O76831   6.804   4.116   5.996
25530WAT     H176832   6.785   4.111   6.094
25530WAT     H276833   6.776   4.031   5.952
25531WAT      O76834   7.252   8.844   2.718
25531WAT     H176835   7.314   8.791   2.775
25531WAT     H276836   7.267   8.819   2.622
25532WAT      O76837   5.675   8.499   1.835
25532WAT     H176838   5.735   8.519   1.757
25532WAT     H276839   5.626   8.414   1.818
25533WAT      O76840   3.513   4.615   7.289
25533WAT     H176841   3.574   4.693   7.279
25533WAT     H276842   3.468   4.619   7.379
25534WAT      O76843   5.946   2.656   8.472
25534WAT     H176844   5.972   2.663   8.376
25534WAT     H276845   6.010   2.709   8.528
25535WAT      O76846   6.196   8.153   5.622
25535WAT     H176847   6.107   8.199   5.633
25535WAT     H276848   6.180   8.058   5.592
25536WAT      O76849   6.806   8.069   4.699
25536WAT     H176850   6.746   8.032   4.628
25536WAT     H276851   6.758   8.072   4.786
25537WAT      O76852   3.370   7.024   2.081
25537WAT     H176853   3.385   7.096   2.149
25537WAT     H276854   3.396   7.057   1.990
25538WAT      O76855   3.268   9.691   5.894
25538WAT     H176856   3.282   9.790   5.903
25538WAT     H276857   3.357   9.645   5.894
25539WAT      O76858   9.337   9.020   0.094
25539WAT     H176859   9.352   8.951   0.023
25539WAT     H276860   9.294   8.978   0.174
25540WAT      O76861   9.268   2.082   3.394
25540WAT     H176862   9.343   2.085   3.461
25540WAT     H276863   9.181   2.089   3.441
25541WAT      O76864   7.120   3.190   7.419
25541WAT     H176865   7.079   3.198   7.510
25541WAT     H276866   7.117   3.280   7.374
25542WAT      O76867   0.584   4.204   6.385
25542WAT     H176868   0.503   4.193   6.442
25542WAT     H276869   0.558   4.248   6.299
25543WAT      O76870   3.905   2.705   8.245
25543WAT     H176871   3.993   2.743   8.273
25543WAT     H276872   3.863   2.657   8.321
25544WAT      O76873   2.604   6.357   9.312
25544WAT     H176874   2.596   6.270   9.361
25544WAT     H276875   2.531   6.419   9.343
25545WAT      O76876   6.444   4.543   5.622
25545WAT     H176877   6.381   4.603   5.671
25545WAT     H276878   6.401   4.510   5.538
25546WAT      O76879   7.387   8.269   2.161
25546WAT     H176880   7.434   8.356   2.175
25546WAT     H276881   7.371   8.225   2.250
25547WAT      O76882   3.477   9.133   9.337
25547WAT     H176883   3.422   9.050   9.331
25547WAT     H276884   3.507   9.159   9.245
25548WAT      O76885   5.559   2.476   0.146
25548WAT     H176886   5.480   2.538   0.144
25548WAT     H276887   5.528   2.383   0.164
25549WAT      O76888   1.272   0.657   3.241
25549WAT     H176889   1.225   0.570   3.224
25549WAT     H276890   1.371   0.643   3.235
25550WAT      O76891   7.375   4.607   8.825
25550WAT     H176892   7.464   4.645   8.797
25550WAT     H276893   7.338   4.551   8.752
25551WAT      O76894   5.659   8.031   0.393
25551WAT     H176895   5.724   8.050   0.320
25551WAT     H276896   5.596   7.959   0.364
25552WAT      O76897   6.009   2.577   5.664
25552WAT     H176898   6.080   2.582   5.734
25552WAT     H276899   5.993   2.481   5.640
25553WAT      O76900   8.080   7.607   6.700
25553WAT     H176901   8.031   7.694   6.695
25553WAT     H276902   8.032   7.546   6.764
25554WAT      O76903   7.425   3.116   8.118
25554WAT     H176904   7.486   3.085   8.045
25554WAT     H276905   7.479   3.140   8.199
25555WAT      O76906   5.245   2.223   3.791
25555WAT     H176907   5.332   2.218   3.741
25555WAT     H276908   5.234   2.316   3.828
25556WAT      O76909   6.086   1.166   1.042
25556WAT     H176910   6.168   1.218   1.020
25556WAT     H276911   6.106   1.068   1.039
25557WAT      O76912   8.518   6.876   1.302
25557WAT     H176913   8.558   6.957   1.345
25557WAT     H276914   8.481   6.816   1.373
25558WAT      O76915   7.425   0.308   3.383
25558WAT     H176916   7.504   0.323   3.324
25558WAT     H276917   7.346   0.284   3.327
25559WAT      O76918   5.654   7.858   1.777
25559WAT     H176919   5.615   7.910   1.853
25559WAT     H276920   5.724   7.912   1.731
25560WAT      O76921   2.059   1.839   2.842
25560WAT     H176922   2.080   1.759   2.899
25560WAT     H276923   2.091   1.922   2.888
25561WAT      O76924   6.704   6.854   2.535
25561WAT     H176925   6.796   6.832   2.565
25561WAT     H276926   6.699   6.847   2.435
25562WAT      O76927   6.158   1.256   0.640
25562WAT     H176928   6.161   1.312   0.557
25562WAT     H276929   6.200   1.307   0.716
25563WAT      O76930   2.215   3.626   9.663
25563WAT     H176931   2.291   3.568   9.633
25563WAT     H276932   2.252   3.708   9.707
25564WAT      O76933   3.653   8.374   6.144
25564WAT     H176934   3.736   8.373   6.087
25564WAT     H276935   3.640   8.465   6.182
25565WAT      O76936   0.088   8.593   3.729
25565WAT     H176937   0.166   8.571   3.787
25565WAT     H276938   0.006   8.601   3.786
25566WAT      O76939   5.718   6.449   9.234
25566WAT     H176940   5.800   6.437   9.180
25566WAT     H276941   5.701   6.546   9.249
25567WAT      O76942   8.351   1.040   2.454
25567WAT     H176943   8.394   1.015   2.541
25567WAT     H276944   8.274   1.102   2.472
25568WAT      O76945   9.325   6.432   7.678
25568WAT     H176946   9.415   6.412   7.639
25568WAT     H276947   9.271   6.484   7.612
25569WAT      O76948   7.316   3.337   9.440
25569WAT     H176949   7.257   3.370   9.366
25569WAT     H276950   7.336   3.240   9.425
25570WAT      O76951   7.937   2.803   4.493
25570WAT     H176952   7.950   2.896   4.526
25570WAT     H276953   7.913   2.805   4.396
25571WAT      O76954   4.121   9.136   6.828
25571WAT     H176955   4.064   9.189   6.890
25571WAT     H276956   4.113   9.039   6.851
25572WAT      O76957   9.314   1.796   3.058
25572WAT     H176958   9.321   1.815   2.960
25572WAT     H276959   9.290   1.700   3.071
25573WAT      O76960   9.702   5.365   5.390
25573WAT     H176961   9.773   5.406   5.447
25573WAT     H276962   9.623   5.342   5.446
25574WAT      O76963   2.211   8.296   5.471
25574WAT     H176964   2.298   8.258   5.502
25574WAT     H276965   2.165   8.230   5.412
25575WAT      O76966   3.300   9.232   5.490
25575WAT     H176967   3.295   9.252   5.588
25575WAT     H276968   3.228   9.283   5.442
25576WAT      O76969   4.259   0.087   6.505
25576WAT     H176970   4.312   0.160   6.548
25576WAT     H276971   4.162   0.112   6.503
25577WAT      O76972   2.201   2.336   7.923
25577WAT     H176973   2.128   2.316   7.989
25577WAT     H276974   2.289   2.341   7.971
25578WAT      O76975   4.217   6.169   7.034
25578WAT     H176976   4.306   6.153   7.076
25578WAT     H276977   4.149   6.110   7.079
25579WAT      O76978   9.769   4.267   6.926
25579WAT     H176979   9.669   4.271   6.932
25579WAT     H276980   9.798   4.303   6.837
25580WAT      O76981   7.115   9.676   3.337
25580WAT     H176982   7.197   9.675   3.280
25580WAT     H276983   7.038   9.713   3.285
25581WAT      O76984   9.660   7.548   4.124
25581WAT     H176985   9.630   7.608   4.049
25581WAT     H276986   9.668   7.602   4.208
25582WAT      O76987   8.369   5.090   3.280
25582WAT     H176988   8.291   5.098   3.218
25582WAT     H276989   8.362   5.159   3.351
25583WAT      O76990   7.561   0.316   1.388
25583WAT     H176991   7.576   0.294   1.291
25583WAT     H276992   7.623   0.262   1.444
25584WAT      O76993   5.278   1.143   5.151
25584WAT     H176994   5.237   1.199   5.080
25584WAT     H276995   5.341   1.199   5.206
25585WAT      O76996   5.423   9.571   8.515
25585WAT     H176997   5.336   9.558   8.562
25585WAT     H276998   5.458   9.663   8.535
25586WAT      O76999   3.406   0.275   8.794
25586WAT     H177000   3.337   0.347   8.790
25586WAT     H277001   3.494   0.312   8.764
25587WAT      O77002   4.271   2.769   4.760
25587WAT     H177003   4.276   2.765   4.660
25587WAT     H277004   4.347   2.824   4.795
25588WAT      O77005   0.368   0.493   4.207
25588WAT     H177006   0.337   0.518   4.115
25588WAT     H277007   0.465   0.466   4.202
25589WAT      O77008   4.650   8.431   3.464
25589WAT     H177009   4.729   8.408   3.406
25589WAT     H277010   4.594   8.350   3.478
25590WAT      O77011   9.816   0.356   4.693
25590WAT     H177012   9.746   0.334   4.624
25590WAT     H277013   9.901   0.308   4.672
25591WAT      O77014   7.841   3.291   6.704
25591WAT     H177015   7.901   3.312   6.627
25591WAT     H277016   7.798   3.202   6.689
25592WAT      O77017   6.596   3.362   4.869
25592WAT     H177018   6.578   3.452   4.909
25592WAT     H277019   6.694   3.347   4.865
25593WAT      O77020   0.683   2.404   7.983
25593WAT     H177021   0.687   2.436   7.888
25593WAT     H277022   0.775   2.383   8.015
25594WAT      O77023   2.518   4.629   9.012
25594WAT     H177024   2.513   4.625   9.111
25594WAT     H277025   2.551   4.720   8.984
25595WAT      O77026   5.074   3.021   0.395
25595WAT     H177027   5.049   2.924   0.403
25595WAT     H277028   5.130   3.034   0.313
25596WAT      O77029   7.223   3.000   2.323
25596WAT     H177030   7.227   2.917   2.267
25596WAT     H277031   7.314   3.043   2.325
25597WAT      O77032   1.532   2.010   7.441
25597WAT     H177033   1.603   1.944   7.466
25597WAT     H277034   1.442   1.968   7.455
25598WAT      O77035   1.733   4.595   2.139
25598WAT     H177036   1.702   4.611   2.045
25598WAT     H277037   1.673   4.644   2.202
25599WAT      O77038   2.944   6.510   6.883
25599WAT     H177039   3.011   6.455   6.833
25599WAT     H277040   2.908   6.581   6.823
25600WAT      O77041   0.835   8.624   3.449
25600WAT     H177042   0.756   8.580   3.405
25600WAT     H277043   0.803   8.688   3.519
25601WAT      O77044   3.772   0.432   1.739
25601WAT     H177045   3.796   0.336   1.754
25601WAT     H277046   3.812   0.488   1.812
25602WAT      O77047   5.788   6.637   3.933
25602WAT     H177048   5.815   6.731   3.956
25602WAT     H277049   5.719   6.639   3.861
25603WAT      O77050   9.630   6.055   2.062
25603WAT     H177051   9.556   5.989   2.049
25603WAT     H277052   9.592   6.147   2.063
25604WAT      O77053   8.963   8.073   8.589
25604WAT     H177054   8.930   8.167   8.576
25604WAT     H277055   8.951   8.047   8.684
25605WAT      O77056   8.226   0.139   5.166
25605WAT     H177057   8.159   0.181   5.227
25605WAT     H277058   8.246   0.201   5.090
25606WAT      O77059   8.483   9.419   2.909
25606WAT     H177060   8.438   9.492   2.960
25606WAT     H277061   8.423   9.339   2.906
25607WAT      O77062   6.019   5.622   8.290
25607WAT     H177063   6.064   5.537   8.262
25607WAT     H277064   6.023   5.689   8.216
25608WAT      O77065   4.371   9.000   5.841
25608WAT     H177066   4.281   8.994   5.797
25608WAT     H277067   4.425   9.071   5.797
25609WAT      O77068   0.091   4.251   5.436
25609WAT     H177069   0.170   4.276   5.379
25609WAT     H277070   0.092   4.305   5.520
25610WAT      O77071   9.501   2.415   8.757
25610WAT     H177072   9.542   2.325   8.765
25610WAT     H277073   9.560   2.482   8.803
25611WAT      O77074   5.211   9.523   1.092
25611WAT     H177075   5.299   9.565   1.072
25611WAT     H277076   5.179   9.554   1.182
25612WAT      O77077   7.635   3.065   0.452
25612WAT     H177078   7.636   3.155   0.408
25612WAT     H277079   7.577   3.067   0.533
25613WAT      O77080   6.129   6.888   7.755
25613WAT     H177081   6.071   6.934   7.688
25613WAT     H277082   6.206   6.844   7.709
25614WAT      O77083   9.158   3.660   8.414
25614WAT     H177084   9.183   3.565   8.399
25614WAT     H277085   9.129   3.672   8.509
25615WAT      O77086   9.241   9.661   8.331
25615WAT     H177087   9.204   9.703   8.249
25615WAT     H277088   9.168   9.616   8.382
25616WAT      O77089   3.734   0.922   5.985
25616WAT     H177090   3.779   0.838   6.016
25616WAT     H277091   3.661   0.947   6.049
25617WAT      O77092   7.480   2.169   0.873
25617WAT     H177093   7.388   2.161   0.835
25617WAT     H277094   7.500   2.265   0.893
25618WAT      O77095   1.210   0.869   4.691
25618WAT     H177096   1.192   0.788   4.748
25618WAT     H277097   1.256   0.841   4.607
25619WAT      O77098   9.888   0.411   5.673
25619WAT     H177099   9.845   0.398   5.763
25619WAT     H277100   9.915   0.507   5.663
25620WAT      O77101   6.923   9.081   2.395
25620WAT     H177102   6.943   9.152   2.462
25620WAT     H277103   6.912   8.993   2.443
25621WAT      O77104   2.726   0.185   8.601
25621WAT     H177105   2.823   0.173   8.624
25621WAT     H277106   2.696   0.275   8.632
25622WAT      O77107   2.755   7.635   6.242
25622WAT     H177108   2.779   7.706   6.309
25622WAT     H277109   2.837   7.608   6.191
25623WAT      O77110   0.097   2.424   6.113
25623WAT     H177111   0.007   2.388   6.088
25623WAT     H277112   0.165   2.393   6.047
25624WAT      O77113   5.828   9.318   3.153
25624WAT     H177114   5.913   9.322   3.101
25624WAT     H277115   5.806   9.410   3.187
25625WAT      O77116   9.382   9.844   4.447
25625WAT     H177117   9.456   9.784   4.416
25625WAT     H277118   9.299   9.789   4.461
25626WAT      O77119   6.121   8.445   3.920
25626WAT     H177120   6.073   8.401   3.843
25626WAT     H277121   6.212   8.473   3.890
25627WAT      O77122   2.353   9.362   0.764
25627WAT     H177123   2.323   9.269   0.782
25627WAT     H277124   2.330   9.387   0.670
25628WAT      O77125   4.371   3.669   4.230
25628WAT     H177126   4.281   3.649   4.190
25628WAT     H277127   4.382   3.618   4.316
25629WAT      O77128   4.342   4.955   0.406
25629WAT     H177129   4.342   4.994   0.314
25629WAT     H277130   4.413   4.886   0.413
25630WAT      O77131   9.438   3.075   8.767
25630WAT     H177132   9.534   3.059   8.744
25630WAT     H277133   9.430   3.092   8.865
25631WAT      O77134   7.297   5.641   9.050
25631WAT     H177135   7.338   5.684   8.969
25631WAT     H277136   7.209   5.601   9.025
25632WAT      O77137   8.455   8.208   3.632
25632WAT     H177138   8.454   8.116   3.669
25632WAT     H277139   8.369   8.226   3.585
25633WAT      O77140   7.367   3.009   0.214
25633WAT     H177141   7.448   3.029   0.269
25633WAT     H277142   7.348   3.086   0.153
25634WAT      O77143   5.870   9.781   7.339
25634WAT     H177144   5.964   9.748   7.347
25634WAT     H277145   5.822   9.726   7.270
25635WAT      O77146   0.955   6.565   2.693
25635WAT     H177147   0.861   6.537   2.675
25635WAT     H277148   0.975   6.649   2.643
25636WAT      O77149   6.848   4.246   3.410
25636WAT     H177150   6.878   4.253   3.505
25636WAT     H277151   6.845   4.337   3.369
25637WAT      O77152   0.052   7.824   6.829
25637WAT     H177153   0.038   7.851   6.733
25637WAT     H277154   0.149   7.807   6.845
25638WAT      O77155   4.413   2.972   3.966
25638WAT     H177156   4.501   2.924   3.961
25638WAT     H277157   4.374   2.960   4.057
25639WAT      O77158   4.878   6.910   3.954
25639WAT     H177159   4.866   6.977   3.881
25639WAT     H277160   4.818   6.932   4.030
25640WAT      O77161   2.408   1.145   6.223
25640WAT     H177162   2.489   1.170   6.276
25640WAT     H277163   2.401   1.203   6.142
25641WAT      O77164   4.985   3.480   0.794
25641WAT     H177165   5.046   3.482   0.873
25641WAT     H277166   5.008   3.555   0.732
25642WAT      O77167   1.972   9.385   1.504
25642WAT     H177168   1.999   9.420   1.594
25642WAT     H277169   2.045   9.327   1.467
25643WAT      O77170   2.815   8.680   9.501
25643WAT     H177171   2.804   8.730   9.416
25643WAT     H277172   2.899   8.626   9.498
25644WAT      O77173   5.233   8.752   0.128
25644WAT     H177174   5.134   8.749   0.114
25644WAT     H277175   5.278   8.687   0.066
25645WAT      O77176   1.940   9.476   9.427
25645WAT     H177177   1.934   9.553   9.490
25645WAT     H277178   2.032   9.436   9.433
25646WAT      O77179   1.019   3.195   4.510
25646WAT     H177180   1.010   3.295   4.514
25646WAT     H277181   1.003   3.156   4.601
25647WAT      O77182   4.502   6.847   8.414
25647WAT     H177183   4.441   6.860   8.336
25647WAT     H277184   4.448   6.850   8.498
25648WAT      O77185   5.319   4.771   3.362
25648WAT     H177186   5.296   4.681   3.398
25648WAT     H277187   5.396   4.763   3.299
25649WAT      O77188   5.627   4.395   2.158
25649WAT     H177189   5.667   4.329   2.221
25649WAT     H277190   5.660   4.378   2.066
25650WAT      O77191   2.347   9.631   1.173
25650WAT     H177192   2.379   9.648   1.080
25650WAT     H277193   2.262   9.580   1.170
25651WAT      O77194   0.614   5.127   3.400
25651WAT     H177195   0.676   5.052   3.423
25651WAT     H277196   0.582   5.117   3.306
25652WAT      O77197   3.172   5.732   0.866
25652WAT     H177198   3.081   5.712   0.829
25652WAT     H277199   3.240   5.674   0.821
25653WAT      O77200   6.876   9.254   2.029
25653WAT     H177201   6.846   9.164   2.000
25653WAT     H277202   6.917   9.302   1.951
25654WAT      O77203   3.141   6.917   4.030
25654WAT     H177204   3.236   6.916   3.998
25654WAT     H277205   3.141   6.919   4.130
25655WAT      O77206   7.955   6.291   6.597
25655WAT     H177207   7.957   6.194   6.623
25655WAT     H277208   7.968   6.347   6.679
25656WAT      O77209   1.257   0.062   4.019
25656WAT     H177210   1.343   0.071   3.970
25656WAT     H277211   1.264   0.107   4.108
25657WAT      O77212   2.247   1.089   7.446
25657WAT     H177213   2.342   1.068   7.422
25657WAT     H277214   2.228   1.185   7.426
25658WAT      O77215   0.037   3.105   2.983
25658WAT     H177216   0.112   3.167   3.007
25658WAT     H277217   0.027   3.103   2.883
25659WAT      O77218   8.773   5.032   6.474
25659WAT     H177219   8.823   4.948   6.455
25659WAT     H277220   8.836   5.102   6.506
25660WAT      O77221   0.392   7.662   3.009
25660WAT     H177222   0.485   7.697   2.996
25660WAT     H277223   0.329   7.714   2.952
25661WAT      O77224   3.478   9.477   2.314
25661WAT     H177225   3.512   9.570   2.310
25661WAT     H277226   3.387   9.473   2.274
25662WAT      O77227   7.325   1.103   6.577
25662WAT     H177228   7.360   1.022   6.530
25662WAT     H277229   7.399   1.169   6.589
25663WAT      O77230   0.328   2.926   4.876
25663WAT     H177231   0.384   2.923   4.794
25663WAT     H277232   0.356   3.003   4.933
25664WAT      O77233   9.215   5.313   6.669
25664WAT     H177234   9.230   5.246   6.742
25664WAT     H277235   9.192   5.402   6.710
25665WAT      O77236   5.663   7.822   4.760
25665WAT     H177237   5.719   7.884   4.705
25665WAT     H277238   5.702   7.730   4.756
25666WAT      O77239   4.602   4.899   9.112
25666WAT     H177240   4.683   4.948   9.145
25666WAT     H277241   4.622   4.801   9.108
25667WAT      O77242   2.009   0.924   6.133
25667WAT     H177243   2.064   0.864   6.191
25667WAT     H277244   2.061   0.949   6.051
25668WAT      O77245   4.969   9.100   3.073
25668WAT     H177246   5.063   9.111   3.042
25668WAT     H277247   4.922   9.034   3.013
25669WAT      O77248   0.505   2.235   4.836
25669WAT     H177249   0.486   2.323   4.881
25669WAT     H277250   0.493   2.244   4.738
25670WAT      O77251   8.655   5.199   2.442
25670WAT     H177252   8.732   5.254   2.476
25670WAT     H277253   8.678   5.102   2.449
25671WAT      O77254   1.422   3.107   9.793
25671WAT     H177255   1.470   3.140   9.712
25671WAT     H277256   1.423   3.178   9.864
25672WAT      O77257   9.214   2.142   5.495
25672WAT     H177258   9.306   2.151   5.532
25672WAT     H277259   9.187   2.228   5.452
25673WAT      O77260   7.114   3.912   8.816
25673WAT     H177261   7.148   3.996   8.772
25673WAT     H277262   7.083   3.848   8.746
25674WAT      O77263   5.879   7.775   7.616
25674WAT     H177264   5.801   7.789   7.555
25674WAT     H277265   5.862   7.822   7.703
25675WAT      O77266   1.641   4.193   8.078
25675WAT     H177267   1.628   4.292   8.090
25675WAT     H277268   1.738   4.173   8.064
25676WAT      O77269   5.790   5.008   9.649
25676WAT     H177270   5.760   4.976   9.559
25676WAT     H277271   5.827   4.931   9.701
25677WAT      O77272   5.858   6.335   8.430
25677WAT     H177273   5.877   6.237   8.422
25677WAT     H277274   5.802   6.352   8.511
25678WAT      O77275   1.044   8.370   8.427
25678WAT     H177276   1.066   8.339   8.519
25678WAT     H277277   1.005   8.294   8.375
25679WAT      O77278   7.633   1.277   2.486
25679WAT     H177279   7.674   1.213   2.420
25679WAT     H277280   7.561   1.229   2.537
25680WAT      O77281   3.537   0.187   7.431
25680WAT     H177282   3.477   0.193   7.511
25680WAT     H277283   3.589   0.272   7.422
25681WAT      O77284   1.556   2.011   0.632
25681WAT     H177285   1.465   1.993   0.594
25681WAT     H277286   1.605   2.076   0.573
25682WAT      O77287   6.568   7.531   5.382
25682WAT     H177288   6.597   7.500   5.291
25682WAT     H277289   6.609   7.621   5.400
25683WAT      O77290   9.188   7.860   4.201
25683WAT     H177291   9.112   7.925   4.197
25683WAT     H277292   9.273   7.906   4.176
25684WAT      O77293   1.727   7.731   8.850
25684WAT     H177294   1.812   7.697   8.889
25684WAT     H277295   1.731   7.724   8.750
25685WAT      O77296   1.429   6.900   4.791
25685WAT     H177297   1.433   6.964   4.715
25685WAT     H277298   1.426   6.950   4.878
25686WAT      O77299   4.944   7.335   3.944
25686WAT     H177300   4.997   7.253   3.966
25686WAT     H277301   4.993   7.389   3.875
25687WAT      O77302   3.661   0.663   8.828
25687WAT     H177303   3.635   0.703   8.741
25687WAT     H277304   3.579   0.640   8.880
25688WAT      O77305   7.368   8.559   9.870
25688WAT     H177306   7.376   8.597   9.962
25688WAT     H277307   7.381   8.631   9.802
25689WAT      O77308   5.023   5.123   1.647
25689WAT     H177309   4.954   5.123   1.720
25689WAT     H277310   5.009   5.203   1.589
25690WAT      O77311   8.107   2.832   2.844
25690WAT     H177312   8.182   2.845   2.909
25690WAT     H277313   8.118   2.745   2.796
25691WAT      O77314   5.671   9.694   1.840
25691WAT     H177315   5.614   9.637   1.899
25691WAT     H277316   5.616   9.728   1.764
25692WAT      O77317   0.193   5.576   7.238
25692WAT     H177318   0.263   5.523   7.191
25692WAT     H277319   0.199   5.672   7.209
25693WAT      O77320   1.910   4.409   5.057
25693WAT     H177321   1.927   4.421   4.959
25693WAT     H277322   1.828   4.460   5.083
25694WAT      O77323   3.829   1.416   5.951
25694WAT     H177324   3.886   1.499   5.954
25694WAT     H277325   3.860   1.352   6.021
25695WAT      O77326   0.311   9.451   9.863
25695WAT     H177327   0.340   9.364   9.823
25695WAT     H277328   0.270   9.509   9.792
25696WAT      O77329   0.858   5.982   2.351
25696WAT     H177330   0.818   5.977   2.259
25696WAT     H277331   0.918   5.904   2.366
25697WAT      O77332   9.589   8.235   5.149
25697WAT     H177333   9.503   8.235   5.201
25697WAT     H277334   9.619   8.141   5.134
25698WAT      O77335   0.514   4.515   4.700
25698WAT     H177336   0.540   4.470   4.614
25698WAT     H277337   0.580   4.491   4.771
25699WAT      O77338   1.455   2.509   7.368
25699WAT     H177339   1.402   2.472   7.292
25699WAT     H277340   1.451   2.446   7.445
25700WAT      O77341   4.624   8.112   5.864
25700WAT     H177342   4.530   8.124   5.834
25700WAT     H277343   4.627   8.100   5.963
25701WAT      O77344   8.985   4.530   4.604
25701WAT     H177345   8.968   4.431   4.600
25701WAT     H277346   8.897   4.578   4.610
25702WAT      O77347   8.498   8.273   1.003
25702WAT     H177348   8.477   8.246   0.909
25702WAT     H277349   8.538   8.195   1.051
25703WAT      O77350   2.624   6.767   0.083
25703WAT     H177351   2.640   6.857   0.043
25703WAT     H277352   2.645   6.696   0.016
25704WAT      O77353   5.826   0.074   8.271
25704WAT     H177354   5.864   0.161   8.303
25704WAT     H277355   5.737   0.059   8.314
25705WAT      O77356   7.071   3.446   4.670
25705WAT     H177357   7.023   3.509   4.730
25705WAT     H277358   7.067   3.480   4.576
25706WAT      O77359   2.690   2.222   8.353
25706WAT     H177360   2.615   2.287   8.347
25706WAT     H277361   2.699   2.174   8.267
25707WAT      O77362   8.665   6.643   0.549
25707WAT     H177363   8.616   6.557   0.537
25707WAT     H277364   8.642   6.682   0.638
25708WAT      O77365   0.659   4.671   8.105
25708WAT     H177366   0.741   4.725   8.124
25708WAT     H277367   0.577   4.724   8.127
25709WAT      O77368   4.762   1.357   5.713
25709WAT     H177369   4.683   1.336   5.656
25709WAT     H277370   4.830   1.407   5.659
25710WAT      O77371   1.227   5.936   1.114
25710WAT     H177372   1.265   5.878   1.042
25710WAT     H277373   1.287   5.935   1.194
25711WAT      O77374   2.704   5.192   2.550
25711WAT     H177375   2.650   5.194   2.635
25711WAT     H277376   2.648   5.228   2.475
25712WAT      O77377   8.693   5.995   1.926
25712WAT     H177378   8.779   6.042   1.907
25712WAT     H277379   8.675   5.927   1.854
25713WAT      O77380   5.683   7.876   7.795
25713WAT     H177381   5.663   7.816   7.872
25713WAT     H277382   5.693   7.970   7.828
25714WAT      O77383   6.930   4.148   6.461
25714WAT     H177384   7.022   4.149   6.422
25714WAT     H277385   6.937   4.144   6.561
25715WAT      O77386   1.778   7.423   2.818
25715WAT     H177387   1.794   7.449   2.913
25715WAT     H277388   1.792   7.324   2.808
25716WAT      O77389   7.025   7.429   8.493
25716WAT     H177390   7.068   7.509   8.451
25716WAT     H277391   6.928   7.446   8.507
25717WAT      O77392   8.147   2.606   7.912
25717WAT     H177393   8.201   2.535   7.867
25717WAT     H277394   8.081   2.644   7.848
25718WAT      O77395   0.860   2.737   8.063
25718WAT     H177396   0.913   2.713   8.144
25718WAT     H277397   0.826   2.831   8.072
25719WAT      O77398   5.958   8.664   4.474
25719WAT     H177399   5.888   8.708   4.530
25719WAT     H277400   5.965   8.568   4.501
25720WAT      O77401   1.256   1.243   6.248
25720WAT     H177402   1.203   1.311   6.197
25720WAT     H277403   1.251   1.262   6.346
25721WAT      O77404   1.861   4.516   6.260
25721WAT     H177405   1.810   4.574   6.324
25721WAT     H277406   1.799   4.485   6.187
25722WAT      O77407   5.965   0.022   6.668
25722WAT     H177408   6.044  -0.033   6.694
25722WAT     H277409   5.987   0.119   6.675
25723WAT      O77410   3.600   6.794   0.417
25723WAT     H177411   3.575   6.701   0.447
25723WAT     H277412   3.619   6.793   0.319
25724WAT      O77413   4.263   3.111   2.637
25724WAT     H177414   4.332   3.151   2.697
25724WAT     H277415   4.301   3.097   2.546
25725WAT      O77416   7.960   0.705   4.177
25725WAT     H177417   8.035   0.639   4.179
25725WAT     H277418   7.989   0.788   4.130
25726WAT      O77419   1.303   9.342   9.175
25726WAT     H177420   1.233   9.372   9.239
25726WAT     H277421   1.377   9.297   9.224
25727WAT      O77422   8.013   3.620   7.956
25727WAT     H177423   7.935   3.580   7.908
25727WAT     H277424   8.097   3.574   7.929
25728WAT      O77425   2.674   3.460   2.243
25728WAT     H177426   2.622   3.445   2.327
25728WAT     H277427   2.640   3.400   2.171
25729WAT      O77428   7.691   1.542   5.502
25729WAT     H177429   7.669   1.445   5.486
25729WAT     H277430   7.636   1.599   5.440
25730WAT      O77431   7.683   6.733   2.539
25730WAT     H177432   7.612   6.676   2.580
25730WAT     H277433   7.770   6.717   2.587
25731WAT      O77434   4.661   3.868   6.485
25731WAT     H177435   4.612   3.781   6.479
25731WAT     H277436   4.613   3.937   6.432
25732WAT      O77437   3.098   1.423   0.054
25732WAT     H177438   3.185   1.387   0.089
25732WAT     H277439   3.024   1.363   0.083
25733WAT      O77440   2.620   5.823   5.877
25733WAT     H177441   2.679   5.748   5.850
25733WAT     H277442   2.525   5.791   5.885
25734WAT      O77443   9.791   2.125   4.555
25734WAT     H177444   9.797   2.025   4.547
25734WAT     H277445   9.878   2.160   4.590
25735WAT      O77446   3.739   3.728   3.175
25735WAT     H177447   3.639   3.723   3.167
25735WAT     H277448   3.778   3.746   3.084
25736WAT      O77449   3.982   8.835   2.064
25736WAT     H177450   3.959   8.738   2.065
25736WAT     H277451   4.028   8.860   2.149
25737WAT      O77452   2.903   6.655   0.645
25737WAT     H177453   2.811   6.689   0.663
25737WAT     H277454   2.970   6.726   0.667
25738WAT      O77455   8.359   0.988   0.906
25738WAT     H177456   8.392   1.045   0.830
25738WAT     H277457   8.304   1.044   0.968
25739WAT      O77458   5.675   4.969   1.932
25739WAT     H177459   5.629   4.936   1.850
25739WAT     H277460   5.774   4.956   1.924
25740WAT      O77461   3.361   1.720   2.250
25740WAT     H177462   3.377   1.770   2.335
25740WAT     H277463   3.390   1.625   2.262
25741WAT      O77464   9.648   1.153   9.722
25741WAT     H177465   9.635   1.151   9.821
25741WAT     H277466   9.661   1.247   9.691
25742WAT      O77467   9.323   0.066   5.656
25742WAT     H177468   9.385   0.134   5.694
25742WAT     H277469   9.375  -0.014   5.627
25743WAT      O77470   6.511   5.766   8.077
25743WAT     H177471   6.480   5.677   8.110
25743WAT     H277472   6.446   5.837   8.106
25744WAT      O77473   7.334   2.843   6.361
25744WAT     H177474   7.375   2.754   6.381
25744WAT     H277475   7.253   2.830   6.303
25745WAT      O77476   8.501   6.264   4.292
25745WAT     H177477   8.453   6.281   4.378
25745WAT     H277478   8.442   6.292   4.216
25746WAT      O77479   7.908   5.497   2.547
25746WAT     H177480   7.973   5.460   2.481
25746WAT     H277481   7.876   5.423   2.607
25747WAT      O77482   7.462   4.780   7.368
25747WAT     H177483   7.445   4.860   7.310
25747WAT     H277484   7.425   4.797   7.459
25748WAT      O77485   1.223   8.436   6.645
25748WAT     H177486   1.218   8.337   6.659
25748WAT     H277487   1.219   8.456   6.547
25749WAT      O77488   0.092   4.756   8.406
25749WAT     H177489   0.011   4.764   8.464
25749WAT     H277490   0.174   4.761   8.463
25750WAT      O77491   7.546   0.811   8.983
25750WAT     H177492   7.501   0.728   9.015
25750WAT     H277493   7.538   0.883   9.053
25751WAT      O77494   2.555   3.106   1.485
25751WAT     H177495   2.588   3.032   1.544
25751WAT     H277496   2.474   3.147   1.527
25752WAT      O77497   6.641   4.165   0.705
25752WAT     H177498   6.547   4.192   0.723
25752WAT     H277499   6.669   4.198   0.614
25753WAT      O77500   6.922   0.124   2.370
25753WAT     H177501   6.864   0.060   2.421
25753WAT     H277502   6.982   0.173   2.433
25754WAT      O77503   0.272   0.491   5.264
25754WAT     H177504   0.287   0.514   5.360
25754WAT     H277505   0.185   0.443   5.254
25755WAT      O77506   3.285   6.469   0.907
25755WAT     H177507   3.309   6.402   0.977
25755WAT     H277508   3.369   6.502   0.862
25756WAT      O77509   2.504   3.827   9.458
25756WAT     H177510   2.604   3.830   9.451
25756WAT     H277511   2.472   3.734   9.439
25757WAT      O77512   3.141   4.922   3.623
25757WAT     H177513   3.114   4.871   3.705
25757WAT     H277514   3.070   4.911   3.553
25758WAT      O77515   1.824   8.791   6.557
25758WAT     H177516   1.811   8.694   6.534
25758WAT     H277517   1.750   8.820   6.618
25759WAT      O77518   1.881   9.474   2.280
25759WAT     H177519   1.884   9.544   2.351
25759WAT     H277520   1.968   9.423   2.280
25760WAT      O77521   8.888   7.719   4.128
25760WAT     H177522   8.901   7.693   4.032
25760WAT     H277523   8.967   7.689   4.181
25761WAT      O77524   6.030   4.758   2.121
25761WAT     H177525   6.091   4.806   2.184
25761WAT     H277526   6.084   4.699   2.060
25762WAT      O77527   5.188   7.386   4.874
25762WAT     H177528   5.153   7.300   4.909
25762WAT     H277529   5.279   7.372   4.834
25763WAT      O77530   3.096   8.465   2.014
25763WAT     H177531   3.026   8.482   2.083
25763WAT     H277532   3.157   8.392   2.045
25764WAT      O77533   1.168   7.668   7.342
25764WAT     H177534   1.173   7.765   7.363
25764WAT     H277535   1.195   7.653   7.246
25765WAT      O77536   1.453   1.420   9.361
25765WAT     H177537   1.393   1.381   9.291
25765WAT     H277538   1.423   1.389   9.451
25766WAT      O77539   4.845   9.135   5.848
25766WAT     H177540   4.930   9.109   5.802
25766WAT     H277541   4.807   9.216   5.802
25767WAT      O77542   2.155   5.909   9.194
25767WAT     H177543   2.135   5.822   9.240
25767WAT     H277544   2.210   5.967   9.254
25768WAT      O77545   9.653   6.567   1.585
25768WAT     H177546   9.672   6.471   1.604
25768WAT     H277547   9.739   6.617   1.575
25769WAT      O77548   6.299   1.388   3.359
25769WAT     H177549   6.338   1.374   3.450
25769WAT     H277550   6.334   1.473   3.320
25770WAT      O77551   2.067   4.528   1.136
25770WAT     H177552   2.115   4.467   1.072
25770WAT     H277553   2.098   4.509   1.229
25771WAT      O77554   6.421   3.025   3.153
25771WAT     H177555   6.395   3.100   3.093
25771WAT     H277556   6.517   3.035   3.180
25772WAT      O77557   5.520   7.818   1.166
25772WAT     H177558   5.591   7.776   1.110
25772WAT     H277559   5.490   7.904   1.124
25773WAT      O77560   6.409   6.659   3.543
25773WAT     H177561   6.431   6.623   3.633
25773WAT     H277562   6.470   6.736   3.522
25774WAT      O77563   5.594   6.878   9.491
25774WAT     H177564   5.522   6.821   9.531
25774WAT     H277565   5.676   6.822   9.475
25775WAT      O77566   0.583   5.689   1.608
25775WAT     H177567   0.492   5.719   1.638
25775WAT     H277568   0.584   5.590   1.599
25776WAT      O77569   1.704   8.631   0.099
25776WAT     H177570   1.730   8.570   0.174
25776WAT     H277571   1.730   8.725   0.122
25777WAT      O77572   2.046   5.015   5.727
25777WAT     H177573   1.959   5.063   5.733
25777WAT     H277574   2.082   5.022   5.633
25778WAT      O77575   1.751   7.496   9.271
25778WAT     H177576   1.729   7.453   9.184
25778WAT     H277577   1.828   7.448   9.314
25779WAT      O77578   9.754   3.071   3.197
25779WAT     H177579   9.814   3.119   3.133
25779WAT     H277580   9.671   3.042   3.149
25780WAT      O77581   3.341   5.871   0.562
25780WAT     H177582   3.333   5.773   0.578
25780WAT     H277583   3.340   5.889   0.463
25781WAT      O77584   2.702   5.096   5.210
25781WAT     H177585   2.641   5.068   5.283
25781WAT     H277586   2.699   5.029   5.136
25782WAT      O77587   6.023   4.366   8.838
25782WAT     H177588   5.949   4.384   8.773
25782WAT     H277589   6.063   4.277   8.819
25783WAT      O77590   2.837   3.519   1.035
25783WAT     H177591   2.917   3.546   0.981
25783WAT     H277592   2.755   3.559   0.996
25784WAT      O77593   1.242   6.027   4.729
25784WAT     H177594   1.189   5.946   4.703
25784WAT     H277595   1.339   6.002   4.737
25785WAT      O77596   0.327   5.345   6.157
25785WAT     H177597   0.406   5.289   6.180
25785WAT     H277598   0.352   5.411   6.087
25786WAT      O77599   4.313   8.842   1.283
25786WAT     H177600   4.393   8.896   1.311
25786WAT     H277601   4.277   8.793   1.362
25787WAT      O77602   2.891   8.684   4.012
25787WAT     H177603   2.857   8.764   3.962
25787WAT     H277604   2.978   8.655   3.973
25788WAT      O77605   6.150   1.996   7.909
25788WAT     H177606   6.239   1.951   7.918
25788WAT     H277607   6.133   2.016   7.812
25789WAT      O77608   9.665   0.673   9.668
25789WAT     H177609   9.597   0.710   9.730
25789WAT     H277610   9.756   0.681   9.708
25790WAT      O77611   8.174   5.978   3.366
25790WAT     H177612   8.222   6.043   3.425
25790WAT     H277613   8.184   5.886   3.402
25791WAT      O77614   9.853   5.809   0.317
25791WAT     H177615   9.838   5.770   0.408
25791WAT     H277616   9.949   5.835   0.308
25792WAT      O77617   3.741   6.456   0.305
25792WAT     H177618   3.707   6.409   0.224
25792WAT     H277619   3.769   6.388   0.373
25793WAT      O77620   1.504   7.140   5.452
25793WAT     H177621   1.586   7.189   5.481
25793WAT     H277622   1.524   7.087   5.370
25794WAT      O77623   9.242   2.373   1.679
25794WAT     H177624   9.283   2.396   1.768
25794WAT     H277625   9.157   2.322   1.694
25795WAT      O77626   6.593   5.210   6.810
25795WAT     H177627   6.503   5.171   6.792
25795WAT     H277628   6.596   5.304   6.778
25796WAT      O77629   1.760   4.680   7.468
25796WAT     H177630   1.698   4.663   7.545
25796WAT     H277631   1.846   4.632   7.484
25797WAT      O77632   0.709   8.636   2.582
25797WAT     H177633   0.646   8.688   2.524
25797WAT     H277634   0.803   8.657   2.556
25798WAT      O77635   5.687   7.791   6.233
25798WAT     H177636   5.708   7.879   6.191
25798WAT     H277637   5.660   7.805   6.328
25799WAT      O77638   5.530   1.505   2.232
25799WAT     H177639   5.464   1.560   2.283
25799WAT     H277640   5.616   1.499   2.283
25800WAT      O77641   7.686   6.399   8.569
25800WAT     H177642   7.722   6.456   8.495
25800WAT     H277643   7.688   6.303   8.541
25801WAT      O77644   5.010   6.856   5.519
25801WAT     H177645   4.953   6.812   5.589
25801WAT     H277646   4.999   6.807   5.432
25802WAT      O77647   5.743   7.513   4.714
25802WAT     H177648   5.682   7.548   4.643
25802WAT     H277649   5.837   7.539   4.693
25803WAT      O77650   7.968   3.105   5.876
25803WAT     H177651   8.006   3.092   5.968
25803WAT     H277652   7.946   3.016   5.836
25804WAT      O77653   5.849   9.694   3.668
25804WAT     H177654   5.760   9.731   3.695
25804WAT     H277655   5.914   9.769   3.655
25805WAT      O77656   2.801   8.190   9.282
25805WAT     H177657   2.868   8.137   9.333
25805WAT     H277658   2.843   8.276   9.251
25806WAT      O77659   5.896   3.514   4.160
25806WAT     H177660   5.825   3.504   4.230
25806WAT     H277661   5.981   3.545   4.203
25807WAT      O77662   8.834   4.779   0.802
25807WAT     H177663   8.840   4.692   0.753
25807WAT     H277664   8.815   4.853   0.737
25808WAT      O77665   8.723   9.380   5.150
25808WAT     H177666   8.687   9.289   5.171
25808WAT     H277667   8.647   9.442   5.129
25809WAT      O77668   9.717   0.411   7.596
25809WAT     H177669   9.739   0.434   7.501
25809WAT     H277670   9.782   0.343   7.630
25810WAT      O77671   8.004   6.452   3.345
25810WAT     H177672   8.065   6.400   3.286
25810WAT     H277673   7.949   6.515   3.289
25811WAT      O77674   4.623   6.656   5.205
25811WAT     H177675   4.540   6.700   5.238
25811WAT     H277676   4.622   6.559   5.231
25812WAT      O77677   5.387   6.148   1.425
25812WAT     H177678   5.389   6.168   1.523
25812WAT     H277679   5.478   6.119   1.396
25813WAT      O77680   0.244   5.122   5.240
25813WAT     H177681   0.175   5.144   5.170
25813WAT     H277682   0.206   5.057   5.305
25814WAT      O77683   0.138   4.638   7.028
25814WAT     H177684   0.072   4.575   7.068
25814WAT     H277685   0.110   4.732   7.047
25815WAT      O77686   1.267   0.337   5.340
25815WAT     H177687   1.330   0.381   5.403
25815WAT     H277688   1.181   0.316   5.387
25816WAT      O77689   8.308   6.003   3.766
25816WAT     H177690   8.372   5.967   3.834
25816WAT     H277691   8.236   5.936   3.749
25817WAT      O77692   2.146   2.846   0.686
25817WAT     H177693   2.166   2.825   0.782
25817WAT     H277694   2.047   2.855   0.674
25818WAT      O77695   6.169   7.926   0.037
25818WAT     H177696   6.191   7.969   0.124
25818WAT     H277697   6.146   7.830   0.052
25819WAT      O77698   7.408   9.532   4.666
25819WAT     H177699   7.341   9.458   4.674
25819WAT     H277700   7.461   9.539   4.751
25820WAT      O77701   1.527   1.278   8.979
25820WAT     H177702   1.450   1.312   9.031
25820WAT     H277703   1.510   1.183   8.952
25821WAT      O77704   3.831   3.065   2.288
25821WAT     H177705   3.820   3.150   2.236
25821WAT     H277706   3.835   2.988   2.224
25822WAT      O77707   0.588   2.205   2.662
25822WAT     H177708   0.542   2.243   2.742
25822WAT     H277709   0.684   2.233   2.661
25823WAT      O77710   5.337   7.237   4.233
25823WAT     H177711   5.261   7.275   4.286
25823WAT     H277712   5.324   7.139   4.221
25824WAT      O77713   1.451   3.927   1.225
25824WAT     H177714   1.523   3.918   1.156
25824WAT     H277715   1.492   3.943   1.315
25825WAT      O77716   4.800   8.926   3.507
25825WAT     H177717   4.852   8.880   3.435
25825WAT     H277718   4.844   9.014   3.528
25826WAT      O77719   5.140   6.762   0.450
25826WAT     H177720   5.214   6.713   0.495
25826WAT     H277721   5.079   6.698   0.406
25827WAT      O77722   5.515   0.579   4.350
25827WAT     H177723   5.567   0.567   4.434
25827WAT     H277724   5.553   0.655   4.297
25828WAT      O77725   1.270   2.186   9.160
25828WAT     H177726   1.211   2.263   9.134
25828WAT     H277727   1.311   2.146   9.078
25829WAT      O77728   4.893   5.914   6.088
25829WAT     H177729   4.961   5.982   6.115
25829WAT     H277730   4.803   5.944   6.118
25830WAT      O77731   6.730   6.687   6.896
25830WAT     H177732   6.793   6.762   6.875
25830WAT     H277733   6.636   6.721   6.897
25831WAT      O77734   7.904   8.739   2.321
25831WAT     H177735   7.969   8.710   2.391
25831WAT     H277736   7.931   8.701   2.232
25832WAT      O77737   2.665   9.329   5.792
25832WAT     H177738   2.684   9.253   5.730
25832WAT     H277739   2.605   9.296   5.866
25833WAT      O77740   4.511   4.627   3.173
25833WAT     H177741   4.589   4.639   3.235
25833WAT     H277742   4.452   4.707   3.178
25834WAT      O77743   5.480   1.999   2.943
25834WAT     H177744   5.443   2.089   2.966
25834WAT     H277745   5.498   1.948   3.027
25835WAT      O77746   6.083   7.886   9.115
25835WAT     H177747   6.025   7.872   9.195
25835WAT     H277748   6.169   7.837   9.126
25836WAT      O77749   9.720   7.999   5.051
25836WAT     H177750   9.662   7.962   4.979
25836WAT     H277751   9.815   7.999   5.021
25837WAT      O77752   2.890   9.717   1.805
25837WAT     H177753   2.865   9.637   1.860
25837WAT     H277754   2.815   9.783   1.806
25838WAT      O77755   1.853   1.327   6.839
25838WAT     H177756   1.863   1.422   6.869
25838WAT     H277757   1.940   1.295   6.801
25839WAT      O77758   5.219   1.895   4.318
25839WAT     H177759   5.152   1.924   4.250
25839WAT     H277760   5.239   1.972   4.379
25840WAT      O77761   4.865   2.171   6.080
25840WAT     H177762   4.849   2.075   6.053
25840WAT     H277763   4.963   2.190   6.076
25841WAT      O77764   2.898   1.997   4.647
25841WAT     H177765   2.863   2.069   4.706
25841WAT     H277766   2.848   1.912   4.665
25842WAT      O77767   0.128   1.788   9.262
25842WAT     H177768   0.100   1.879   9.293
25842WAT     H277769   0.047   1.732   9.244
25843WAT      O77770   7.918   1.937   8.446
25843WAT     H177771   7.990   1.870   8.429
25843WAT     H277772   7.926   2.012   8.381
25844WAT      O77773   7.221   7.502   6.969
25844WAT     H177774   7.298   7.566   6.967
25844WAT     H277775   7.166   7.514   6.886
25845WAT      O77776   1.148   7.848   8.756
25845WAT     H177777   1.114   7.787   8.684
25845WAT     H277778   1.225   7.901   8.722
25846WAT      O77779   4.170   5.290   5.925
25846WAT     H177780   4.222   5.352   5.866
25846WAT     H277781   4.200   5.301   6.020
25847WAT      O77782   0.039   8.914   3.735
25847WAT     H177783   0.018   8.874   3.645
25847WAT     H277784   0.038   9.013   3.728
25848WAT      O77785   5.259   8.845   6.610
25848WAT     H177786   5.223   8.933   6.643
25848WAT     H277787   5.214   8.821   6.524
25849WAT      O77788   8.490   3.978   3.780
25849WAT     H177789   8.565   3.920   3.811
25849WAT     H277790   8.508   4.072   3.809
25850WAT      O77791   8.236   0.314   1.260
25850WAT     H177792   8.299   0.265   1.320
25850WAT     H277793   8.192   0.388   1.311
25851WAT      O77794   3.744   8.592   9.479
25851WAT     H177795   3.787   8.523   9.421
25851WAT     H277796   3.686   8.652   9.423
25852WAT      O77797   5.752   0.389   0.290
25852WAT     H177798   5.780   0.318   0.354
25852WAT     H277799   5.653   0.404   0.297
25853WAT      O77800   4.649   7.929   8.912
25853WAT     H177801   4.640   7.969   8.820
25853WAT     H277802   4.611   7.836   8.911
25854WAT      O77803   3.432   2.427   8.552
25854WAT     H177804   3.502   2.499   8.555
25854WAT     H277805   3.341   2.468   8.547
25855WAT      O77806   2.372   1.255   8.003
25855WAT     H177807   2.275   1.263   8.026
25855WAT     H277808   2.388   1.169   7.953
25856WAT      O77809   0.135   4.652   8.155
25856WAT     H177810   0.120   4.676   8.250
25856WAT     H277811   0.227   4.615   8.143
25857WAT      O77812   5.912   2.879   5.037
25857WAT     H177813   5.968   2.962   5.040
25857WAT     H277814   5.904   2.841   5.129
25858WAT      O77815   4.197   6.487   3.486
25858WAT     H177816   4.183   6.570   3.540
25858WAT     H277817   4.267   6.504   3.416
25859WAT      O77818   8.446   1.847   8.263
25859WAT     H177819   8.502   1.900   8.199
25859WAT     H277820   8.409   1.766   8.216
25860WAT      O77821   9.598   3.326   5.119
25860WAT     H177822   9.532   3.400   5.108
25860WAT     H277823   9.564   3.243   5.074
25861WAT      O77824   5.614   9.181   1.475
25861WAT     H177825   5.563   9.219   1.398
25861WAT     H277826   5.673   9.252   1.513
25862WAT      O77827   1.764   0.483   7.609
25862WAT     H177828   1.696   0.512   7.542
25862WAT     H277829   1.720   0.420   7.674
25863WAT      O77830   4.448   1.609   2.463
25863WAT     H177831   4.516   1.667   2.419
25863WAT     H277832   4.492   1.527   2.498
25864WAT      O77833   3.994   2.542   3.961
25864WAT     H177834   4.071   2.606   3.968
25864WAT     H277835   3.927   2.563   4.032
25865WAT      O77836   6.274   7.228   6.543
25865WAT     H177837   6.334   7.151   6.520
25865WAT     H277838   6.325   7.314   6.533
25866WAT      O77839   1.880   8.632   9.737
25866WAT     H177840   1.831   8.648   9.823
25866WAT     H277841   1.814   8.627   9.662
25867WAT      O77842   1.564   9.613   3.895
25867WAT     H177843   1.663   9.600   3.887
25867WAT     H277844   1.519   9.523   3.903
25868WAT      O77845   0.754   3.451   9.026
25868WAT     H177846   0.726   3.355   9.037
25868WAT     H277847   0.720   3.486   8.939
25869WAT      O77848   1.726   3.907   8.896
25869WAT     H177849   1.805   3.847   8.879
25869WAT     H277850   1.758   3.997   8.923
25870WAT      O77851   7.683   1.561   4.077
25870WAT     H177852   7.704   1.633   4.010
25870WAT     H277853   7.720   1.474   4.045
25871WAT      O77854   6.647   0.196   4.292
25871WAT     H177855   6.734   0.167   4.251
25871WAT     H277856   6.665   0.237   4.382
25872WAT      O77857   1.492   3.940   3.111
25872WAT     H177858   1.562   4.012   3.110
25872WAT     H277859   1.511   3.874   3.038
25873WAT      O77860   2.145   7.591   8.252
25873WAT     H177861   2.174   7.645   8.174
25873WAT     H277862   2.220   7.587   8.319
25874WAT      O77863   8.380   0.044   6.309
25874WAT     H177864   8.340   0.009   6.224
25874WAT     H277865   8.362  -0.021   6.383
25875WAT      O77866   8.528   1.108   4.779
25875WAT     H177867   8.539   1.052   4.860
25875WAT     H277868   8.558   1.202   4.799
25876WAT      O77869   6.652   1.330   2.886
25876WAT     H177870   6.606   1.369   2.806
25876WAT     H277871   6.724   1.267   2.856
25877WAT      O77872   7.733   0.121   1.796
25877WAT     H177873   7.710   0.175   1.878
25877WAT     H277874   7.649   0.098   1.747
25878WAT      O77875   5.398   4.380   1.179
25878WAT     H177876   5.350   4.446   1.122
25878WAT     H277877   5.332   4.319   1.222
25879WAT      O77878   0.401   7.649   2.341
25879WAT     H177879   0.409   7.671   2.244
25879WAT     H277880   0.309   7.616   2.361
25880WAT      O77881   4.666   8.265   1.166
25880WAT     H177882   4.655   8.262   1.066
25880WAT     H277883   4.643   8.176   1.204
25881WAT      O77884   9.077   0.051   1.131
25881WAT     H177885   9.094   0.132   1.187
25881WAT     H277886   9.034   0.079   1.045
25882WAT      O77887   8.427   7.164   2.553
25882WAT     H177888   8.455   7.218   2.473
25882WAT     H277889   8.448   7.215   2.636
25883WAT      O77890   2.839   4.901   1.017
25883WAT     H177891   2.802   4.982   1.063
25883WAT     H277892   2.819   4.906   0.919
25884WAT      O77893   7.261   6.242   3.838
25884WAT     H177894   7.337   6.255   3.774
25884WAT     H277895   7.261   6.148   3.871
25885WAT      O77896   3.733   4.141   2.197
25885WAT     H177897   3.788   4.218   2.163
25885WAT     H277898   3.648   4.135   2.146
25886WAT      O77899   3.460   4.453   9.173
25886WAT     H177900   3.405   4.527   9.212
25886WAT     H277901   3.401   4.373   9.156
25887WAT      O77902   8.955   2.473   0.776
25887WAT     H177903   8.918   2.530   0.703
25887WAT     H277904   8.885   2.411   0.810
25888WAT      O77905   8.164   4.139   4.140
25888WAT     H177906   8.106   4.103   4.212
25888WAT     H277907   8.220   4.214   4.176
25889WAT      O77908   3.910   9.342   7.911
25889WAT     H177909   3.974   9.410   7.947
25889WAT     H277910   3.960   9.277   7.853
25890WAT      O77911   1.250   9.798   7.066
25890WAT     H177912   1.335   9.838   7.101
25890WAT     H277913   1.252   9.801   6.966
25891WAT      O77914   4.958   7.125   5.087
25891WAT     H177915   5.045   7.078   5.071
25891WAT     H277916   4.976   7.216   5.123
25892WAT      O77917   4.598   2.489   4.425
25892WAT     H177918   4.503   2.512   4.405
25892WAT     H277919   4.629   2.415   4.366
25893WAT      O77920   3.411   8.333   0.295
25893WAT     H177921   3.408   8.321   0.395
25893WAT     H277922   3.406   8.431   0.274
25894WAT      O77923   3.569   7.997   7.685
25894WAT     H177924   3.472   8.016   7.700
25894WAT     H277925   3.610   8.070   7.631
25895WAT      O77926   5.922   4.784   0.227
25895WAT     H177927   5.901   4.840   0.147
25895WAT     H277928   5.899   4.689   0.207
25896WAT      O77929   7.190   3.404   4.980
25896WAT     H177930   7.165   3.402   4.884
25896WAT     H277931   7.286   3.431   4.990
25897WAT      O77932   8.172   6.221   7.191
25897WAT     H177933   8.120   6.233   7.276
25897WAT     H277934   8.244   6.153   7.205
25898WAT      O77935   0.461   4.783   4.650
25898WAT     H177936   0.448   4.828   4.738
25898WAT     H277937   0.476   4.685   4.663
25899WAT      O77938   4.645   2.056   0.306
25899WAT     H177939   4.612   1.976   0.255
25899WAT     H277940   4.624   2.045   0.403
25900WAT      O77941   5.298   6.844   0.120
25900WAT     H177942   5.215   6.789   0.111
25900WAT     H277943   5.281   6.919   0.183
25901WAT      O77944   8.327   8.541   0.670
25901WAT     H177945   8.368   8.590   0.592
25901WAT     H277946   8.326   8.602   0.749
25902WAT      O77947   4.337   0.041   4.070
25902WAT     H177948   4.272   0.101   4.022
25902WAT     H277949   4.390   0.096   4.135
25903WAT      O77950   6.690   1.976   9.324
25903WAT     H177951   6.687   1.893   9.267
25903WAT     H277952   6.597   2.011   9.337
25904WAT      O77953   2.797   3.382   2.740
25904WAT     H177954   2.851   3.370   2.823
25904WAT     H277955   2.769   3.292   2.705
25905WAT      O77956   1.020   8.706   5.590
25905WAT     H177957   1.024   8.648   5.508
25905WAT     H277958   1.046   8.800   5.566
25906WAT      O77959   8.658   3.693   5.367
25906WAT     H177960   8.680   3.725   5.274
25906WAT     H277961   8.562   3.666   5.371
25907WAT      O77962   2.870   5.022   7.904
25907WAT     H177963   2.787   5.077   7.890
25907WAT     H277964   2.845   4.938   7.952
25908WAT      O77965   9.466   2.846   0.466
25908WAT     H177966   9.433   2.815   0.377
25908WAT     H277967   9.411   2.805   0.539
25909WAT      O77968   2.567   2.418   3.474
25909WAT     H177969   2.532   2.444   3.383
25909WAT     H277970   2.620   2.334   3.466
25910WAT      O77971   6.419   1.466   5.341
25910WAT     H177972   6.431   1.371   5.313
25910WAT     H277973   6.346   1.473   5.409
25911WAT      O77974   4.113   8.890   2.290
25911WAT     H177975   4.150   8.798   2.278
25911WAT     H277976   4.123   8.917   2.386
25912WAT      O77977   3.805   3.254   5.175
25912WAT     H177978   3.808   3.353   5.158
25912WAT     H277979   3.887   3.211   5.136
25913WAT      O77980   1.227   2.949   0.961
25913WAT     H177981   1.305   2.908   0.914
25913WAT     H277982   1.182   3.014   0.900
25914WAT      O77983   4.940   9.247   7.163
25914WAT     H177984   4.955   9.310   7.239
25914WAT     H277985   4.948   9.296   7.077
25915WAT      O77986   0.292   6.916   5.346
25915WAT     H177987   0.247   6.856   5.279
25915WAT     H277988   0.336   6.860   5.416
25916WAT      O77989   0.698   2.902   6.843
25916WAT     H177990   0.605   2.888   6.878
25916WAT     H277991   0.749   2.960   6.907
25917WAT      O77992   8.996   5.790   6.428
25917WAT     H177993   8.911   5.739   6.414
25917WAT     H277994   9.034   5.816   6.340
25918WAT      O77995   8.499   6.944   9.547
25918WAT     H177996   8.402   6.957   9.527
25918WAT     H277997   8.553   6.992   9.478
25919WAT      O77998   8.141   4.271   2.457
25919WAT     H177999   8.075   4.318   2.399
25919WAT     H278000   8.213   4.335   2.484
25920WAT      O78001   2.715   7.224   7.718
25920WAT     H178002   2.652   7.247   7.643
25920WAT     H278003   2.671   7.159   7.780
25921WAT      O78004   6.633   9.485   6.673
25921WAT     H178005   6.675   9.506   6.585
25921WAT     H278006   6.657   9.392   6.701
25922WAT      O78007   9.474   5.179   0.663
25922WAT     H178008   9.383   5.216   0.646
25922WAT     H278009   9.510   5.137   0.580
25923WAT      O78010   5.461   1.606   2.675
25923WAT     H178011   5.424   1.654   2.755
25923WAT     H278012   5.409   1.632   2.594
25924WAT      O78013   2.306   0.418   9.365
25924WAT     H178014   2.220   0.380   9.330
25924WAT     H278015   2.289   0.465   9.451
25925WAT      O78016   0.038   9.027   2.020
25925WAT     H178017  -0.034   9.008   1.953
25925WAT     H278018   0.051   8.947   2.078
25926WAT      O78019   8.291   6.141   3.534
25926WAT     H178020   8.287   6.076   3.610
25926WAT     H278021   8.372   6.198   3.544
25927WAT      O78022   2.598   2.782   2.588
25927WAT     H178023   2.536   2.839   2.641
25927WAT     H278024   2.621   2.829   2.502
25928WAT      O78025   1.937   5.526   4.341
25928WAT     H178026   1.876   5.508   4.263
25928WAT     H278027   1.941   5.446   4.400
25929WAT      O78028   0.340   1.366   3.444
25929WAT     H178029   0.277   1.401   3.374
25929WAT     H278030   0.293   1.297   3.499
25930WAT      O78031   7.709   9.133   3.227
25930WAT     H178032   7.783   9.071   3.256
25930WAT     H278033   7.707   9.138   3.128
25931WAT      O78034   2.372   6.847   3.651
25931WAT     H178035   2.290   6.855   3.708
25931WAT     H278036   2.419   6.936   3.648
25932WAT      O78037   2.996   7.527   7.635
25932WAT     H178038   3.043   7.602   7.590
25932WAT     H278039   3.011   7.533   7.734
25933WAT      O78040   8.803   5.535   3.599
25933WAT     H178041   8.817   5.599   3.523
25933WAT     H278042   8.730   5.569   3.658
25934WAT      O78043   1.138   4.231   5.100
25934WAT     H178044   1.183   4.241   5.011
25934WAT     H278045   1.089   4.144   5.103
25935WAT      O78046   9.534   4.459   0.755
25935WAT     H178047   9.563   4.499   0.841
25935WAT     H278048   9.436   4.438   0.759
25936WAT      O78049   8.955   2.796   8.324
25936WAT     H178050   8.945   2.801   8.224
25936WAT     H278051   8.868   2.773   8.365
25937WAT      O78052   4.520   8.904   8.312
25937WAT     H178053   4.561   8.975   8.370
25937WAT     H278054   4.478   8.834   8.369
25938WAT      O78055   6.011   1.030   8.833
25938WAT     H178056   6.015   1.065   8.740
25938WAT     H278057   5.919   0.994   8.851
25939WAT      O78058   2.657   7.831   2.210
25939WAT     H178059   2.682   7.874   2.123
25939WAT     H278060   2.559   7.808   2.208
25940WAT      O78061   5.130   7.213   0.996
25940WAT     H178062   5.060   7.284   0.995
25940WAT     H278063   5.162   7.195   0.902
25941WAT      O78064   3.341   0.798   7.495
25941WAT     H178065   3.364   0.894   7.508
25941WAT     H278066   3.369   0.769   7.403
25942WAT      O78067   9.434   2.236   7.715
25942WAT     H178068   9.467   2.195   7.800
25942WAT     H278069   9.410   2.332   7.732
25943WAT      O78070   1.838   8.887   2.123
25943WAT     H178071   1.888   8.934   2.196
25943WAT     H278072   1.759   8.942   2.096
25944WAT      O78073   1.139   0.004   0.319
25944WAT     H178074   1.083  -0.021   0.398
25944WAT     H278075   1.196   0.083   0.342
25945WAT      O78076   3.582   0.188   2.381
25945WAT     H178077   3.668   0.239   2.387
25945WAT     H278078   3.527   0.205   2.463
25946WAT      O78079   1.056   5.179   8.087
25946WAT     H178080   1.149   5.159   8.116
25946WAT     H278081   0.996   5.104   8.114
25947WAT      O78082   7.425   6.161   0.141
25947WAT     H178083   7.447   6.069   0.109
25947WAT     H278084   7.509   6.206   0.173
25948WAT      O78085   1.424   9.238   3.397
25948WAT     H178086   1.382   9.328   3.413
25948WAT     H278087   1.369   9.188   3.330
25949WAT      O78088   1.517   0.430   2.655
25949WAT     H178089   1.515   0.517   2.704
25949WAT     H278090   1.429   0.385   2.664
25950WAT      O78091   1.476   1.463   3.617
25950WAT     H178092   1.542   1.475   3.691
25950WAT     H278093   1.515   1.499   3.532
25951WAT      O78094   0.733   0.545   6.149
25951WAT     H178095   0.697   0.548   6.242
25951WAT     H278096   0.685   0.474   6.097
25952WAT      O78097   4.015   7.751   4.346
25952WAT     H178098   4.044   7.656   4.353
25952WAT     H278099   4.080   7.810   4.393
25953WAT      O78100   4.446   8.059   6.192
25953WAT     H178101   4.370   7.995   6.178
25953WAT     H278102   4.532   8.011   6.176
25954WAT      O78103   3.503   7.055   9.603
25954WAT     H178104   3.451   7.114   9.665
25954WAT     H278105   3.591   7.032   9.645
25955WAT      O78106   8.836   9.620   7.897
25955WAT     H178107   8.879   9.701   7.858
25955WAT     H278108   8.906   9.564   7.943
25956WAT      O78109   7.047   4.489   2.925
25956WAT     H178110   7.138   4.458   2.896
25956WAT     H278111   6.978   4.428   2.888
25957WAT      O78112   3.272   6.727   6.277
25957WAT     H178113   3.332   6.734   6.197
25957WAT     H278114   3.296   6.798   6.343
25958WAT      O78115   4.673   3.816   1.931
25958WAT     H178116   4.733   3.771   1.866
25958WAT     H278117   4.671   3.763   2.016
25959WAT      O78118   8.541   2.961   8.998
25959WAT     H178119   8.449   2.970   8.960
25959WAT     H278120   8.564   3.042   9.051
25960WAT      O78121   3.200   8.702   1.942
25960WAT     H178122   3.270   8.683   1.874
25960WAT     H278123   3.150   8.618   1.962
25961WAT      O78124   7.252   9.417   9.816
25961WAT     H178125   7.162   9.375   9.829
25961WAT     H278126   7.273   9.476   9.894
25962WAT      O78127   1.327   2.663   3.275
25962WAT     H178128   1.247   2.686   3.219
25962WAT     H278129   1.361   2.573   3.250
25963WAT      O78130   8.560   0.261   7.221
25963WAT     H178131   8.620   0.340   7.215
25963WAT     H278132   8.539   0.229   7.128
25964WAT      O78133   4.144   0.745   6.459
25964WAT     H178134   4.232   0.712   6.426
25964WAT     H278135   4.092   0.783   6.382
25965WAT      O78136   8.437   1.544   0.510
25965WAT     H178137   8.535   1.521   0.512
25965WAT     H278138   8.397   1.510   0.425
25966WAT      O78139   7.281   9.248   3.239
25966WAT     H178140   7.301   9.267   3.143
25966WAT     H278141   7.362   9.213   3.285
25967WAT      O78142   0.143   1.678   0.145
25967WAT     H178143   0.078   1.746   0.178
25967WAT     H278144   0.232   1.722   0.128
25968WAT      O78145   1.542   5.128   0.813
25968WAT     H178146   1.495   5.156   0.729
25968WAT     H278147   1.515   5.189   0.888
25969WAT      O78148   0.244   5.114   8.440
25969WAT     H178149   0.193   5.163   8.369
25969WAT     H278150   0.331   5.083   8.403
25970WAT      O78151   7.243   9.345   3.802
25970WAT     H178152   7.184   9.409   3.850
25970WAT     H278153   7.196   9.309   3.721
25971WAT      O78154   7.491   4.014   2.956
25971WAT     H178155   7.448   4.104   2.958
25971WAT     H278156   7.475   3.968   3.043
25972WAT      O78157   4.039   3.729   5.028
25972WAT     H178158   4.126   3.759   5.066
25972WAT     H278159   4.051   3.644   4.978
25973WAT      O78160   6.692   4.479   5.763
25973WAT     H178161   6.603   4.506   5.726
25973WAT     H278162   6.678   4.420   5.843
25974WAT      O78163   8.483   0.107   4.039
25974WAT     H178164   8.470   0.182   3.974
25974WAT     H278165   8.423   0.031   4.016
25975WAT      O78166   1.865   8.101   5.323
25975WAT     H178167   1.917   8.023   5.357
25975WAT     H278168   1.924   8.156   5.263
25976WAT      O78169   6.608   1.913   2.567
25976WAT     H178170   6.589   1.942   2.473
25976WAT     H278171   6.583   1.986   2.631
25977WAT      O78172   9.737   0.236   9.441
25977WAT     H178173   9.733   0.138   9.459
25977WAT     H278174   9.651   0.267   9.401
25978WAT      O78175   2.780   7.037   8.052
25978WAT     H178176   2.711   7.032   7.980
25978WAT     H278177   2.752   7.106   8.119
25979WAT      O78178   6.243   0.126   5.309
25979WAT     H178179   6.282   0.218   5.316
25979WAT     H278180   6.289   0.065   5.373
25980WAT      O78181   9.374   6.268   6.651
25980WAT     H178182   9.336   6.360   6.662
25980WAT     H278183   9.314   6.214   6.592
25981WAT      O78184   3.720   3.489   1.244
25981WAT     H178185   3.785   3.562   1.263
25981WAT     H278186   3.698   3.488   1.147
25982WAT      O78187   4.728   6.539   6.389
25982WAT     H178188   4.699   6.446   6.369
25982WAT     H278189   4.658   6.603   6.357
25983WAT      O78190   4.790   8.912   7.743
25983WAT     H178191   4.805   8.851   7.666
25983WAT     H278192   4.703   8.890   7.787
25984WAT      O78193   1.741   5.443   9.383
25984WAT     H178194   1.820   5.403   9.337
25984WAT     H278195   1.771   5.486   9.468
25985WAT      O78196   6.771   5.559   0.732
25985WAT     H178197   6.775   5.516   0.822
25985WAT     H278198   6.738   5.653   0.742
25986WAT      O78199   3.961   7.159   8.189
25986WAT     H178200   3.996   7.163   8.095
25986WAT     H278201   3.933   7.251   8.218
25987WAT      O78202   7.111   4.986   9.864
25987WAT     H178203   7.026   4.981   9.918
25987WAT     H278204   7.090   5.017   9.772
25988WAT      O78205   2.590   4.951   7.857
25988WAT     H178206   2.506   4.961   7.912
25988WAT     H278207   2.567   4.914   7.767
25989WAT      O78208   3.634   8.382   5.865
25989WAT     H178209   3.630   8.386   5.965
25989WAT     H278210   3.550   8.340   5.830
25990WAT      O78211   3.393   6.225   6.011
25990WAT     H178212   3.423   6.299   5.951
25990WAT     H278213   3.459   6.212   6.085
25991WAT      O78214   6.523   4.687   0.305
25991WAT     H178215   6.451   4.727   0.248
25991WAT     H278216   6.515   4.587   0.304
25992WAT      O78217   4.814   7.234   5.853
25992WAT     H178218   4.899   7.199   5.892
25992WAT     H278219   4.737   7.179   5.885
25993WAT      O78220   8.539   7.920   7.488
25993WAT     H178221   8.607   7.847   7.478
25993WAT     H278222   8.583   8.008   7.469
25994WAT      O78223   7.085   8.041   4.639
25994WAT     H178224   7.077   7.943   4.620
25994WAT     H278225   6.994   8.080   4.653
25995WAT      O78226   2.143   0.687   7.622
25995WAT     H178227   2.193   0.727   7.544
25995WAT     H278228   2.148   0.750   7.700
25996WAT      O78229   9.816   4.439   9.676
25996WAT     H178230   9.900   4.451   9.728
25996WAT     H278231   9.838   4.402   9.585
25997WAT      O78232   1.281   2.505   6.933
25997WAT     H178233   1.190   2.509   6.891
25997WAT     H278234   1.341   2.449   6.876
25998WAT      O78235   9.338   2.477   4.220
25998WAT     H178236   9.291   2.565   4.222
25998WAT     H278237   9.352   2.445   4.314
25999WAT      O78238   7.497   2.655   9.416
25999WAT     H178239   7.588   2.655   9.373
25999WAT     H278240   7.458   2.563   9.409
26000WAT      O78241   4.265   7.196   8.383
26000WAT     H178242   4.287   7.155   8.472
26000WAT     H278243   4.240   7.124   8.319
26001WAT      O78244   7.436   1.409   0.378
26001WAT     H178245   7.440   1.459   0.291
26001WAT     H278246   7.391   1.321   0.364
26002WAT      O78247   0.688   2.757   2.621
26002WAT     H178248   0.740   2.819   2.680
26002WAT     H278249   0.729   2.666   2.626
26003WAT      O78250   5.027   5.848   7.828
26003WAT     H178251   5.059   5.753   7.824
26003WAT     H278252   5.063   5.892   7.910
26004WAT      O78253   7.705   5.437   7.206
26004WAT     H178254   7.721   5.343   7.237
26004WAT     H278255   7.764   5.500   7.257
26005WAT      O78256   4.606   4.917   9.767
26005WAT     H178257   4.638   4.842   9.710
26005WAT     H278258   4.514   4.944   9.737
26006WAT      O78259   6.526   1.280   3.144
26006WAT     H178260   6.591   1.319   3.078
26006WAT     H278261   6.442   1.335   3.144
26007WAT      O78262   1.462   5.406   6.741
26007WAT     H178263   1.374   5.450   6.759
26007WAT     H278264   1.482   5.411   6.643
26008WAT      O78265   6.995   3.868   4.039
26008WAT     H178266   6.972   3.847   4.134
26008WAT     H278267   6.911   3.884   3.987
26009WAT      O78268   5.678   1.495   8.704
26009WAT     H178269   5.586   1.464   8.726
26009WAT     H278270   5.743   1.419   8.715
26010WAT      O78271   3.867   7.458   5.625
26010WAT     H178272   3.924   7.504   5.558
26010WAT     H278273   3.772   7.486   5.614
26011WAT      O78274   6.948   0.353   7.659
26011WAT     H178275   7.033   0.304   7.678
26011WAT     H278276   6.877   0.322   7.722
26012WAT      O78277   6.715   1.484   8.957
26012WAT     H178278   6.674   1.459   8.868
26012WAT     H278279   6.669   1.434   9.030
26013WAT      O78280   9.277   1.660   2.471
26013WAT     H178281   9.312   1.626   2.558
26013WAT     H278282   9.248   1.583   2.414
26014WAT      O78283   8.588   7.914   7.120
26014WAT     H178284   8.508   7.874   7.075
26014WAT     H278285   8.655   7.842   7.139
26015WAT      O78286   9.810   2.969   6.323
26015WAT     H178287   9.782   2.876   6.297
26015WAT     H278288   9.858   3.011   6.246
26016WAT      O78289   4.251   3.942   8.453
26016WAT     H178290   4.236   3.981   8.544
26016WAT     H278291   4.229   3.844   8.455
26017WAT      O78292   2.096   3.904   2.945
26017WAT     H178293   2.118   3.974   2.877
26017WAT     H278294   2.179   3.856   2.972
26018WAT      O78295   7.977   1.330   2.933
26018WAT     H178296   7.968   1.231   2.919
26018WAT     H278297   8.073   1.353   2.949
26019WAT      O78298   1.266   1.933   7.371
26019WAT     H178299   1.215   1.978   7.298
26019WAT     H278300   1.246   1.835   7.369
26020WAT      O78301   9.229   5.530   5.801
26020WAT     H178302   9.129   5.530   5.803
26020WAT     H278303   9.263   5.602   5.862
26021WAT      O78304   3.295   9.349   5.766
26021WAT     H178305   3.313   9.331   5.863
26021WAT     H278306   3.197   9.341   5.748
26022WAT      O78307   0.708   0.660   3.984
26022WAT     H178308   0.727   0.564   4.006
26022WAT     H278309   0.706   0.713   4.068
26023WAT      O78310   2.303   6.506   9.055
26023WAT     H178311   2.241   6.527   8.979
26023WAT     H278312   2.396   6.498   9.020
26024WAT      O78313   4.175   6.610   9.519
26024WAT     H178314   4.267   6.612   9.557
26024WAT     H278315   4.157   6.695   9.470
26025WAT      O78316   5.798   4.033   6.536
26025WAT     H178317   5.775   4.114   6.481
26025WAT     H278318   5.886   3.997   6.507
26026WAT      O78319   7.966   5.489   9.671
26026WAT     H178320   7.945   5.395   9.645
26026WAT     H278321   7.935   5.505   9.765
26027WAT      O78322   3.161   5.374   7.953
26027WAT     H178323   3.065   5.401   7.962
26027WAT     H278324   3.207   5.437   7.891
26028WAT      O78325   7.734   6.370   9.230
26028WAT     H178326   7.729   6.287   9.174
26028WAT     H278327   7.705   6.350   9.323
26029WAT      O78328   5.195   2.452   1.525
26029WAT     H178329   5.239   2.429   1.612
26029WAT     H278330   5.123   2.385   1.507
26030WAT      O78331   7.665   2.643   4.015
26030WAT     H178332   7.695   2.584   4.091
26030WAT     H278333   7.605   2.590   3.955
26031WAT      O78334   4.887   8.227   8.706
26031WAT     H178335   4.841   8.315   8.700
26031WAT     H278336   4.819   8.154   8.709
26032WAT      O78337   9.392   1.363   8.660
26032WAT     H178338   9.374   1.430   8.733
26032WAT     H278339   9.453   1.292   8.695
26033WAT      O78340   3.150   9.295   2.768
26033WAT     H178341   3.152   9.297   2.868
26033WAT     H278342   3.059   9.269   2.737
26034WAT      O78343   1.752   4.597   5.583
26034WAT     H178344   1.674   4.643   5.541
26034WAT     H278345   1.798   4.660   5.646
26035WAT      O78346   2.933   3.551   5.357
26035WAT     H178347   2.841   3.590   5.366
26035WAT     H278348   2.931   3.454   5.381
26036WAT      O78349   6.230   0.185   6.212
26036WAT     H178350   6.307   0.144   6.163
26036WAT     H278351   6.263   0.238   6.289
26037WAT      O78352   6.678   2.743   0.013
26037WAT     H178353   6.656   2.841   0.007
26037WAT     H278354   6.713   2.722   0.104
26038WAT      O78355   4.958   3.185   0.967
26038WAT     H178356   5.053   3.207   0.984
26038WAT     H278357   4.931   3.220   0.877
26039WAT      O78358   0.968   6.427   8.523
26039WAT     H178359   0.894   6.374   8.479
26039WAT     H278360   1.022   6.472   8.452
26040WAT      O78361   7.523   6.528   9.869
26040WAT     H178362   7.551   6.609   9.818
26040WAT     H278363   7.424   6.515   9.862
26041WAT      O78364   8.102   9.530   3.070
26041WAT     H178365   8.138   9.603   3.128
26041WAT     H278366   8.087   9.448   3.126
26042WAT      O78367   1.303   7.170   8.941
26042WAT     H178368   1.400   7.163   8.919
26042WAT     H278369   1.289   7.242   9.008
26043WAT      O78370   6.594   1.715   3.542
26043WAT     H178371   6.680   1.663   3.539
26043WAT     H278372   6.604   1.793   3.603
26044WAT      O78373   9.424   9.350   5.689
26044WAT     H178374   9.491   9.284   5.653
26044WAT     H278375   9.449   9.376   5.782
26045WAT      O78376   0.001   2.927   4.275
26045WAT     H178377   0.094   2.891   4.286
26045WAT     H278378  -0.021   2.931   4.177
26046WAT      O78379   7.248   1.719   4.134
26046WAT     H178380   7.309   1.799   4.138
26046WAT     H278381   7.297   1.641   4.096
26047WAT      O78382   4.834   0.076   4.874
26047WAT     H178383   4.767   0.053   4.803
26047WAT     H278384   4.790   0.078   4.963
26048WAT      O78385   3.420   9.168   4.714
26048WAT     H178386   3.343   9.120   4.755
26048WAT     H278387   3.394   9.262   4.694
26049WAT      O78388   8.136   2.552   0.010
26049WAT     H178389   8.110   2.633  -0.042
26049WAT     H278390   8.225   2.519  -0.022
26050WAT      O78391   7.388   4.622   2.760
26050WAT     H178392   7.469   4.681   2.769
26050WAT     H278393   7.414   4.527   2.775
26051WAT      O78394   7.461   0.053   1.733
26051WAT     H178395   7.393   0.003   1.787
26051WAT     H278396   7.416   0.124   1.680
26052WAT      O78397   6.287   5.100   8.782
26052WAT     H178398   6.278   5.002   8.767
26052WAT     H278399   6.217   5.149   8.729
26053WAT      O78400   5.699   4.710   8.064
26053WAT     H178401   5.782   4.699   8.119
26053WAT     H278402   5.714   4.783   7.996
26054WAT      O78403   7.826   9.292   5.908
26054WAT     H178404   7.800   9.266   6.001
26054WAT     H278405   7.851   9.210   5.856
26055WAT      O78406   4.034   6.737   7.031
26055WAT     H178407   4.099   6.696   7.094
26055WAT     H278408   4.064   6.722   6.936
26056WAT      O78409   6.628   1.865   3.750
26056WAT     H178410   6.536   1.903   3.738
26056WAT     H278411   6.667   1.900   3.836
26057WAT      O78412   6.954   6.374   0.638
26057WAT     H178413   7.021   6.448   0.642
26057WAT     H278414   6.869   6.409   0.598
26058WAT      O78415   8.537   2.351   5.919
26058WAT     H178416   8.603   2.412   5.875
26058WAT     H278417   8.524   2.270   5.862
26059WAT      O78418   7.828   0.044   3.678
26059WAT     H178419   7.778   0.124   3.709
26059WAT     H278420   7.806  -0.034   3.736
26060WAT      O78421   2.580   9.203   3.450
26060WAT     H178422   2.604   9.106   3.450
26060WAT     H278423   2.546   9.229   3.541
26061WAT      O78424   9.286   2.581   9.624
26061WAT     H178425   9.355   2.509   9.620
26061WAT     H278426   9.240   2.578   9.713
26062WAT      O78427   5.430   2.542   4.941
26062WAT     H178428   5.374   2.528   5.022
26062WAT     H278429   5.405   2.474   4.871
26063WAT      O78430   1.848   1.493   9.371
26063WAT     H178431   1.795   1.532   9.445
26063WAT     H278432   1.914   1.561   9.338
26064WAT      O78433   6.936   5.002   3.763
26064WAT     H178434   6.911   4.906   3.779
26064WAT     H278435   6.972   5.041   3.848
26065WAT      O78436   0.955   0.778   4.184
26065WAT     H178437   1.008   0.728   4.115
26065WAT     H278438   0.887   0.835   4.139
26066WAT      O78439   9.823   2.537   8.321
26066WAT     H178440   9.791   2.595   8.245
26066WAT     H278441   9.812   2.441   8.296
26067WAT      O78442   9.229   3.633   2.083
26067WAT     H178443   9.172   3.651   2.003
26067WAT     H278444   9.322   3.665   2.065
26068WAT      O78445   1.942   4.661   3.907
26068WAT     H178446   1.938   4.673   4.007
26068WAT     H278447   1.850   4.644   3.872
26069WAT      O78448   3.671   9.700   4.831
26069WAT     H178449   3.750   9.700   4.770
26069WAT     H278450   3.650   9.607   4.859
26070WAT      O78451   7.305   1.023   7.004
26070WAT     H178452   7.311   1.086   7.081
26070WAT     H278453   7.393   0.977   6.992
26071WAT      O78454   6.097   7.003   5.369
26071WAT     H178455   6.099   6.911   5.330
26071WAT     H278456   6.005   7.022   5.404
26072WAT      O78457   0.423   5.402   5.787
26072WAT     H178458   0.482   5.365   5.859
26072WAT     H278459   0.361   5.470   5.826
26073WAT      O78460   8.533   2.455   1.539
26073WAT     H178461   8.608   2.515   1.566
26073WAT     H278462   8.569   2.370   1.502
26074WAT      O78463   0.959   0.584   7.331
26074WAT     H178464   0.902   0.504   7.313
26074WAT     H278465   1.022   0.598   7.255
26075WAT      O78466   2.488   5.049   0.768
26075WAT     H178467   2.544   5.132   0.765
26075WAT     H278468   2.408   5.064   0.825
26076WAT      O78469   9.446   8.843   2.960
26076WAT     H178470   9.352   8.879   2.958
26076WAT     H278471   9.445   8.746   2.984
26077WAT      O78472   7.814   8.045   0.028
26077WAT     H178473   7.886   7.983   0.060
26077WAT     H278474   7.748   7.994  -0.027
26078WAT      O78475   4.128   8.703   2.859
26078WAT     H178476   4.066   8.691   2.936
26078WAT     H278477   4.075   8.719   2.776
26079WAT      O78478   9.010   3.736   1.929
26079WAT     H178479   9.013   3.834   1.948
26079WAT     H278480   9.038   3.720   1.834
26080WAT      O78481   2.695   3.596   8.121
26080WAT     H178482   2.724   3.691   8.132
26080WAT     H278483   2.612   3.581   8.173
26081WAT      O78484   3.502   2.121   9.866
26081WAT     H178485   3.516   2.049   9.798
26081WAT     H278486   3.567   2.195   9.850
26082WAT      O78487   4.749   3.101   8.590
26082WAT     H178488   4.730   3.176   8.526
26082WAT     H278489   4.814   3.037   8.550
26083WAT      O78490   3.313   3.644   0.967
26083WAT     H178491   3.350   3.596   1.047
26083WAT     H278492   3.386   3.655   0.899
26084WAT      O78493   4.874   2.183   9.658
26084WAT     H178494   4.797   2.120   9.653
26084WAT     H278495   4.841   2.276   9.674
26085WAT      O78496   3.528   0.577   5.599
26085WAT     H178497   3.483   0.662   5.628
26085WAT     H278498   3.550   0.583   5.501
26086WAT      O78499   2.584   1.490   7.256
26086WAT     H178500   2.504   1.440   7.221
26086WAT     H278501   2.575   1.586   7.233
26087WAT      O78502   3.707   3.374   5.901
26087WAT     H178503   3.646   3.444   5.862
26087WAT     H278504   3.714   3.388   5.999
26088WAT      O78505   8.322   0.728   7.172
26088WAT     H178506   8.295   0.815   7.130
26088WAT     H278507   8.337   0.741   7.270
26089WAT      O78508   1.182   6.238   4.266
26089WAT     H178509   1.226   6.211   4.352
26089WAT     H278510   1.111   6.306   4.285
26090WAT      O78511   5.130   7.121   4.044
26090WAT     H178512   5.168   7.135   3.953
26090WAT     H278513   5.138   7.024   4.069
26091WAT      O78514   1.029   8.432   2.192
26091WAT     H178515   1.005   8.421   2.288
26091WAT     H278516   0.990   8.357   2.139
26092WAT      O78517   1.622   7.258   9.457
26092WAT     H178518   1.571   7.337   9.422
26092WAT     H278519   1.705   7.290   9.503
26093WAT      O78520   2.104   4.474   8.726
26093WAT     H178521   2.051   4.557   8.738
26093WAT     H278522   2.184   4.476   8.787
26094WAT      O78523   4.723   8.465   0.837
26094WAT     H178524   4.768   8.436   0.753
26094WAT     H278525   4.636   8.509   0.815
26095WAT      O78526   3.707   7.100   0.850
26095WAT     H178527   3.762   7.182   0.833
26095WAT     H278528   3.648   7.083   0.771
26096WAT      O78529   2.246   6.594   3.350
26096WAT     H178530   2.160   6.545   3.346
26096WAT     H278531   2.278   6.614   3.257
26097WAT      O78532   9.144   4.546   4.385
26097WAT     H178533   9.078   4.562   4.459
26097WAT     H278534   9.109   4.588   4.301
26098WAT      O78535   0.932   2.679   5.027
26098WAT     H178536   0.861   2.718   5.085
26098WAT     H278537   1.012   2.656   5.083
26099WAT      O78538   2.496   3.605   6.231
26099WAT     H178539   2.491   3.557   6.318
26099WAT     H278540   2.530   3.698   6.246
26100WAT      O78541   4.789   8.865   9.660
26100WAT     H178542   4.875   8.870   9.711
26100WAT     H278543   4.793   8.789   9.595
26101WAT      O78544   5.804   1.651   9.583
26101WAT     H178545   5.808   1.575   9.648
26101WAT     H278546   5.858   1.628   9.502
26102WAT      O78547   6.753   5.587   4.403
26102WAT     H178548   6.656   5.581   4.380
26102WAT     H278549   6.788   5.678   4.382
26103WAT      O78550   5.473   5.948   1.652
26103WAT     H178551   5.436   6.040   1.668
26103WAT     H278552   5.402   5.880   1.670
26104WAT      O78553   8.804   4.848   5.097
26104WAT     H178554   8.855   4.763   5.109
26104WAT     H278555   8.765   4.876   5.185
26105WAT      O78556   0.825   4.072   6.535
26105WAT     H178557   0.750   4.113   6.485
26105WAT     H278558   0.793   3.991   6.584
26106WAT      O78559   0.818   8.993   7.790
26106WAT     H178560   0.730   9.038   7.774
26106WAT     H278561   0.810   8.895   7.769
26107WAT      O78562   0.165   9.700   5.655
26107WAT     H178563   0.192   9.703   5.559
26107WAT     H278564   0.180   9.789   5.697
26108WAT      O78565   5.106   6.551   3.734
26108WAT     H178566   5.154   6.539   3.821
26108WAT     H278567   5.081   6.647   3.722
26109WAT      O78568   3.907   2.603   2.111
26109WAT     H178569   3.962   2.679   2.146
26109WAT     H278570   3.849   2.568   2.184
26110WAT      O78571   2.674   8.976   6.848
26110WAT     H178572   2.626   9.054   6.806
26110WAT     H278573   2.640   8.891   6.808
26111WAT      O78574   8.682   3.832   9.702
26111WAT     H178575   8.587   3.815   9.729
26111WAT     H278576   8.688   3.918   9.651
26112WAT      O78577   3.251   5.231   8.683
26112WAT     H178578   3.226   5.161   8.749
26112WAT     H278579   3.191   5.225   8.603
26113WAT      O78580   5.696   2.760   8.501
26113WAT     H178581   5.781   2.722   8.465
26113WAT     H278582   5.681   2.727   8.594
26114WAT      O78583   9.329   1.797   0.079
26114WAT     H178584   9.426   1.785   0.100
26114WAT     H278585   9.278   1.720   0.116
26115WAT      O78586   5.784   9.308   4.194
26115WAT     H178587   5.846   9.232   4.173
26115WAT     H278588   5.693   9.287   4.157
26116WAT      O78589   6.959   0.251   6.401
26116WAT     H178590   6.868   0.266   6.439
26116WAT     H278591   7.005   0.339   6.389
26117WAT      O78592   8.177   8.218   1.374
26117WAT     H178593   8.080   8.237   1.359
26117WAT     H278594   8.227   8.223   1.288
26118WAT      O78595   4.814   8.604   9.031
26118WAT     H178596   4.798   8.703   9.029
26118WAT     H278597   4.750   8.561   9.095
26119WAT      O78598   1.390   6.372   2.190
26119WAT     H178599   1.293   6.392   2.201
26119WAT     H278600   1.422   6.319   2.269
26120WAT      O78601   5.831   4.592   2.062
26120WAT     H178602   5.873   4.507   2.095
26120WAT     H278603   5.891   4.669   2.085
26121WAT      O78604   2.451   7.248   6.013
26121WAT     H178605   2.467   7.163   6.063
26121WAT     H278606   2.528   7.310   6.027
26122WAT      O78607   9.338   0.992   9.738
26122WAT     H178608   9.311   1.086   9.722
26122WAT     H278609   9.355   0.947   9.650
26123WAT      O78610   0.857   1.560   9.074
26123WAT     H178611   0.854   1.518   9.165
26123WAT     H278612   0.847   1.660   9.084
26124WAT      O78613   8.404   8.404   3.227
26124WAT     H178614   8.466   8.330   3.253
26124WAT     H278615   8.311   8.367   3.220
26125WAT      O78616   0.523   2.552   3.886
26125WAT     H178617   0.520   2.517   3.979
26125WAT     H278618   0.506   2.650   3.886
26126WAT      O78619   0.549   5.375   9.515
26126WAT     H178620   0.577   5.450   9.455
26126WAT     H278621   0.457   5.393   9.550
26127WAT      O78622   5.224   7.031   8.139
26127WAT     H178623   5.230   7.091   8.219
26127WAT     H278624   5.186   7.082   8.062
26128WAT      O78625   0.637   7.210   6.856
26128WAT     H178626   0.724   7.162   6.868
26128WAT     H278627   0.565   7.161   6.906
26129WAT      O78628   3.537   3.250   5.637
26129WAT     H178629   3.615   3.219   5.582
26129WAT     H278630   3.561   3.336   5.682
26130WAT      O78631   7.093   0.272   5.279
26130WAT     H178632   7.154   0.299   5.204
26130WAT     H278633   7.136   0.200   5.333
26131WAT      O78634   5.522   9.571   4.243
26131WAT     H178635   5.524   9.543   4.148
26131WAT     H278636   5.470   9.505   4.297
26132WAT      O78637   4.259   4.028   6.821
26132WAT     H178638   4.187   4.071   6.876
26132WAT     H278639   4.257   3.929   6.837
26133WAT      O78640   5.857   5.817   0.257
26133WAT     H178641   5.815   5.879   0.191
26133WAT     H278642   5.936   5.773   0.215
26134WAT      O78643   8.416   4.689   9.474
26134WAT     H178644   8.504   4.643   9.487
26134WAT     H278645   8.343   4.621   9.472
26135WAT      O78646   6.360   1.229   2.203
26135WAT     H178647   6.284   1.277   2.247
26135WAT     H278648   6.435   1.294   2.186
26136WAT      O78649   4.400   4.866   3.535
26136WAT     H178650   4.318   4.872   3.479
26136WAT     H278651   4.387   4.918   3.620
26137WAT      O78652   9.838   2.506   2.879
26137WAT     H178653   9.864   2.525   2.785
26137WAT     H278654   9.903   2.440   2.918
26138WAT      O78655   4.335   3.197   9.732
26138WAT     H178656   4.372   3.287   9.712
26138WAT     H278657   4.360   3.171   9.826
26139WAT      O78658   7.331   3.918   2.076
26139WAT     H178659   7.356   4.015   2.081
26139WAT     H278660   7.297   3.888   2.166
26140WAT      O78661   1.792   7.477   2.541
26140WAT     H178662   1.765   7.406   2.476
26140WAT     H278663   1.788   7.441   2.634
26141WAT      O78664   7.692   1.695   3.047
26141WAT     H178665   7.665   1.641   3.127
26141WAT     H278666   7.773   1.654   3.005
26142WAT      O78667   9.582   0.564   6.595
26142WAT     H178668   9.669   0.553   6.644
26142WAT     H278669   9.553   0.476   6.558
26143WAT      O78670   0.629   0.424   4.266
26143WAT     H178671   0.701   0.429   4.196
26143WAT     H278672   0.661   0.370   4.344
26144WAT      O78673   6.035   9.062   3.194
26144WAT     H178674   5.987   9.036   3.278
26144WAT     H278675   6.113   9.001   3.180
26145WAT      O78676   0.127   3.634   7.212
26145WAT     H178677   0.033   3.648   7.241
26145WAT     H278678   0.188   3.689   7.269
26146WAT      O78679   8.941   2.573   6.187
26146WAT     H178680   8.842   2.587   6.185
26146WAT     H278681   8.961   2.486   6.230
26147WAT      O78682   2.729   7.506   7.671
26147WAT     H178683   2.731   7.412   7.704
26147WAT     H278684   2.814   7.527   7.623
26148WAT      O78685   7.083   0.594   5.025
26148WAT     H178686   7.121   0.581   5.117
26148WAT     H278687   7.041   0.509   4.995
26149WAT      O78688   6.371   1.356   8.481
26149WAT     H178689   6.345   1.413   8.403
26149WAT     H278690   6.315   1.380   8.560
26150WAT      O78691   8.926   4.485   8.056
26150WAT     H178692   8.962   4.482   8.149
26150WAT     H278693   8.904   4.580   8.032
26151WAT      O78694   5.675   8.154   9.177
26151WAT     H178695   5.706   8.172   9.083
26151WAT     H278696   5.606   8.221   9.203
26152WAT      O78697   4.219   7.890   4.459
26152WAT     H178698   4.296   7.827   4.453
26152WAT     H278699   4.244   7.969   4.515
26153WAT      O78700   8.154   9.685   7.889
26153WAT     H178701   8.181   9.780   7.907
26153WAT     H278702   8.196   9.625   7.958
26154WAT      O78703   6.352   5.949   8.197
26154WAT     H178704   6.333   5.967   8.294
26154WAT     H278705   6.319   6.026   8.142
26155WAT      O78706   8.007   3.472   8.570
26155WAT     H178707   8.040   3.567   8.573
26155WAT     H278708   8.037   3.430   8.485
26156WAT      O78709   9.059   7.788   0.703
26156WAT     H178710   8.968   7.818   0.733
26156WAT     H278711   9.129   7.847   0.744
26157WAT      O78712   5.585   9.505   4.666
26157WAT     H178713   5.641   9.460   4.596
26157WAT     H278714   5.603   9.603   4.664
26158WAT      O78715   9.835   0.081   0.711
26158WAT     H178716   9.908   0.102   0.776
26158WAT     H278717   9.746   0.101   0.752
26159WAT      O78718   6.486   8.988   4.125
26159WAT     H178719   6.447   8.976   4.217
26159WAT     H278720   6.578   8.949   4.123
26160WAT      O78721   1.268   9.831   0.837
26160WAT     H178722   1.232   9.762   0.774
26160WAT     H278723   1.279   9.790   0.928
26161WAT      O78724   7.786   8.546   8.732
26161WAT     H178725   7.700   8.523   8.687
26161WAT     H278726   7.771   8.616   8.802
26162WAT      O78727   5.411   3.034   4.620
26162WAT     H178728   5.420   3.113   4.559
26162WAT     H278729   5.381   3.065   4.710
26163WAT      O78730   3.687   5.934   6.486
26163WAT     H178731   3.716   6.000   6.555
26163WAT     H278732   3.767   5.900   6.436
26164WAT      O78733   9.354   8.154   5.693
26164WAT     H178734   9.323   8.066   5.729
26164WAT     H278735   9.277   8.218   5.694
26165WAT      O78736   8.156   2.191   0.815
26165WAT     H178737   8.100   2.248   0.755
26165WAT     H278738   8.162   2.232   0.906
26166WAT      O78739   7.670   4.785   0.062
26166WAT     H178740   7.761   4.822   0.045
26166WAT     H278741   7.650   4.712  -0.003
26167WAT      O78742   6.764   5.621   2.524
26167WAT     H178743   6.759   5.528   2.562
26167WAT     H278744   6.820   5.620   2.441
26168WAT      O78745   6.332   6.570   7.347
26168WAT     H178746   6.297   6.604   7.434
26168WAT     H278747   6.428   6.597   7.337
26169WAT      O78748   5.456   2.095   7.911
26169WAT     H178749   5.526   2.040   7.864
26169WAT     H278750   5.501   2.169   7.961
26170WAT      O78751   0.918   4.720   1.538
26170WAT     H178752   0.959   4.638   1.499
26170WAT     H278753   0.957   4.738   1.629
26171WAT      O78754   5.547   4.121   6.780
26171WAT     H178755   5.502   4.045   6.827
26171WAT     H278756   5.492   4.149   6.701
26172WAT      O78757   9.764   8.518   0.518
26172WAT     H178758   9.734   8.594   0.461
26172WAT     H278759   9.864   8.512   0.514
26173WAT      O78760   4.427   1.707   8.233
26173WAT     H178761   4.397   1.704   8.137
26173WAT     H278762   4.456   1.799   8.256
26174WAT      O78763   4.230   6.541   9.118
26174WAT     H178764   4.152   6.601   9.134
26174WAT     H278765   4.215   6.454   9.165
26175WAT      O78766   7.365   1.756   1.545
26175WAT     H178767   7.366   1.755   1.445
26175WAT     H278768   7.429   1.826   1.578
26176WAT      O78769   1.059   0.745   1.168
26176WAT     H178770   1.043   0.719   1.264
26176WAT     H278771   1.020   0.835   1.151
26177WAT      O78772   5.559   1.238   4.504
26177WAT     H178773   5.548   1.337   4.512
26177WAT     H278774   5.470   1.194   4.515
26178WAT      O78775   4.244   5.265   6.596
26178WAT     H178776   4.302   5.203   6.543
26178WAT     H278777   4.277   5.359   6.585
26179WAT      O78778   0.016   0.514   1.244
26179WAT     H178779  -0.082   0.512   1.264
26179WAT     H278780   0.066   0.555   1.320
26180WAT      O78781   5.669   6.507   6.913
26180WAT     H178782   5.649   6.409   6.915
26180WAT     H278783   5.673   6.542   7.007
26181WAT      O78784   2.916   7.241   3.591
26181WAT     H178785   2.971   7.250   3.674
26181WAT     H278786   2.970   7.269   3.512
26182WAT      O78787   1.602   9.823   2.528
26182WAT     H178788   1.587   9.858   2.435
26182WAT     H278789   1.584   9.725   2.529
26183WAT      O78790   2.946   9.479   9.636
26183WAT     H178791   2.953   9.444   9.729
26183WAT     H278792   2.855   9.458   9.599
26184WAT      O78793   9.750   7.395   5.184
26184WAT     H178794   9.779   7.488   5.163
26184WAT     H278795   9.831   7.337   5.195
26185WAT      O78796   8.097   8.321   2.515
26185WAT     H178797   8.047   8.296   2.432
26185WAT     H278798   8.070   8.413   2.543
26186WAT      O78799   3.479   7.897   0.574
26186WAT     H178800   3.555   7.949   0.536
26186WAT     H278801   3.499   7.799   0.566
26187WAT      O78802   3.796   6.360   7.109
26187WAT     H178803   3.858   6.374   7.186
26187WAT     H278804   3.765   6.265   7.108
26188WAT      O78805   9.576   6.309   5.731
26188WAT     H178806   9.573   6.209   5.733
26188WAT     H278807   9.620   6.339   5.646
26189WAT      O78808   1.200   3.899   6.609
26189WAT     H178809   1.125   3.937   6.554
26189WAT     H278810   1.174   3.899   6.706
26190WAT      O78811   4.733   7.516   8.013
26190WAT     H178812   4.833   7.507   8.008
26190WAT     H278813   4.708   7.610   7.992
26191WAT      O78814   7.892   0.692   9.407
26191WAT     H178815   7.979   0.730   9.438
26191WAT     H278816   7.833   0.766   9.375
26192WAT      O78817   0.134   9.667   3.373
26192WAT     H178818   0.144   9.572   3.345
26192WAT     H278819   0.171   9.679   3.465
26193WAT      O78820   6.030   1.392   7.390
26193WAT     H178821   6.020   1.476   7.338
26193WAT     H278822   6.082   1.325   7.337
26194WAT      O78823   3.443   7.602   4.281
26194WAT     H178824   3.536   7.617   4.314
26194WAT     H278825   3.440   7.622   4.183
26195WAT      O78826   9.228   5.924   2.679
26195WAT     H178827   9.205   5.841   2.628
26195WAT     H278828   9.145   5.964   2.717
26196WAT      O78829   6.246   8.443   1.636
26196WAT     H178830   6.268   8.526   1.584
26196WAT     H278831   6.149   8.420   1.623
26197WAT      O78832   8.109   3.492   5.946
26197WAT     H178833   8.157   3.404   5.949
26197WAT     H278834   8.098   3.527   6.039
26198WAT      O78835   8.850   9.744   6.063
26198WAT     H178836   8.762   9.702   6.085
26198WAT     H278837   8.924   9.690   6.103
26199WAT      O78838   4.368   6.570   2.419
26199WAT     H178839   4.395   6.586   2.324
26199WAT     H278840   4.438   6.515   2.464
26200WAT      O78841   4.608   1.090   3.317
26200WAT     H178842   4.609   1.084   3.416
26200WAT     H278843   4.702   1.102   3.283
26201WAT      O78844   1.535   6.614   6.001
26201WAT     H178845   1.541   6.713   6.006
26201WAT     H278846   1.439   6.586   6.008
26202WAT      O78847   8.611   1.871   9.851
26202WAT     H178848   8.635   1.818   9.770
26202WAT     H278849   8.661   1.958   9.850
26203WAT      O78850   8.054   4.882   4.905
26203WAT     H178851   7.970   4.838   4.936
26203WAT     H278852   8.123   4.877   4.976
26204WAT      O78853   7.327   5.120   8.367
26204WAT     H178854   7.410   5.174   8.353
26204WAT     H278855   7.350   5.023   8.370
26205WAT      O78856   5.717   5.678   9.816
26205WAT     H178857   5.774   5.617   9.760
26205WAT     H278858   5.642   5.626   9.856
26206WAT      O78859   0.250   7.731   6.441
26206WAT     H178860   0.252   7.641   6.485
26206WAT     H278861   0.224   7.800   6.508
26207WAT      O78862   9.490   6.065   5.759
26207WAT     H178863   9.471   6.010   5.678
26207WAT     H278864   9.403   6.092   5.801
26208WAT      O78865   4.966   0.713   6.171
26208WAT     H178866   4.968   0.631   6.113
26208WAT     H278867   5.055   0.724   6.215
26209WAT      O78868   3.017   9.817   6.605
26209WAT     H178869   2.928   9.842   6.644
26209WAT     H278870   3.014   9.723   6.572
26210WAT      O78871   3.181   1.762   6.990
26210WAT     H178872   3.190   1.682   7.050
26210WAT     H278873   3.089   1.800   6.999
26211WAT      O78874   3.427   4.335   4.762
26211WAT     H178875   3.454   4.407   4.699
26211WAT     H278876   3.350   4.367   4.817
26212WAT      O78877   6.989   0.558   7.873
26212WAT     H178878   7.066   0.621   7.866
26212WAT     H278879   7.013   0.483   7.934
26213WAT      O78880   8.964   4.786   8.614
26213WAT     H178881   8.930   4.858   8.674
26213WAT     H278882   9.057   4.808   8.585
26214WAT      O78883   8.718   5.479   9.720
26214WAT     H178884   8.639   5.467   9.661
26214WAT     H278885   8.783   5.542   9.677
26215WAT      O78886   1.675   4.120   1.714
26215WAT     H178887   1.696   4.037   1.663
26215WAT     H278888   1.732   4.124   1.796
26216WAT      O78889   1.852   8.270   3.118
26216WAT     H178890   1.943   8.287   3.156
26216WAT     H278891   1.850   8.298   3.022
26217WAT      O78892   0.878   0.260   5.274
26217WAT     H178893   0.889   0.347   5.322
26217WAT     H278894   0.935   0.259   5.192
26218WAT      O78895   6.631   0.007   6.498
26218WAT     H178896   6.658  -0.029   6.409
26218WAT     H278897   6.654   0.104   6.503
26219WAT      O78898   7.074   5.583   8.620
26219WAT     H178899   7.042   5.545   8.533
26219WAT     H278900   7.093   5.681   8.609
26220WAT      O78901   0.976   9.037   4.356
26220WAT     H178902   1.031   9.002   4.431
26220WAT     H278903   0.884   9.056   4.388
26221WAT      O78904   7.271   1.641   8.558
26221WAT     H178905   7.182   1.637   8.603
26221WAT     H278906   7.298   1.737   8.547
26222WAT      O78907   2.752   2.703   5.094
26222WAT     H178908   2.846   2.697   5.127
26222WAT     H278909   2.748   2.766   5.016
26223WAT      O78910   4.636   9.436   2.023
26223WAT     H178911   4.697   9.377   2.077
26223WAT     H278912   4.658   9.427   1.926
26224WAT      O78913   9.469   6.791   5.788
26224WAT     H178914   9.392   6.852   5.805
26224WAT     H278915   9.443   6.724   5.718
26225WAT      O78916   3.332   6.736   4.199
26225WAT     H178917   3.396   6.804   4.162
26225WAT     H278918   3.379   6.681   4.268
26226WAT      O78919   0.459   4.759   4.253
26226WAT     H178920   0.490   4.711   4.171
26226WAT     H278921   0.367   4.729   4.276
26227WAT      O78922   2.482   4.444   2.856
26227WAT     H178923   2.452   4.431   2.761
26227WAT     H278924   2.479   4.356   2.904
26228WAT      O78925   1.550   0.137   1.349
26228WAT     H178926   1.576   0.042   1.368
26228WAT     H278927   1.633   0.192   1.337
26229WAT      O78928   7.401   1.341   3.133
26229WAT     H178929   7.333   1.339   3.060
26229WAT     H278930   7.389   1.261   3.192
26230WAT      O78931   9.664   6.513   1.928
26230WAT     H178932   9.634   6.605   1.905
26230WAT     H278933   9.584   6.452   1.932
26231WAT      O78934   8.840   3.248   6.682
26231WAT     H178935   8.913   3.219   6.619
26231WAT     H278936   8.844   3.194   6.766
26232WAT      O78937   7.967   7.034   9.887
26232WAT     H178938   8.050   7.078   9.921
26232WAT     H278939   7.900   7.103   9.860
26233WAT      O78940   8.813   3.205   8.484
26233WAT     H178941   8.714   3.208   8.476
26233WAT     H278942   8.854   3.200   8.393
26234WAT      O78943   8.870   9.263   1.470
26234WAT     H178944   8.891   9.183   1.526
26234WAT     H278945   8.797   9.239   1.405
26235WAT      O78946   5.561   7.360   0.197
26235WAT     H178947   5.491   7.364   0.269
26235WAT     H278948   5.636   7.421   0.221
26236WAT      O78949   7.786   8.049   5.944
26236WAT     H178950   7.769   7.953   5.965
26236WAT     H278951   7.702   8.091   5.910
26237WAT      O78952   2.190   7.089   6.713
26237WAT     H178953   2.118   7.034   6.671
26237WAT     H278954   2.162   7.114   6.806
26238WAT      O78955   8.089   9.759   5.117
26238WAT     H178956   8.151   9.686   5.146
26238WAT     H278957   8.132   9.848   5.134
26239WAT      O78958   2.376   4.729   8.049
26239WAT     H178959   2.415   4.708   8.139
26239WAT     H278960   2.368   4.828   8.038
26240WAT      O78961   3.690   8.629   0.614
26240WAT     H178962   3.681   8.531   0.627
26240WAT     H278963   3.647   8.677   0.691
26241WAT      O78964   0.659   3.665   8.328
26241WAT     H178965   0.567   3.658   8.367
26241WAT     H278966   0.660   3.624   8.236
26242WAT      O78967   8.307   7.144   5.206
26242WAT     H178968   8.210   7.158   5.186
26242WAT     H278969   8.319   7.129   5.304
26243WAT      O78970   4.561   6.507   3.951
26243WAT     H178971   4.488   6.541   3.892
26243WAT     H278972   4.649   6.524   3.908
26244WAT      O78973   2.854   1.502   4.243
26244WAT     H178974   2.837   1.404   4.256
26244WAT     H278975   2.868   1.521   4.146
26245WAT      O78976   8.662   4.991   2.767
26245WAT     H178977   8.675   4.915   2.704
26245WAT     H278978   8.751   5.026   2.798
26246WAT      O78979   5.065   9.662   0.900
26246WAT     H178980   5.137   9.613   0.948
26246WAT     H278981   5.065   9.637   0.803
26247WAT      O78982   4.032   4.533   0.908
26247WAT     H178983   4.017   4.612   0.849
26247WAT     H278984   4.037   4.450   0.852
26248WAT      O78985   7.526   2.232   3.169
26248WAT     H178986   7.534   2.271   3.078
26248WAT     H278987   7.451   2.276   3.218
26249WAT      O78988   7.657   1.832   8.629
26249WAT     H178989   7.724   1.894   8.587
26249WAT     H278990   7.635   1.758   8.565
26250WAT      O78991   9.545   3.954   6.199
26250WAT     H178992   9.482   4.029   6.217
26250WAT     H278993   9.575   3.959   6.104
26251WAT      O78994   1.276   8.072   8.146
26251WAT     H178995   1.316   7.983   8.126
26251WAT     H278996   1.325   8.114   8.223
26252WAT      O78997   7.680   4.985   5.134
26252WAT     H178998   7.630   4.933   5.065
26252WAT     H278999   7.706   5.074   5.096
26253WAT      O79000   1.040   8.053   0.180
26253WAT     H179001   1.012   8.122   0.114
26253WAT     H279002   1.058   8.096   0.269
26254WAT      O79003   8.607   9.186   5.723
26254WAT     H179004   8.677   9.254   5.739
26254WAT     H279005   8.647   9.107   5.675
26255WAT      O79006   8.833   5.863   4.719
26255WAT     H179007   8.784   5.842   4.803
26255WAT     H279008   8.825   5.785   4.656
26256WAT      O79009   7.052   5.677   6.018
26256WAT     H179010   6.966   5.728   6.010
26256WAT     H279011   7.107   5.691   5.936
26257WAT      O79012   3.948   9.192   4.056
26257WAT     H179013   3.885   9.240   4.116
26257WAT     H279014   3.968   9.249   3.976
26258WAT      O79015   5.273   0.907   8.896
26258WAT     H179016   5.287   0.868   8.805
26258WAT     H279017   5.266   0.833   8.963
26259WAT      O79018   4.460   3.201   8.482
26259WAT     H179019   4.543   3.229   8.433
26259WAT     H279020   4.418   3.123   8.434
26260WAT      O79021   1.230   1.374   1.866
26260WAT     H179022   1.171   1.446   1.831
26260WAT     H279023   1.293   1.344   1.794
26261WAT      O79024   2.224   9.597   9.818
26261WAT     H179025   2.311   9.614   9.771
26261WAT     H279026   2.242   9.556   9.907
26262WAT      O79027   2.961   7.661   6.748
26262WAT     H179028   2.980   7.747   6.795
26262WAT     H279029   2.880   7.671   6.692
26263WAT      O79030   7.745   7.605   6.732
26263WAT     H179031   7.790   7.537   6.790
26263WAT     H279032   7.686   7.558   6.665
26264WAT      O79033   1.444   9.453   0.294
26264WAT     H179034   1.530   9.500   0.277
26264WAT     H279035   1.389   9.452   0.211
26265WAT      O79036   1.953   9.203   1.799
26265WAT     H179037   1.982   9.118   1.754
26265WAT     H279038   1.853   9.207   1.801
26266WAT      O79039   7.326   5.852   8.854
26266WAT     H179040   7.333   5.943   8.896
26266WAT     H279041   7.240   5.847   8.802
26267WAT      O79042   0.614   8.883   0.586
26267WAT     H179043   0.558   8.927   0.656
26267WAT     H279044   0.559   8.817   0.535
26268WAT      O79045   0.910   3.416   6.330
26268WAT     H179046   0.952   3.363   6.256
26268WAT     H279047   0.863   3.495   6.293
26269WAT      O79048   3.585   7.161   9.365
26269WAT     H179049   3.545   7.117   9.446
26269WAT     H279050   3.652   7.099   9.323
26270WAT      O79051   0.200   9.382   2.043
26270WAT     H179052   0.224   9.351   2.135
26270WAT     H279053   0.177   9.479   2.045
26271WAT      O79054   3.752   4.792   2.934
26271WAT     H179055   3.679   4.860   2.937
26271WAT     H279056   3.818   4.817   2.864
26272WAT      O79057   6.208   2.207   2.868
26272WAT     H179058   6.257   2.121   2.887
26272WAT     H279059   6.268   2.284   2.887
26273WAT      O79060   6.201   8.929   5.433
26273WAT     H179061   6.283   8.886   5.395
26273WAT     H279062   6.131   8.936   5.362
26274WAT      O79063   2.663   8.752   1.271
26274WAT     H179064   2.665   8.652   1.270
26274WAT     H279065   2.751   8.787   1.239
26275WAT      O79066   8.000   4.347   6.550
26275WAT     H179067   8.093   4.319   6.524
26275WAT     H279068   7.997   4.447   6.557
26276WAT      O79069   3.821   6.396   4.815
26276WAT     H179070   3.727   6.420   4.790
26276WAT     H279071   3.841   6.303   4.782
26277WAT      O79072   3.784   2.787   3.852
26277WAT     H179073   3.842   2.732   3.912
26277WAT     H279074   3.749   2.729   3.778
26278WAT      O79075   7.428   2.072   7.354
26278WAT     H179076   7.352   2.035   7.301
26278WAT     H279077   7.400   2.157   7.398
26279WAT      O79078   4.464   8.609   7.325
26279WAT     H179079   4.557   8.571   7.324
26279WAT     H279080   4.461   8.686   7.388
26280WAT      O79081   6.547   5.191   9.107
26280WAT     H179082   6.454   5.176   9.072
26280WAT     H279083   6.549   5.173   9.205
26281WAT      O79084   2.802   0.695   0.564
26281WAT     H179085   2.880   0.670   0.507
26281WAT     H279086   2.722   0.641   0.537
26282WAT      O79087   8.658   8.144   0.665
26282WAT     H179088   8.703   8.177   0.748
26282WAT     H279089   8.665   8.214   0.593
26283WAT      O79090   6.882   9.767   3.250
26283WAT     H179091   6.825   9.774   3.332
26283WAT     H279092   6.836   9.709   3.182
26284WAT      O79093   1.263   0.919   3.951
26284WAT     H179094   1.174   0.939   3.910
26284WAT     H279095   1.251   0.858   4.029
26285WAT      O79096   1.996   0.268   1.472
26285WAT     H179097   1.981   0.302   1.565
26285WAT     H279098   2.022   0.344   1.413
26286WAT      O79099   7.304   6.939   5.432
26286WAT     H179100   7.400   6.917   5.411
26286WAT     H279101   7.276   6.891   5.514
26287WAT      O79102   8.713   5.527   2.416
26287WAT     H179103   8.784   5.468   2.455
26287WAT     H279104   8.667   5.577   2.490
26288WAT      O79105   8.009   2.710   7.271
26288WAT     H179106   7.953   2.678   7.347
26288WAT     H279107   7.949   2.737   7.195
26289WAT      O79108   6.773   3.541   8.381
26289WAT     H179109   6.764   3.570   8.476
26289WAT     H279110   6.718   3.458   8.367
26290WAT      O79111   9.664   7.591   3.487
26290WAT     H179112   9.733   7.650   3.445
26290WAT     H279113   9.677   7.497   3.455
26291WAT      O79114   1.351   8.310   2.204
26291WAT     H179115   1.334   8.405   2.229
26291WAT     H279116   1.283   8.251   2.248
26292WAT      O79117   7.528   3.313   7.600
26292WAT     H179118   7.606   3.255   7.626
26292WAT     H279119   7.478   3.339   7.682
26293WAT      O79120   5.921   4.944   8.694
26293WAT     H179121   5.851   4.879   8.665
26293WAT     H279122   5.968   4.908   8.775
26294WAT      O79123   8.114   0.540   0.416
26294WAT     H179124   8.177   0.494   0.478
26294WAT     H279125   8.163   0.568   0.333
26295WAT      O79126   9.533   0.470   3.826
26295WAT     H179127   9.515   0.491   3.730
26295WAT     H279128   9.468   0.520   3.883
26296WAT      O79129   1.843   7.514   4.246
26296WAT     H179130   1.787   7.444   4.202
26296WAT     H279131   1.902   7.557   4.177
26297WAT      O79132   2.758   3.097   5.314
26297WAT     H179133   2.697   3.093   5.235
26297WAT     H279134   2.838   3.039   5.296
26298WAT      O79135   1.777   5.525   4.095
26298WAT     H179136   1.733   5.442   4.059
26298WAT     H279137   1.802   5.584   4.018
26299WAT      O79138   2.398   0.559   1.722
26299WAT     H179139   2.434   0.644   1.762
26299WAT     H279140   2.306   0.543   1.757
26300WAT      O79141   6.240   9.312   0.274
26300WAT     H179142   6.176   9.265   0.334
26300WAT     H279143   6.227   9.281   0.180
26301WAT      O79144   3.944   0.499   5.415
26301WAT     H179145   3.872   0.493   5.346
26301WAT     H279146   3.962   0.595   5.437
26302WAT      O79147   4.813   8.781   3.726
26302WAT     H179148   4.836   8.831   3.643
26302WAT     H279149   4.789   8.687   3.703
26303WAT      O79150   7.745   6.592   7.989
26303WAT     H179151   7.813   6.548   8.046
26303WAT     H279152   7.737   6.689   8.015
26304WAT      O79153   5.086   5.451   9.773
26304WAT     H179154   5.142   5.529   9.746
26304WAT     H279155   5.041   5.471   9.860
26305WAT      O79156   6.055   8.921   5.042
26305WAT     H179157   6.015   8.950   5.129
26305WAT     H279158   6.154   8.910   5.053
26306WAT      O79159   1.252   9.593   4.503
26306WAT     H179160   1.163   9.591   4.458
26306WAT     H279161   1.240   9.578   4.602
26307WAT      O79162   9.154   3.564   0.220
26307WAT     H179163   9.123   3.616   0.300
26307WAT     H279164   9.252   3.577   0.208
26308WAT      O79165   4.348   1.160   0.543
26308WAT     H179166   4.371   1.127   0.634
26308WAT     H279167   4.394   1.103   0.474
26309WAT      O79168   5.739   5.308   2.926
26309WAT     H179169   5.698   5.217   2.938
26309WAT     H279170   5.670   5.370   2.888
26310WAT      O79171   6.132   7.013   2.088
26310WAT     H179172   6.145   7.112   2.094
26310WAT     H279173   6.050   6.993   2.035
26311WAT      O79174   2.685   7.594   4.899
26311WAT     H179175   2.660   7.510   4.948
26311WAT     H279176   2.602   7.647   4.879
26312WAT      O79177   0.674   9.167   5.046
26312WAT     H179178   0.629   9.120   4.970
26312WAT     H279179   0.753   9.113   5.076
26313WAT      O79180   5.109   8.264   0.163
26313WAT     H179181   5.189   8.304   0.118
26313WAT     H279182   5.061   8.334   0.215
26314WAT      O79183   7.123   3.062   4.857
26314WAT     H179184   7.169   3.128   4.799
26314WAT     H279185   7.037   3.034   4.814
26315WAT      O79186   0.251   6.942   3.922
26315WAT     H179187   0.320   7.007   3.954
26315WAT     H279188   0.252   6.861   3.981
26316WAT      O79189   0.256   1.013   5.714
26316WAT     H179190   0.331   0.964   5.759
26316WAT     H279191   0.292   1.092   5.665
26317WAT      O79192   4.365   3.092   6.083
26317WAT     H179193   4.365   3.122   6.178
26317WAT     H279194   4.325   3.163   6.025
26318WAT      O79195   2.408   7.356   7.831
26318WAT     H179196   2.418   7.264   7.870
26318WAT     H279197   2.341   7.352   7.756
26319WAT      O79198   1.782   6.595   5.463
26319WAT     H179199   1.697   6.613   5.413
26319WAT     H279200   1.821   6.681   5.496
26320WAT      O79201   3.739   3.405   3.887
26320WAT     H179202   3.772   3.328   3.941
26320WAT     H279203   3.669   3.454   3.939
26321WAT      O79204   6.386   5.261   5.553
26321WAT     H179205   6.327   5.336   5.523
26321WAT     H279206   6.467   5.256   5.494
26322WAT      O79207   8.351   6.584   6.781
26322WAT     H179208   8.295   6.657   6.821
26322WAT     H279209   8.383   6.523   6.853
26323WAT      O79210   8.790   7.674   2.351
26323WAT     H179211   8.803   7.680   2.252
26323WAT     H279212   8.730   7.597   2.373
26324WAT      O79213   4.203   0.811   3.838
26324WAT     H179214   4.208   0.785   3.742
26324WAT     H279215   4.197   0.910   3.846
26325WAT      O79216   8.074   2.809   6.361
26325WAT     H179217   8.055   2.713   6.379
26325WAT     H279218   8.065   2.827   6.263
26326WAT      O79219   7.832   6.873   3.693
26326WAT     H179220   7.747   6.902   3.737
26326WAT     H279221   7.831   6.773   3.683
26327WAT      O79222   6.386   5.679   0.760
26327WAT     H179223   6.332   5.662   0.843
26327WAT     H279224   6.478   5.708   0.786
26328WAT      O79225   6.687   0.498   4.907
26328WAT     H179226   6.631   0.424   4.945
26328WAT     H279227   6.657   0.519   4.814
26329WAT      O79228   3.956   2.749   5.871
26329WAT     H179229   3.896   2.789   5.801
26329WAT     H279230   4.034   2.811   5.886
26330WAT      O79231   6.543   7.095   0.636
26330WAT     H179232   6.593   7.161   0.692
26330WAT     H279233   6.607   7.047   0.576
26331WAT      O79234   4.233   6.708   4.068
26331WAT     H179235   4.182   6.684   4.151
26331WAT     H279236   4.328   6.728   4.092
26332WAT      O79237   9.332   5.780   5.915
26332WAT     H179238   9.420   5.796   5.960
26332WAT     H279239   9.288   5.868   5.897
26333WAT      O79240   9.450   3.937   9.757
26333WAT     H179241   9.475   3.909   9.849
26333WAT     H279242   9.380   4.009   9.762
26334WAT      O79243   8.513   9.126   2.402
26334WAT     H179244   8.517   9.205   2.340
26334WAT     H279245   8.530   9.158   2.496
26335WAT      O79246   7.284   6.272   1.633
26335WAT     H179247   7.243   6.352   1.675
26335WAT     H279248   7.225   6.193   1.646
26336WAT      O79249   8.723   4.243   6.733
26336WAT     H179250   8.808   4.201   6.764
26336WAT     H279251   8.646   4.204   6.783
26337WAT      O79252   0.093   5.565   8.292
26337WAT     H179253   0.024   5.588   8.360
26337WAT     H279254   0.141   5.647   8.263
26338WAT      O79255   1.147   8.627   8.528
26338WAT     H179256   1.100   8.680   8.598
26338WAT     H279257   1.087   8.554   8.495
26339WAT      O79258   3.851   4.418   1.094
26339WAT     H179259   3.874   4.435   1.190
26339WAT     H279260   3.918   4.464   1.036
26340WAT      O79261   1.845   0.865   9.603
26340WAT     H179262   1.898   0.947   9.620
26340WAT     H279263   1.757   0.890   9.563
26341WAT      O79264   1.354   3.093   6.917
26341WAT     H179265   1.449   3.062   6.910
26341WAT     H279266   1.307   3.077   6.830
26342WAT      O79267   3.788   7.412   9.234
26342WAT     H179268   3.753   7.335   9.181
26342WAT     H279269   3.745   7.414   9.324
26343WAT      O79270   2.148   5.965   4.168
26343WAT     H179271   2.189   6.046   4.126
26343WAT     H279272   2.213   5.925   4.233
26344WAT      O79273   7.193   3.697   0.325
26344WAT     H179274   7.147   3.661   0.406
26344WAT     H279275   7.219   3.792   0.341
26345WAT      O79276   5.623   2.075   3.198
26345WAT     H179277   5.690   2.013   3.238
26345WAT     H279278   5.584   2.132   3.270
26346WAT      O79279   1.899   8.311   4.397
26346WAT     H179280   1.926   8.376   4.468
26346WAT     H279281   1.980   8.276   4.351
26347WAT      O79282   1.344   0.832   3.628
26347WAT     H179283   1.360   0.888   3.709
26347WAT     H279284   1.274   0.875   3.571
26348WAT      O79285   6.718   6.209   4.239
26348WAT     H179286   6.680   6.189   4.329
26348WAT     H279287   6.643   6.219   4.173
26349WAT      O79288   3.519   1.014   9.620
26349WAT     H179289   3.450   1.075   9.658
26349WAT     H279290   3.515   0.926   9.667
26350WAT      O79291   3.426   6.834   3.076
26350WAT     H179292   3.383   6.903   3.018
26350WAT     H279293   3.448   6.753   3.021
26351WAT      O79294   5.318   6.867   9.744
26351WAT     H179295   5.324   6.877   9.844
26351WAT     H279296   5.379   6.793   9.715
26352WAT      O79297   5.288   1.535   1.142
26352WAT     H179298   5.376   1.576   1.116
26352WAT     H279299   5.300   1.437   1.157
26353WAT      O79300   6.384   1.446   7.340
26353WAT     H179301   6.325   1.517   7.379
26353WAT     H279302   6.328   1.366   7.316
26354WAT      O79303   6.971   0.132   4.801
26354WAT     H179304   6.959   0.035   4.819
26354WAT     H279305   7.069   0.155   4.806
26355WAT      O79306   0.845   5.560   2.592
26355WAT     H179307   0.792   5.623   2.649
26355WAT     H279308   0.879   5.608   2.512
26356WAT      O79309   2.213   2.531   4.208
26356WAT     H179310   2.265   2.539   4.123
26356WAT     H279311   2.270   2.490   4.279
26357WAT      O79312   2.896   4.983   7.053
26357WAT     H179313   2.864   5.009   6.961
26357WAT     H279314   2.977   4.925   7.045
26358WAT      O79315   9.825   1.183   1.919
26358WAT     H179316   9.780   1.215   1.835
26358WAT     H279317   9.874   1.259   1.961
26359WAT      O79318   1.298   8.842   4.685
26359WAT     H179319   1.394   8.856   4.659
26359WAT     H279320   1.295   8.790   4.770
26360WAT      O79321   4.946   3.458   1.443
26360WAT     H179322   4.858   3.498   1.468
26360WAT     H279323   4.939   3.358   1.446
26361WAT      O79324   8.843   8.578   0.557
26361WAT     H179325   8.855   8.590   0.459
26361WAT     H279326   8.749   8.548   0.576
26362WAT      O79327   4.889   2.790   0.128
26362WAT     H179328   4.828   2.723   0.087
26362WAT     H279329   4.944   2.834   0.057
26363WAT      O79330   9.286   1.878   8.969
26363WAT     H179331   9.278   1.795   9.023
26363WAT     H279332   9.195   1.906   8.937
26364WAT      O79333   0.814   0.406   1.372
26364WAT     H179334   0.834   0.414   1.470
26364WAT     H279335   0.825   0.311   1.343
26365WAT      O79336   0.347   1.223   7.244
26365WAT     H179337   0.270   1.160   7.257
26365WAT     H279338   0.312   1.316   7.232
26366WAT      O79339   8.572   4.597   1.645
26366WAT     H179340   8.545   4.530   1.576
26366WAT     H279341   8.561   4.557   1.737
26367WAT      O79342   2.433   1.736   8.555
26367WAT     H179343   2.360   1.772   8.612
26367WAT     H279344   2.431   1.636   8.557
26368WAT      O79345   9.337   7.019   5.872
26368WAT     H179346   9.303   6.958   5.943
26368WAT     H279347   9.360   7.108   5.912
26369WAT      O79348   4.510   7.845   1.179
26369WAT     H179349   4.558   7.925   1.215
26369WAT     H279350   4.482   7.862   1.084
26370WAT      O79351   9.516   1.349   2.881
26370WAT     H179352   9.490   1.382   2.972
26370WAT     H279353   9.451   1.279   2.851
26371WAT      O79354   6.461   8.336   2.767
26371WAT     H179355   6.469   8.276   2.846
26371WAT     H279356   6.447   8.430   2.798
26372WAT      O79357   0.141   6.287   1.098
26372WAT     H179358   0.145   6.382   1.128
26372WAT     H279359   0.232   6.256   1.071
26373WAT      O79360   5.884   1.325   8.373
26373WAT     H179361   5.915   1.276   8.291
26373WAT     H279362   5.855   1.258   8.442
26374WAT      O79363   5.891   9.630   3.934
26374WAT     H179364   5.889   9.645   3.835
26374WAT     H279365   5.890   9.531   3.952
26375WAT      O79366   3.631   2.226   2.798
26375WAT     H179367   3.656   2.308   2.851
26375WAT     H279368   3.532   2.217   2.795
26376WAT      O79369   3.638   0.604   6.786
26376WAT     H179370   3.658   0.680   6.849
26376WAT     H279371   3.638   0.518   6.837
26377WAT      O79372   3.391   7.427   5.073
26377WAT     H179373   3.427   7.334   5.071
26377WAT     H279374   3.405   7.467   5.164
26378WAT      O79375   4.765   1.238   3.956
26378WAT     H179376   4.750   1.316   4.017
26378WAT     H279377   4.717   1.254   3.870
26379WAT      O79378   5.886   2.678   6.204
26379WAT     H179379   5.892   2.681   6.104
26379WAT     H279380   5.975   2.655   6.242
26380WAT      O79381   4.854   4.688   9.605
26380WAT     H179382   4.782   4.675   9.674
26380WAT     H279383   4.812   4.709   9.517
26381WAT      O79384   8.430   6.333   5.283
26381WAT     H179385   8.517   6.313   5.238
26381WAT     H279386   8.382   6.405   5.234
26382WAT      O79387   1.399   1.495   8.002
26382WAT     H179388   1.469   1.450   8.058
26382WAT     H279389   1.443   1.561   7.941
26383WAT      O79390   1.979   0.734   6.823
26383WAT     H179391   2.042   0.656   6.823
26383WAT     H279392   1.885   0.701   6.813
26384WAT      O79393   7.143   2.045   2.466
26384WAT     H179394   7.069   1.978   2.473
26384WAT     H279395   7.151   2.094   2.552
26385WAT      O79396   1.741   6.814   7.672
26385WAT     H179397   1.764   6.793   7.767
26385WAT     H279398   1.707   6.908   7.665
26386WAT      O79399   9.433   0.593   9.498
26386WAT     H179400   9.404   0.513   9.549
26386WAT     H279401   9.526   0.617   9.524
26387WAT      O79402   7.358   3.204   2.957
26387WAT     H179403   7.331   3.169   2.867
26387WAT     H279404   7.322   3.143   3.028
26388WAT      O79405   5.571   6.314   5.335
26388WAT     H179406   5.660   6.287   5.371
26388WAT     H279407   5.559   6.276   5.243
26389WAT      O79408   5.155   5.540   0.441
26389WAT     H179409   5.168   5.441   0.447
26389WAT     H279410   5.240   5.587   0.466
26390WAT      O79411   8.378   6.901   7.180
26390WAT     H179412   8.351   6.923   7.273
26390WAT     H279413   8.424   6.812   7.178
26391WAT      O79414   6.737   9.505   2.456
26391WAT     H179415   6.790   9.470   2.379
26391WAT     H279416   6.639   9.491   2.439
26392WAT      O79417   2.541   8.164   3.634
26392WAT     H179418   2.593   8.146   3.717
26392WAT     H279419   2.592   8.129   3.555
26393WAT      O79420   4.484   0.697   9.259
26393WAT     H179421   4.504   0.791   9.230
26393WAT     H279422   4.385   0.682   9.253
26394WAT      O79423   4.768   3.700   9.435
26394WAT     H179424   4.857   3.722   9.474
26394WAT     H279425   4.710   3.658   9.504
26395WAT      O79426   4.435   6.968   0.860
26395WAT     H179427   4.384   6.893   0.818
26395WAT     H279428   4.393   7.055   0.836
26396WAT      O79429   7.570   4.138   3.998
26396WAT     H179430   7.484   4.098   4.028
26396WAT     H279431   7.646   4.099   4.051
26397WAT      O79432   2.958   2.001   3.134
26397WAT     H179433   3.032   1.952   3.088
26397WAT     H279434   2.961   2.098   3.107
26398WAT      O79435   2.246   3.198   1.951
26398WAT     H179436   2.321   3.168   2.011
26398WAT     H279437   2.160   3.158   1.983
26399WAT      O79438   1.980   2.309   8.084
26399WAT     H179439   2.033   2.371   8.142
26399WAT     H279440   1.886   2.343   8.077
26400WAT      O79441   3.172   2.201   4.348
26400WAT     H179442   3.114   2.138   4.298
26400WAT     H279443   3.115   2.263   4.402
26401WAT      O79444   1.089   8.121   4.880
26401WAT     H179445   1.045   8.091   4.964
26401WAT     H279446   1.179   8.158   4.900
26402WAT      O79447   4.487   7.142   3.533
26402WAT     H179448   4.512   7.120   3.627
26402WAT     H279449   4.394   7.177   3.530
26403WAT      O79450   5.990   0.623   0.829
26403WAT     H179451   5.910   0.611   0.770
26403WAT     H279452   5.979   0.705   0.885
26404WAT      O79453   5.313   2.361   1.765
26404WAT     H179454   5.389   2.386   1.706
26404WAT     H279455   5.331   2.393   1.858
26405WAT      O79456   2.005   3.137   4.976
26405WAT     H179457   1.990   3.059   4.915
26405WAT     H279458   2.040   3.104   5.064
26406WAT      O79459   1.458   9.021   3.597
26406WAT     H179460   1.437   9.109   3.554
26406WAT     H279461   1.446   8.948   3.530
26407WAT      O79462   2.836   4.748   6.576
26407WAT     H179463   2.840   4.656   6.536
26407WAT     H279464   2.785   4.745   6.661
26408WAT      O79465   3.545   7.043   8.940
26408WAT     H179466   3.449   7.051   8.913
26408WAT     H279467   3.555   6.969   9.007
26409WAT      O79468   2.159   2.791   3.028
26409WAT     H179469   2.108   2.771   2.944
26409WAT     H279470   2.106   2.760   3.106
26410WAT      O79471   7.834   8.363   5.725
26410WAT     H179472   7.833   8.282   5.667
26410WAT     H279473   7.746   8.373   5.770
26411WAT      O79474   1.377   8.956   9.296
26411WAT     H179475   1.365   8.930   9.200
26411WAT     H279476   1.441   9.032   9.302
26412WAT      O79477   2.703   6.008   4.566
26412WAT     H179478   2.669   6.043   4.479
26412WAT     H279479   2.802   6.022   4.571
26413WAT      O79480   5.732   1.619   4.461
26413WAT     H179481   5.775   1.664   4.539
26413WAT     H279482   5.636   1.598   4.484
26414WAT      O79483   8.287   6.824   5.092
26414WAT     H179484   8.347   6.893   5.052
26414WAT     H279485   8.192   6.854   5.083
26415WAT      O79486   7.623   0.149   0.146
26415WAT     H179487   7.606   0.231   0.091
26415WAT     H279488   7.611   0.068   0.089
26416WAT      O79489   9.367   6.119   9.813
26416WAT     H179490   9.407   6.036   9.851
26416WAT     H279491   9.350   6.107   9.715
26417WAT      O79492   0.971   4.517   9.044
26417WAT     H179493   0.896   4.450   9.044
26417WAT     H279494   1.056   4.470   9.066
26418WAT      O79495   4.499   8.466   4.253
26418WAT     H179496   4.423   8.424   4.303
26418WAT     H279497   4.475   8.560   4.230
26419WAT      O79498   2.046   6.156   8.117
26419WAT     H179499   2.078   6.093   8.046
26419WAT     H279500   1.990   6.107   8.183
26420WAT      O79501   1.613   2.798   2.503
26420WAT     H179502   1.541   2.810   2.435
26420WAT     H279503   1.595   2.715   2.556
26421WAT      O79504   0.424   8.516   6.586
26421WAT     H179505   0.521   8.540   6.587
26421WAT     H279506   0.409   8.431   6.636
26422WAT      O79507   5.745   8.818   0.424
26422WAT     H179508   5.689   8.899   0.439
26422WAT     H279509   5.799   8.798   0.506
26423WAT      O79510   5.607   5.626   2.375
26423WAT     H179511   5.512   5.624   2.404
26423WAT     H279512   5.614   5.591   2.281
26424WAT      O79513   5.902   9.692   5.219
26424WAT     H179514   5.922   9.765   5.285
26424WAT     H279515   5.825   9.637   5.253
26425WAT      O79516   5.652   3.081   8.028
26425WAT     H179517   5.565   3.047   7.992
26425WAT     H279518   5.690   3.149   7.965
26426WAT      O79519   6.930   5.971   2.223
26426WAT     H179520   6.974   5.925   2.299
26426WAT     H279521   6.836   5.936   2.213
26427WAT      O79522   0.542   2.193   6.727
26427WAT     H179523   0.599   2.167   6.805
26427WAT     H279524   0.600   2.229   6.654
26428WAT      O79525   1.242   1.084   5.752
26428WAT     H179526   1.297   1.021   5.698
26428WAT     H279527   1.286   1.100   5.840
26429WAT      O79528   6.310   7.293   4.354
26429WAT     H179529   6.390   7.350   4.369
26429WAT     H279530   6.299   7.230   4.431
26430WAT      O79531   8.768   3.730   0.078
26430WAT     H179532   8.736   3.700   0.168
26430WAT     H279533   8.740   3.825   0.063
26431WAT      O79534   6.425   4.911   5.116
26431WAT     H179535   6.424   4.913   5.016
26431WAT     H279536   6.333   4.928   5.151
26432WAT      O79537   5.138   5.283   0.197
26432WAT     H179538   5.235   5.266   0.213
26432WAT     H279539   5.125   5.376   0.162
26433WAT      O79540   5.521   4.845   7.449
26433WAT     H179541   5.507   4.859   7.547
26433WAT     H279542   5.493   4.752   7.425
26434WAT      O79543   2.395   3.167   1.710
26434WAT     H179544   2.483   3.213   1.723
26434WAT     H279545   2.337   3.185   1.789
26435WAT      O79546   0.322   2.845   5.785
26435WAT     H179547   0.290   2.835   5.691
26435WAT     H279548   0.330   2.942   5.807
26436WAT      O79549   7.266   6.155   9.583
26436WAT     H179550   7.184   6.126   9.633
26436WAT     H279551   7.340   6.173   9.648
26437WAT      O79552   0.331   9.781   5.440
26437WAT     H179553   0.410   9.736   5.398
26437WAT     H279554   0.362   9.845   5.510
26438WAT      O79555   1.486   4.559   6.575
26438WAT     H179556   1.463   4.569   6.479
26438WAT     H279557   1.519   4.646   6.612
26439WAT      O79558   5.458   3.186   2.448
26439WAT     H179559   5.413   3.214   2.364
26439WAT     H279560   5.468   3.087   2.450
26440WAT      O79561   4.484   4.596   3.594
26440WAT     H179562   4.429   4.526   3.549
26440WAT     H279563   4.443   4.686   3.578
26441WAT      O79564   1.121   2.680   9.046
26441WAT     H179565   1.115   2.603   8.982
26441WAT     H279566   1.207   2.729   9.032
26442WAT      O79567   2.892   9.584   2.529
26442WAT     H179568   2.843   9.588   2.616
26442WAT     H279569   2.933   9.493   2.519
26443WAT      O79570   7.901   1.400   9.050
26443WAT     H179571   7.945   1.436   8.968
26443WAT     H279572   7.845   1.321   9.025
26444WAT      O79573   8.327   2.576   5.252
26444WAT     H179574   8.381   2.542   5.329
26444WAT     H279575   8.370   2.657   5.214
26445WAT      O79576   5.746   1.983   2.851
26445WAT     H179577   5.813   2.008   2.921
26445WAT     H279578   5.654   1.991   2.889
26446WAT      O79579   7.524   3.823   4.729
26446WAT     H179580   7.566   3.734   4.713
26446WAT     H279581   7.430   3.823   4.696
26447WAT      O79582   4.482   6.986   8.872
26447WAT     H179583   4.388   6.964   8.899
26447WAT     H279584   4.545   6.923   8.916
26448WAT      O79585   0.231   5.608   3.252
26448WAT     H179586   0.148   5.569   3.290
26448WAT     H279587   0.292   5.535   3.221
26449WAT      O79588   4.395   4.940   2.626
26449WAT     H179589   4.373   4.995   2.707
26449WAT     H279590   4.317   4.882   2.603
26450WAT      O79591   7.691   5.891   3.768
26450WAT     H179592   7.771   5.950   3.758
26450WAT     H279593   7.717   5.796   3.749
26451WAT      O79594   1.284   6.690   3.486
26451WAT     H179595   1.328   6.727   3.405
26451WAT     H279596   1.352   6.678   3.558
26452WAT      O79597   8.450   5.575   4.705
26452WAT     H179598   8.540   5.603   4.738
26452WAT     H279599   8.459   5.529   4.617
26453WAT      O79600   8.374   6.100   9.179
26453WAT     H179601   8.381   6.069   9.274
26453WAT     H279602   8.278   6.102   9.152
26454WAT      O79603   0.023   7.854   2.325
26454WAT     H179604   0.072   7.777   2.365
26454WAT     H279605  -0.044   7.820   2.259
26455WAT      O79606   3.871   3.197   4.013
26455WAT     H179607   3.829   3.130   4.073
26455WAT     H279608   3.939   3.251   4.064
26456WAT      O79609   4.052   6.595   4.976
26456WAT     H179610   4.120   6.667   4.985
26456WAT     H279611   4.057   6.556   4.884
26457WAT      O79612   8.153   8.283   6.881
26457WAT     H179613   8.251   8.265   6.881
26457WAT     H279614   8.110   8.234   6.805
26458WAT      O79615   1.492   3.199   5.347
26458WAT     H179616   1.455   3.146   5.423
26458WAT     H279617   1.592   3.198   5.351
26459WAT      O79618   5.060   0.653   0.214
26459WAT     H179619   5.049   0.636   0.312
26459WAT     H279620   5.050   0.751   0.196
26460WAT      O79621   4.416   9.128   0.711
26460WAT     H179622   4.403   9.121   0.612
26460WAT     H279623   4.410   9.038   0.752
26461WAT      O79624   2.735   5.151   1.106
26461WAT     H179625   2.703   5.222   1.044
26461WAT     H279626   2.802   5.190   1.170
26462WAT      O79627   3.261   6.011   5.042
26462WAT     H179628   3.325   6.062   4.985
26462WAT     H279629   3.294   6.010   5.137
26463WAT      O79630   4.935   7.312   2.025
26463WAT     H179631   4.951   7.298   2.123
26463WAT     H279632   4.838   7.328   2.010
26464WAT      O79633   9.033   6.033   0.510
26464WAT     H179634   9.070   6.115   0.468
26464WAT     H279635   8.934   6.029   0.494
26465WAT      O79636   5.820   5.416   6.788
26465WAT     H179637   5.887   5.422   6.862
26465WAT     H279638   5.753   5.344   6.810
26466WAT      O79639   6.476   0.519   7.130
26466WAT     H179640   6.531   0.577   7.069
26466WAT     H279641   6.401   0.572   7.169
26467WAT      O79642   8.879   1.569   7.825
26467WAT     H179643   8.804   1.629   7.851
26467WAT     H279644   8.944   1.564   7.901
26468WAT      O79645   0.683   8.512   1.887
26468WAT     H179646   0.643   8.506   1.979
26468WAT     H279647   0.777   8.544   1.894
26469WAT      O79648   2.567   4.630   5.445
26469WAT     H179649   2.518   4.548   5.474
26469WAT     H279650   2.665   4.616   5.459
26470WAT      O79651   7.268   1.383   7.413
26470WAT     H179652   7.204   1.448   7.373
26470WAT     H279653   7.285   1.406   7.508
26471WAT      O79654   8.180   6.707   2.236
26471WAT     H179655   8.148   6.767   2.162
26471WAT     H279656   8.113   6.707   2.310
26472WAT      O79657   8.617   8.437   2.283
26472WAT     H179658   8.683   8.498   2.239
26472WAT     H279659   8.652   8.408   2.372
26473WAT      O79660   0.777   1.324   6.606
26473WAT     H179661   0.827   1.336   6.520
26473WAT     H279662   0.679   1.316   6.588
26474WAT      O79663   6.493   4.252   6.710
26474WAT     H179664   6.584   4.251   6.668
26474WAT     H279665   6.458   4.345   6.712
26475WAT      O79666   9.800   4.121   0.110
26475WAT     H179667   9.733   4.196   0.114
26475WAT     H279668   9.826   4.105   0.015
26476WAT      O79669   6.758   6.504   4.710
26476WAT     H179670   6.789   6.411   4.688
26476WAT     H279671   6.775   6.523   4.807
26477WAT      O79672   3.345   1.623   6.031
26477WAT     H179673   3.282   1.577   6.094
26477WAT     H279674   3.308   1.713   6.007
26478WAT      O79675   6.641   7.295   4.091
26478WAT     H179676   6.594   7.339   4.168
26478WAT     H279677   6.706   7.359   4.050
26479WAT      O79678   4.585   8.530   5.488
26479WAT     H179679   4.599   8.441   5.446
26479WAT     H279680   4.531   8.520   5.572
26480WAT      O79681   8.982   1.661   6.043
26480WAT     H179682   8.958   1.611   5.960
26480WAT     H279683   9.081   1.659   6.056
26481WAT      O79684   7.094   6.605   6.695
26481WAT     H179685   7.139   6.624   6.782
26481WAT     H279686   7.010   6.552   6.711
26482WAT      O79687   2.066   2.202   5.683
26482WAT     H179688   2.065   2.247   5.594
26482WAT     H279689   2.037   2.107   5.673
26483WAT      O79690   4.247   1.447   1.667
26483WAT     H179691   4.162   1.493   1.642
26483WAT     H279692   4.228   1.380   1.739
26484WAT      O79693   0.335   1.098   4.495
26484WAT     H179694   0.328   1.093   4.595
26484WAT     H279695   0.370   1.189   4.469
26485WAT      O79696   6.173   5.004   4.745
26485WAT     H179697   6.221   5.089   4.769
26485WAT     H279698   6.203   4.930   4.805
26486WAT      O79699   0.388   8.620   7.396
26486WAT     H179700   0.316   8.636   7.463
26486WAT     H279701   0.357   8.648   7.305
26487WAT      O79702   6.841   3.063   8.607
26487WAT     H179703   6.797   2.995   8.665
26487WAT     H279704   6.772   3.107   8.549
26488WAT      O79705   2.903   8.993   4.390
26488WAT     H179706   2.864   9.076   4.352
26488WAT     H279707   2.853   8.913   4.355
26489WAT      O79708   4.425   6.842   9.644
26489WAT     H179709   4.446   6.910   9.575
26489WAT     H279710   4.361   6.880   9.711
26490WAT      O79711   7.601   3.981   7.044
26490WAT     H179712   7.619   4.012   6.951
26490WAT     H279713   7.664   4.027   7.107
26491WAT      O79714   3.820   5.927   3.387
26491WAT     H179715   3.909   5.887   3.363
26491WAT     H279716   3.769   5.946   3.304
26492WAT      O79717   9.673   8.371   1.351
26492WAT     H179718   9.607   8.332   1.414
26492WAT     H279719   9.766   8.351   1.383
26493WAT      O79720   3.432   3.019   5.708
26493WAT     H179721   3.375   3.025   5.790
26493WAT     H279722   3.456   3.111   5.677
26494WAT      O79723   8.868   9.699   6.909
26494WAT     H179724   8.846   9.607   6.878
26494WAT     H279725   8.947   9.696   6.970
26495WAT      O79726   2.763   3.475   1.351
26495WAT     H179727   2.820   3.510   1.277
26495WAT     H279728   2.769   3.375   1.354
26496WAT      O79729   5.154   3.634   5.238
26496WAT     H179730   5.085   3.576   5.280
26496WAT     H279731   5.234   3.579   5.213
26497WAT      O79732   1.978   1.390   4.416
26497WAT     H179733   1.933   1.332   4.484
26497WAT     H279734   2.076   1.397   4.439
26498WAT      O79735   8.725   8.638   0.933
26498WAT     H179736   8.671   8.718   0.911
26498WAT     H279737   8.815   8.645   0.890
26499WAT      O79738   1.357   9.106   7.528
26499WAT     H179739   1.328   9.180   7.468
26499WAT     H279740   1.378   9.142   7.619
26500WAT      O79741   0.061   1.828   8.600
26500WAT     H179742   0.094   1.771   8.525
26500WAT     H279743   0.121   1.817   8.679
26501WAT      O79744   4.083   8.695   7.607
26501WAT     H179745   4.100   8.596   7.614
26501WAT     H279746   3.993   8.715   7.647
26502WAT      O79747   1.678   0.425   7.956
26502WAT     H179748   1.579   0.429   7.975
26502WAT     H279749   1.728   0.440   8.041
26503WAT      O79750   6.235   5.236   2.993
26503WAT     H179751   6.233   5.181   3.077
26503WAT     H279752   6.290   5.189   2.924
26504WAT      O79753   0.153   9.404   4.188
26504WAT     H179754   0.066   9.428   4.231
26504WAT     H279755   0.204   9.342   4.248
26505WAT      O79756   2.222   8.450   8.047
26505WAT     H179757   2.320   8.438   8.059
26505WAT     H279758   2.201   8.547   8.035
26506WAT      O79759   6.233   8.332   2.042
26506WAT     H179760   6.148   8.298   2.002
26506WAT     H279761   6.221   8.345   2.141
26507WAT      O79762   3.306   3.005   8.894
26507WAT     H179763   3.382   2.965   8.843
26507WAT     H279764   3.224   3.003   8.837
26508WAT      O79765   5.741   1.193   5.233
26508WAT     H179766   5.742   1.292   5.239
26508WAT     H279767   5.810   1.162   5.168
26509WAT      O79768   3.904   2.433   3.609
26509WAT     H179769   3.930   2.397   3.519
26509WAT     H279770   3.945   2.376   3.681
26510WAT      O79771   5.149   9.515   7.553
26510WAT     H179772   5.138   9.604   7.508
26510WAT     H279773   5.175   9.528   7.648
26511WAT      O79774   1.590   1.270   2.649
26511WAT     H179775   1.547   1.259   2.739
26511WAT     H279776   1.558   1.198   2.588
26512WAT      O79777   3.288   8.035   6.593
26512WAT     H179778   3.288   8.022   6.494
26512WAT     H279779   3.382   8.050   6.624
26513WAT      O79780   7.281   6.500   3.584
26513WAT     H179781   7.334   6.418   3.607
26513WAT     H279782   7.185   6.474   3.568
26514WAT      O79783   7.107   6.271   8.882
26514WAT     H179784   7.119   6.367   8.906
26514WAT     H279785   7.186   6.240   8.829
26515WAT      O79786   2.355   5.527   0.348
26515WAT     H179787   2.363   5.606   0.410
26515WAT     H279788   2.323   5.448   0.400
26516WAT      O79789   9.374   0.620   7.729
26516WAT     H179790   9.366   0.533   7.778
26516WAT     H279791   9.406   0.604   7.636
26517WAT      O79792   3.703   0.343   2.138
26517WAT     H179793   3.673   0.282   2.064
26517WAT     H279794   3.670   0.435   2.119
26518WAT      O79795   8.373   7.094   5.457
26518WAT     H179796   8.391   7.022   5.524
26518WAT     H279797   8.460   7.135   5.429
26519WAT      O79798   7.836   9.533   6.182
26519WAT     H179799   7.815   9.437   6.201
26519WAT     H279800   7.770   9.568   6.115
26520WAT      O79801   6.378   9.687   5.871
26520WAT     H179802   6.300   9.643   5.916
26520WAT     H279803   6.434   9.617   5.826
26521WAT      O79804   2.118   1.430   8.473
26521WAT     H179805   2.142   1.344   8.429
26521WAT     H279806   2.049   1.477   8.417
26522WAT      O79807   9.267   9.245   1.901
26522WAT     H179808   9.196   9.315   1.909
26522WAT     H279809   9.357   9.289   1.898
26523WAT      O79810   9.233   2.458   8.674
26523WAT     H179811   9.212   2.551   8.705
26523WAT     H279812   9.329   2.438   8.693
26524WAT      O79813   6.852   3.559   7.589
26524WAT     H179814   6.841   3.533   7.685
26524WAT     H279815   6.889   3.652   7.585
26525WAT      O79816   2.025   7.585   7.095
26525WAT     H179817   2.011   7.573   6.997
26525WAT     H279818   1.947   7.633   7.134
26526WAT      O79819   1.510   5.444   5.426
26526WAT     H179820   1.579   5.372   5.437
26526WAT     H279821   1.556   5.531   5.409
26527WAT      O79822   5.694   7.844   9.089
26527WAT     H179823   5.630   7.885   9.024
26527WAT     H279824   5.763   7.792   9.039
26528WAT      O79825   1.604   3.500   4.638
26528WAT     H179826   1.656   3.542   4.563
26528WAT     H279827   1.603   3.562   4.716
26529WAT      O79828   5.413   1.266   6.609
26529WAT     H179829   5.496   1.249   6.555
26529WAT     H279830   5.333   1.249   6.553
26530WAT      O79831   5.113   5.185   2.138
26530WAT     H179832   5.074   5.099   2.172
26530WAT     H279833   5.209   5.192   2.167
26531WAT      O79834   9.613   4.603   3.520
26531WAT     H179835   9.577   4.525   3.470
26531WAT     H279836   9.635   4.677   3.455
26532WAT      O79837   0.654   9.441   7.205
26532WAT     H179838   0.689   9.523   7.160
26532WAT     H279839   0.554   9.440   7.200
26533WAT      O79840   2.437   0.476   6.972
26533WAT     H179841   2.523   0.426   6.983
26533WAT     H279842   2.445   0.566   7.015
26534WAT      O79843   0.077   0.259   8.455
26534WAT     H179844  -0.019   0.275   8.480
26534WAT     H279845   0.088   0.273   8.357
26535WAT      O79846   9.388   7.152   2.873
26535WAT     H179847   9.457   7.122   2.939
26535WAT     H279848   9.319   7.207   2.920
26536WAT      O79849   2.673   9.497   5.045
26536WAT     H179850   2.578   9.472   5.060
26536WAT     H279851   2.679   9.560   4.968
26537WAT      O79852   3.299   4.936   6.490
26537WAT     H179853   3.291   5.034   6.504
26537WAT     H279854   3.288   4.915   6.393
26538WAT      O79855   1.687   6.915   8.927
26538WAT     H179856   1.656   6.843   8.990
26538WAT     H279857   1.634   6.910   8.842
26539WAT      O79858   5.794   8.273   4.982
26539WAT     H179859   5.848   8.356   4.993
26539WAT     H279860   5.854   8.194   4.983
26540WAT      O79861   0.837   5.432   3.822
26540WAT     H179862   0.739   5.426   3.801
26540WAT     H279863   0.856   5.380   3.906
26541WAT      O79864   0.123   9.828   9.787
26541WAT     H179865   0.126   9.802   9.883
26541WAT     H279866   0.037   9.875   9.767
26542WAT      O79867   4.517   3.525   3.578
26542WAT     H179868   4.457   3.557   3.505
26542WAT     H279869   4.501   3.427   3.594
26543WAT      O79870   4.895   5.608   1.386
26543WAT     H179871   4.863   5.639   1.476
26543WAT     H279872   4.818   5.604   1.323
26544WAT      O79873   9.364   4.244   5.938
26544WAT     H179874   9.418   4.324   5.911
26544WAT     H279875   9.388   4.218   6.031
26545WAT      O79876   0.370   3.172   3.155
26545WAT     H179877   0.305   3.217   3.216
26545WAT     H279878   0.375   3.075   3.178
26546WAT      O79879   7.931   1.916   3.475
26546WAT     H179880   7.950   2.013   3.491
26546WAT     H279881   7.840   1.894   3.509
26547WAT      O79882   9.801   4.591   1.799
26547WAT     H179883   9.843   4.562   1.885
26547WAT     H279884   9.811   4.517   1.732
26548WAT      O79885   3.256   7.361   7.854
26548WAT     H179886   3.245   7.267   7.823
26548WAT     H279887   3.167   7.400   7.879
26549WAT      O79888   0.540   6.817   6.471
26549WAT     H179889   0.456   6.800   6.419
26549WAT     H279890   0.612   6.846   6.409
26550WAT      O79891   1.639   1.030   0.422
26550WAT     H179892   1.629   0.931   0.416
26550WAT     H279893   1.551   1.074   0.405
26551WAT      O79894   7.534   2.435   0.890
26551WAT     H179895   7.593   2.440   0.971
26551WAT     H279896   7.563   2.504   0.824
26552WAT      O79897   2.545   3.866   2.960
26552WAT     H179898   2.545   3.920   3.044
26552WAT     H279899   2.600   3.783   2.973
26553WAT      O79900   7.690   3.947   0.981
26553WAT     H179901   7.684   3.847   0.987
26553WAT     H279902   7.699   3.985   1.073
26554WAT      O79903   7.196   6.571   5.498
26554WAT     H179904   7.248   6.487   5.515
26554WAT     H279905   7.239   6.647   5.546
26555WAT      O79906   5.836   3.266   1.396
26555WAT     H179907   5.869   3.179   1.431
26555WAT     H279908   5.780   3.311   1.465
26556WAT      O79909   5.015   2.734   3.362
26556WAT     H179910   5.112   2.714   3.348
26556WAT     H279911   4.990   2.713   3.456
26557WAT      O79912   0.883   6.642   9.258
26557WAT     H179913   0.838   6.662   9.171
26557WAT     H279914   0.900   6.728   9.307
26558WAT      O79915   5.260   6.159   9.501
26558WAT     H179916   5.204   6.165   9.419
26558WAT     H279917   5.354   6.134   9.476
26559WAT      O79918   1.614   3.744   2.925
26559WAT     H179919   1.583   3.797   2.846
26559WAT     H279920   1.687   3.793   2.973
26560WAT      O79921   2.006   2.480   0.765
26560WAT     H179922   2.103   2.462   0.746
26560WAT     H279923   1.992   2.494   0.863
26561WAT      O79924   0.061   4.424   5.037
26561WAT     H179925   0.037   4.503   5.093
26561WAT     H279926   0.117   4.454   4.960
26562WAT      O79927   2.991   3.227   8.304
26562WAT     H179928   2.981   3.173   8.220
26562WAT     H279929   2.949   3.179   8.381
26563WAT      O79930   0.087   3.078   9.877
26563WAT     H179931  -0.002   3.087   9.921
26563WAT     H279932   0.092   2.990   9.829
26564WAT      O79933   2.878   5.281   5.265
26564WAT     H179934   2.821   5.200   5.252
26564WAT     H279935   2.851   5.352   5.200
26565WAT      O79936   8.775   5.900   1.539
26565WAT     H179937   8.741   5.811   1.508
26565WAT     H279938   8.851   5.886   1.603
26566WAT      O79939   3.646   0.016   9.453
26566WAT     H179940   3.685  -0.057   9.510
26566WAT     H279941   3.547   0.009   9.455
26567WAT      O79942   8.295   6.316   1.621
26567WAT     H179943   8.280   6.233   1.567
26567WAT     H279944   8.307   6.292   1.717
26568WAT      O79945   8.993   2.966   8.991
26568WAT     H179946   9.085   2.927   8.988
26568WAT     H279947   8.925   2.892   8.984
26569WAT      O79948   4.731   1.654   6.364
26569WAT     H179949   4.827   1.674   6.347
26569WAT     H279950   4.718   1.626   6.459
26570WAT      O79951   9.836   2.291   8.213
26570WAT     H179952   9.795   2.297   8.123
26570WAT     H279953   9.935   2.302   8.205
26571WAT      O79954   0.468   7.001   5.152
26571WAT     H179955   0.550   6.945   5.164
26571WAT     H279956   0.404   6.983   5.227
26572WAT      O79957   6.442   1.941   4.533
26572WAT     H179958   6.386   1.997   4.594
26572WAT     H279959   6.485   1.867   4.586
26573WAT      O79960   0.285   3.111   6.898
26573WAT     H179961   0.310   3.152   6.810
26573WAT     H279962   0.206   3.159   6.935
26574WAT      O79963   9.838   8.241   2.670
26574WAT     H179964   9.811   8.336   2.684
26574WAT     H279965   9.778   8.180   2.722
26575WAT      O79966   3.174   6.941   8.613
26575WAT     H179967   3.266   6.940   8.575
26575WAT     H279968   3.114   6.882   8.559
26576WAT      O79969   9.728   8.615   7.321
26576WAT     H179970   9.768   8.525   7.302
26576WAT     H279971   9.629   8.609   7.316
26577WAT      O79972   8.763   1.766   3.902
26577WAT     H179973   8.732   1.853   3.864
26577WAT     H279974   8.753   1.694   3.834
26578WAT      O79975   1.913   4.199   6.636
26578WAT     H179976   1.846   4.269   6.610
26578WAT     H279977   2.000   4.243   6.659
26579WAT      O79978   5.426   8.216   2.003
26579WAT     H179979   5.483   8.255   1.930
26579WAT     H279980   5.347   8.275   2.018
26580WAT      O79981   8.284   3.831   0.158
26580WAT     H179982   8.220   3.906   0.180
26580WAT     H279983   8.373   3.850   0.200
26581WAT      O79984   7.010   7.087   6.528
26581WAT     H179985   7.013   7.095   6.428
26581WAT     H279986   6.931   7.031   6.555
26582WAT      O79987   2.053   8.058   1.440
26582WAT     H179988   1.975   8.120   1.439
26582WAT     H279989   2.135   8.108   1.470
26583WAT      O79990   9.415   1.076   6.358
26583WAT     H179991   9.329   1.089   6.407
26583WAT     H279992   9.400   1.014   6.280
26584WAT      O79993   2.228   6.454   2.496
26584WAT     H179994   2.175   6.537   2.513
26584WAT     H279995   2.320   6.479   2.466
26585WAT      O79996   4.633   2.362   0.342
26585WAT     H179997   4.634   2.262   0.335
26585WAT     H279998   4.726   2.396   0.351
26586WAT      O79999   9.015   1.574   9.611
26586WAT     H180000   9.052   1.615   9.528
26586WAT     H280001   8.986   1.480   9.592
26587WAT      O80002   1.975   1.146   6.304
26587WAT     H180003   1.969   1.061   6.253
26587WAT     H280004   1.885   1.171   6.339
26588WAT      O80005   0.016   3.282   4.311
26588WAT     H180006  -0.040   3.301   4.231
26588WAT     H280007  -0.038   3.298   4.394
26589WAT      O80008   4.341   8.737   2.016
26589WAT     H180009   4.248   8.725   2.052
26589WAT     H280010   4.407   8.705   2.083
26590WAT      O80011   4.075   1.265   3.569
26590WAT     H180012   4.058   1.344   3.629
26590WAT     H280013   4.118   1.296   3.484
26591WAT      O80014   4.645   6.836   1.260
26591WAT     H180015   4.601   6.880   1.338
26591WAT     H280016   4.637   6.737   1.270
26592WAT      O80017   5.224   6.157   8.361
26592WAT     H180018   5.288   6.082   8.344
26592WAT     H280019   5.236   6.191   8.454
26593WAT      O80020   1.809   3.398   6.063
26593WAT     H180021   1.761   3.326   6.114
26593WAT     H280022   1.837   3.363   5.974
26594WAT      O80023   2.311   7.486   8.560
26594WAT     H180024   2.391   7.442   8.520
26594WAT     H280025   2.234   7.422   8.558
26595WAT      O80026   2.950   2.729   3.717
26595WAT     H180027   3.046   2.750   3.699
26595WAT     H280028   2.893   2.775   3.649
26596WAT      O80029   8.601   7.413   6.589
26596WAT     H180030   8.551   7.482   6.641
26596WAT     H280031   8.638   7.344   6.651
26597WAT      O80032   2.891   8.254   2.510
26597WAT     H180033   2.883   8.181   2.577
26597WAT     H280034   2.800   8.286   2.484
26598WAT      O80035   0.195   2.548   8.770
26598WAT     H180036   0.199   2.642   8.805
26598WAT     H280037   0.125   2.542   8.698
26599WAT      O80038   5.215   2.463   6.500
26599WAT     H180039   5.161   2.431   6.422
26599WAT     H280040   5.293   2.516   6.466
26600WAT      O80041   8.495   0.401   2.530
26600WAT     H180042   8.425   0.430   2.464
26600WAT     H280043   8.453   0.383   2.618
26601WAT      O80044   2.736   7.988   6.155
26601WAT     H180045   2.653   7.964   6.206
26601WAT     H280046   2.759   7.914   6.093
26602WAT      O80047   6.796   1.165   7.621
26602WAT     H180048   6.788   1.155   7.522
26602WAT     H280049   6.747   1.090   7.666
26603WAT      O80050   0.284   3.254   0.934
26603WAT     H180051   0.209   3.188   0.936
26603WAT     H280052   0.254   3.340   0.975
26604WAT      O80053   1.009   1.950   9.268
26604WAT     H180054   0.947   1.874   9.284
26604WAT     H280055   1.007   1.975   9.171
26605WAT      O80056   1.057   3.868   5.492
26605WAT     H180057   0.967   3.876   5.450
26605WAT     H280058   1.052   3.891   5.589
26606WAT      O80059   1.421   9.724   3.334
26606WAT     H180060   1.457   9.805   3.288
26606WAT     H280061   1.329   9.743   3.369
26607WAT      O80062   7.769   7.698   8.615
26607WAT     H180063   7.840   7.765   8.638
26607WAT     H280064   7.739   7.652   8.698
26608WAT      O80065   3.496   7.530   7.871
26608WAT     H180066   3.400   7.502   7.870
26608WAT     H280067   3.502   7.629   7.864
26609WAT      O80068   9.508   3.711   6.624
26609WAT     H180069   9.567   3.707   6.705
26609WAT     H280070   9.428   3.767   6.645
26610WAT      O80071   1.370   9.442   0.042
26610WAT     H180072   1.394   9.513  -0.024
26610WAT     H280073   1.340   9.360  -0.007
26611WAT      O80074   1.041   4.970   8.795
26611WAT     H180075   0.968   4.953   8.729
26611WAT     H280076   1.015   4.930   8.883
26612WAT      O80077   4.947   1.403   6.210
26612WAT     H180078   4.895   1.339   6.266
26612WAT     H280079   4.885   1.461   6.157
26613WAT      O80080   9.873   1.100   1.031
26613WAT     H180081   9.865   1.193   0.995
26613WAT     H280082   9.866   1.034   0.956
26614WAT      O80083   5.945   3.366   8.975
26614WAT     H180084   5.853   3.334   8.999
26614WAT     H280085   5.949   3.386   8.877
26615WAT      O80086   7.299   9.127   2.744
26615WAT     H180087   7.359   9.125   2.664
26615WAT     H280088   7.290   9.035   2.782
26616WAT      O80089   0.394   7.095   2.310
26616WAT     H180090   0.320   7.032   2.288
26616WAT     H280091   0.361   7.166   2.372
26617WAT      O80092   0.081   2.973   4.779
26617WAT     H180093   0.156   2.965   4.844
26617WAT     H280094   0.097   2.912   4.702
26618WAT      O80095   6.602   9.105   1.214
26618WAT     H180096   6.529   9.048   1.253
26618WAT     H280097   6.562   9.181   1.163
26619WAT      O80098   8.990   0.707   1.015
26619WAT     H180099   8.900   0.673   1.043
26619WAT     H280100   8.999   0.697   0.916
26620WAT      O80101   2.800   5.297   4.624
26620WAT     H180102   2.889   5.251   4.622
26620WAT     H280103   2.750   5.277   4.541
26621WAT      O80104   3.546   3.526   5.733
26621WAT     H180105   3.498   3.575   5.806
26621WAT     H280106   3.580   3.591   5.665
26622WAT      O80107   1.689   6.879   2.884
26622WAT     H180108   1.593   6.908   2.880
26622WAT     H280109   1.696   6.783   2.856
26623WAT      O80110   4.667   2.089   8.509
26623WAT     H180111   4.731   2.091   8.432
26623WAT     H280112   4.642   2.183   8.533
26624WAT      O80113   7.784   5.030   0.418
26624WAT     H180114   7.786   5.122   0.457
26624WAT     H280115   7.703   4.981   0.453
26625WAT      O80116   9.805   6.066   8.648
26625WAT     H180117   9.865   6.128   8.699
26625WAT     H280118   9.842   6.051   8.556
26626WAT      O80119   2.316   0.312   0.405
26626WAT     H180120   2.403   0.263   0.408
26626WAT     H280121   2.329   0.401   0.363
26627WAT      O80122   5.159   7.486   9.026
26627WAT     H180123   5.086   7.452   9.085
26627WAT     H280124   5.189   7.576   9.057
26628WAT      O80125   7.600   0.120   0.682
26628WAT     H180126   7.519   0.066   0.707
26628WAT     H280127   7.683   0.068   0.703
26629WAT      O80128   9.072   0.672   8.537
26629WAT     H180129   9.153   0.627   8.498
26629WAT     H280130   9.095   0.708   8.628
26630WAT      O80131   0.592   2.439   1.991
26630WAT     H180132   0.642   2.455   2.076
26630WAT     H280133   0.658   2.434   1.915
26631WAT      O80134   7.918   8.424   3.046
26631WAT     H180135   7.903   8.335   3.003
26631WAT     H280136   7.830   8.472   3.055
26632WAT      O80137   2.222   1.094   6.946
26632WAT     H180138   2.311   1.054   6.926
26632WAT     H280139   2.164   1.087   6.865
26633WAT      O80140   1.608   9.719   9.215
26633WAT     H180141   1.615   9.740   9.118
26633WAT     H280142   1.631   9.623   9.230
26634WAT      O80143   8.270   6.772   1.780
26634WAT     H180144   8.207   6.694   1.786
26634WAT     H280145   8.364   6.738   1.778
26635WAT      O80146   1.731   8.987   6.860
26635WAT     H180147   1.772   8.976   6.951
26635WAT     H280148   1.676   9.070   6.858
26636WAT      O80149   5.747   9.230   0.052
26636WAT     H180150   5.695   9.191   0.129
26636WAT     H280151   5.802   9.158   0.009
26637WAT      O80152   7.862   8.201   2.940
26637WAT     H180153   7.786   8.146   2.904
26637WAT     H280154   7.928   8.218   2.867
26638WAT      O80155   5.065   3.803   7.443
26638WAT     H180156   5.057   3.727   7.508
26638WAT     H280157   5.130   3.870   7.476
26639WAT      O80158   3.676   7.774   7.580
26639WAT     H180159   3.622   7.845   7.625
26639WAT     H280160   3.753   7.748   7.640
26640WAT      O80161   9.152   7.553   0.582
26640WAT     H180162   9.094   7.482   0.622
26640WAT     H280163   9.123   7.643   0.615
26641WAT      O80164   6.398   2.616   2.551
26641WAT     H180165   6.455   2.542   2.585
26641WAT     H280166   6.302   2.587   2.553
26642WAT      O80167   8.350   2.933   1.793
26642WAT     H180168   8.329   3.022   1.832
26642WAT     H280169   8.423   2.890   1.846
26643WAT      O80170   7.901   7.194   9.040
26643WAT     H180171   7.993   7.165   9.063
26643WAT     H280172   7.835   7.123   9.069
26644WAT      O80173   2.177   4.850   2.408
26644WAT     H180174   2.251   4.802   2.360
26644WAT     H280175   2.089   4.822   2.371
26645WAT      O80176   4.936   7.361   9.844
26645WAT     H180177   4.903   7.358   9.750
26645WAT     H280178   5.010   7.428   9.852
26646WAT      O80179   3.966   3.875   2.785
26646WAT     H180180   3.934   3.781   2.771
26646WAT     H280181   4.063   3.874   2.810
26647WAT      O80182   0.485   3.043   4.607
26647WAT     H180183   0.541   3.052   4.690
26647WAT     H280184   0.448   3.132   4.582
26648WAT      O80185   9.216   5.025   0.740
26648WAT     H180186   9.208   4.967   0.659
26648WAT     H280187   9.206   5.121   0.713
26649WAT      O80188   1.777   9.401   1.167
26649WAT     H180189   1.797   9.495   1.194
26649WAT     H280190   1.863   9.351   1.154
26650WAT      O80191   8.966   8.839   4.365
26650WAT     H180192   8.949   8.860   4.462
26650WAT     H280193   8.886   8.863   4.311
26651WAT      O80194   3.356   6.435   4.982
26651WAT     H180195   3.386   6.482   5.064
26651WAT     H280196   3.403   6.347   4.975
26652WAT      O80197   8.512   9.701   8.064
26652WAT     H180198   8.493   9.779   8.004
26652WAT     H280199   8.583   9.644   8.023
26653WAT      O80200   6.547   5.434   9.432
26653WAT     H180201   6.575   5.516   9.481
26653WAT     H280202   6.449   5.419   9.446
26654WAT      O80203   8.594   2.093   5.331
26654WAT     H180204   8.660   2.127   5.398
26654WAT     H280205   8.630   2.106   5.239
26655WAT      O80206   7.719   2.717   0.753
26655WAT     H180207   7.747   2.812   0.764
26655WAT     H280208   7.645   2.712   0.685
26656WAT      O80209   9.571   2.566   2.583
26656WAT     H180210   9.639   2.494   2.569
26656WAT     H280211   9.618   2.653   2.601
26657WAT      O80212   9.274   1.165   0.784
26657WAT     H180213   9.324   1.080   0.764
26657WAT     H280214   9.338   1.241   0.790
26658WAT      O80215   1.509   9.410   1.147
26658WAT     H180216   1.450   9.333   1.124
26658WAT     H280217   1.603   9.388   1.124
26659WAT      O80218   8.467   6.023   3.000
26659WAT     H180219   8.531   6.089   3.040
26659WAT     H280220   8.507   5.985   2.916
26660WAT      O80221   7.633   4.466   8.200
26660WAT     H180222   7.574   4.545   8.213
26660WAT     H280223   7.664   4.463   8.105
26661WAT      O80224   0.155   8.028   7.131
26661WAT     H180225   0.133   7.931   7.120
26661WAT     H280226   0.077   8.075   7.174
26662WAT      O80227   3.157   0.848   2.425
26662WAT     H180228   3.255   0.841   2.444
26662WAT     H280229   3.105   0.831   2.508
26663WAT      O80230   0.363   4.792   1.516
26663WAT     H180231   0.284   4.732   1.504
26663WAT     H280232   0.446   4.737   1.529
26664WAT      O80233   8.253   7.594   3.369
26664WAT     H180234   8.268   7.608   3.467
26664WAT     H280235   8.219   7.678   3.328
26665WAT      O80236   0.954   8.987   2.521
26665WAT     H180237   0.915   8.922   2.456
26665WAT     H280238   1.047   8.959   2.545
26666WAT      O80239   2.382   7.329   4.159
26666WAT     H180240   2.409   7.257   4.223
26666WAT     H280241   2.286   7.319   4.135
26667WAT      O80242   1.045   3.046   4.137
26667WAT     H180243   1.072   2.972   4.075
26667WAT     H280244   1.122   3.109   4.148
26668WAT      O80245   4.287   2.927   6.326
26668WAT     H180246   4.282   2.883   6.236
26668WAT     H280247   4.195   2.943   6.360
26669WAT      O80248   1.214   0.206   4.626
26669WAT     H180249   1.141   0.193   4.560
26669WAT     H280250   1.286   0.262   4.586
26670WAT      O80251   5.503   3.066   2.877
26670WAT     H180252   5.573   3.040   2.810
26670WAT     H280253   5.523   3.157   2.913
26671WAT      O80254   7.792   5.863   3.185
26671WAT     H180255   7.696   5.843   3.164
26671WAT     H280256   7.842   5.880   3.101
26672WAT      O80257   8.418   9.179   9.858
26672WAT     H180258   8.384   9.202   9.949
26672WAT     H280259   8.498   9.235   9.837
26673WAT      O80260   5.029   4.267   5.852
26673WAT     H180261   5.043   4.334   5.779
26673WAT     H280262   4.932   4.263   5.876
26674WAT      O80263   0.232   3.032   0.356
26674WAT     H180264   0.223   2.938   0.387
26674WAT     H280265   0.259   3.033   0.260
26675WAT      O80266   9.456   0.853   1.980
26675WAT     H180267   9.463   0.809   1.891
26675WAT     H280268   9.478   0.787   2.052
26676WAT      O80269   2.732   6.208   7.321
26676WAT     H180270   2.685   6.224   7.234
26676WAT     H280271   2.673   6.237   7.397
26677WAT      O80272   2.345   9.549   3.651
26677WAT     H180273   2.357   9.450   3.644
26677WAT     H280274   2.388   9.593   3.572
26678WAT      O80275   5.514   6.200   6.890
26678WAT     H180276   5.515   6.219   6.988
26678WAT     H280277   5.452   6.263   6.844
26679WAT      O80278   4.347   9.305   2.444
26679WAT     H180279   4.359   9.214   2.405
26679WAT     H280280   4.261   9.307   2.496
26680WAT      O80281   8.062   4.537   2.984
26680WAT     H180282   8.154   4.511   2.954
26680WAT     H280283   8.008   4.455   3.001
26681WAT      O80284   0.056   0.786   4.488
26681WAT     H180285   0.039   0.884   4.498
26681WAT     H280286   0.004   0.736   4.558
26682WAT      O80287   4.141   6.308   6.334
26682WAT     H180288   4.184   6.337   6.419
26682WAT     H280289   4.202   6.244   6.286
26683WAT      O80290   7.347   1.032   0.718
26683WAT     H180291   7.307   1.123   0.712
26683WAT     H280292   7.445   1.039   0.737
26684WAT      O80293   7.298   6.390   7.037
26684WAT     H180294   7.228   6.319   7.042
26684WAT     H280295   7.283   6.456   7.110
26685WAT      O80296   9.515   1.957   8.211
26685WAT     H180297   9.504   1.858   8.204
26685WAT     H280298   9.433   2.002   8.175
26686WAT      O80299   2.803   0.766   6.492
26686WAT     H180300   2.717   0.769   6.543
26686WAT     H280301   2.860   0.691   6.527
26687WAT      O80302   2.252   2.627   4.606
26687WAT     H180303   2.220   2.668   4.520
26687WAT     H280304   2.177   2.576   4.648
26688WAT      O80305   9.342   7.047   2.629
26688WAT     H180306   9.360   7.085   2.720
26688WAT     H280307   9.252   7.003   2.629
26689WAT      O80308   1.583   4.482   0.906
26689WAT     H180309   1.612   4.510   0.815
26689WAT     H280310   1.624   4.542   0.974
26690WAT      O80311   7.318   4.356   3.410
26690WAT     H180312   7.322   4.340   3.508
26690WAT     H280313   7.287   4.272   3.364
26691WAT      O80314   7.946   8.454   5.340
26691WAT     H180315   7.973   8.404   5.258
26691WAT     H280316   7.885   8.397   5.396
26692WAT      O80317   2.424   1.124   5.183
26692WAT     H180318   2.334   1.151   5.217
26692WAT     H280319   2.418   1.033   5.141
26693WAT      O80320   8.205   4.916   3.808
26693WAT     H180321   8.291   4.866   3.801
26693WAT     H280322   8.184   4.959   3.720
26694WAT      O80323   0.571   6.239   3.043
26694WAT     H180324   0.513   6.160   3.063
26694WAT     H280325   0.517   6.322   3.043
26695WAT      O80326   6.441   7.122   1.389
26695WAT     H180327   6.445   7.035   1.338
26695WAT     H280328   6.352   7.130   1.434
26696WAT      O80329   4.169   9.798   3.573
26696WAT     H180330   4.169   9.895   3.548
26696WAT     H280331   4.220   9.785   3.657
26697WAT      O80332   9.284   9.723   1.198
26697WAT     H180333   9.204   9.782   1.191
26697WAT     H280334   9.323   9.706   1.108
26698WAT      O80335   9.793   0.261   0.980
26698WAT     H180336   9.783   0.249   1.078
26698WAT     H280337   9.890   0.268   0.957
26699WAT      O80338   4.698   4.024   5.221
26699WAT     H180339   4.711   4.052   5.126
26699WAT     H280340   4.781   4.046   5.273
26700WAT      O80341   9.795   3.097   5.421
26700WAT     H180342   9.739   3.125   5.499
26700WAT     H280343   9.742   3.034   5.364
26701WAT      O80344   1.862   3.105   4.152
26701WAT     H180345   1.803   3.024   4.161
26701WAT     H280346   1.948   3.078   4.107
26702WAT      O80347   3.618   5.759   8.271
26702WAT     H180348   3.638   5.666   8.302
26702WAT     H280349   3.703   5.811   8.268
26703WAT      O80350   4.814   6.579   3.233
26703WAT     H180351   4.886   6.608   3.297
26703WAT     H280352   4.848   6.503   3.177
26704WAT      O80353   8.002   1.467   9.315
26704WAT     H180354   8.057   1.551   9.316
26704WAT     H280355   7.979   1.443   9.221
26705WAT      O80356   7.482   8.984   8.358
26705WAT     H180357   7.532   9.024   8.281
26705WAT     H280358   7.535   8.908   8.395
26706WAT      O80359   7.453   5.759   8.424
26706WAT     H180360   7.545   5.770   8.387
26706WAT     H280361   7.435   5.662   8.439
26707WAT      O80362   1.709   9.796   7.821
26707WAT     H180363   1.795   9.760   7.859
26707WAT     H280364   1.646   9.815   7.896
26708WAT      O80365   1.706   5.036   9.762
26708WAT     H180366   1.752   4.978   9.829
26708WAT     H280367   1.750   5.126   9.760
26709WAT      O80368   2.982   7.297   7.462
26709WAT     H180369   2.998   7.369   7.529
26709WAT     H280370   2.978   7.209   7.509
26710WAT      O80371   7.481   8.711   8.660
26710WAT     H180372   7.553   8.715   8.592
26710WAT     H280373   7.467   8.801   8.701
26711WAT      O80374   8.680   5.810   9.138
26711WAT     H180375   8.683   5.804   9.238
26711WAT     H280376   8.733   5.890   9.108
26712WAT      O80377   4.053   8.216   7.295
26712WAT     H180378   4.026   8.305   7.333
26712WAT     H280379   4.066   8.150   7.370
26713WAT      O80380   7.755   1.301   4.038
26713WAT     H180381   7.835   1.324   4.093
26713WAT     H280382   7.686   1.257   4.096
26714WAT      O80383   0.245   2.219   3.021
26714WAT     H180384   0.148   2.234   3.043
26714WAT     H280385   0.278   2.138   3.069
26715WAT      O80386   3.023   1.078   3.776
26715WAT     H180387   3.034   1.001   3.713
26715WAT     H280388   2.937   1.125   3.757
26716WAT      O80389   1.283   7.043   1.005
26716WAT     H180390   1.349   7.103   0.959
26716WAT     H280391   1.206   7.097   1.037
26717WAT      O80392   7.941   9.487   0.056
26717WAT     H180393   8.023   9.534   0.024
26717WAT     H280394   7.907   9.428  -0.017
26718WAT      O80395   3.787   4.540   5.974
26718WAT     H180396   3.836   4.488   5.903
26718WAT     H280397   3.808   4.637   5.964
26719WAT      O80398   0.933   6.300   6.866
26719WAT     H180399   0.962   6.291   6.771
26719WAT     H280400   0.840   6.337   6.868
26720WAT      O80401   2.993   5.235   5.745
26720WAT     H180402   3.071   5.192   5.700
26720WAT     H280403   3.005   5.229   5.845
26721WAT      O80404   9.814   6.035   0.027
26721WAT     H180405   9.886   5.970   0.001
26721WAT     H280406   9.725   5.992   0.018
26722WAT      O80407   4.511   6.370   1.803
26722WAT     H180408   4.415   6.346   1.791
26722WAT     H280409   4.538   6.350   1.897
26723WAT      O80410   7.389   2.996   5.656
26723WAT     H180411   7.346   2.962   5.739
26723WAT     H280412   7.339   3.076   5.623
26724WAT      O80413   6.972   9.781   8.047
26724WAT     H180414   6.874   9.796   8.061
26724WAT     H280415   6.997   9.688   8.074
26725WAT      O80416   3.664   9.787   0.946
26725WAT     H180417   3.623   9.726   0.879
26725WAT     H280418   3.671   9.740   1.034
26726WAT      O80419   2.915   6.520   7.589
26726WAT     H180420   2.993   6.544   7.530
26726WAT     H280421   2.901   6.421   7.586
26727WAT      O80422   2.452   6.813   0.292
26727WAT     H180423   2.464   6.802   0.193
26727WAT     H280424   2.526   6.768   0.341
26728WAT      O80425   6.821   4.295   8.580
26728WAT     H180426   6.784   4.371   8.527
26728WAT     H280427   6.886   4.244   8.524
26729WAT      O80428   1.865   7.489   5.946
26729WAT     H180429   1.803   7.557   5.985
26729WAT     H280430   1.920   7.448   6.020
26730WAT      O80431   6.255   7.442   5.666
26730WAT     H180432   6.278   7.499   5.588
26730WAT     H280433   6.316   7.362   5.668
26731WAT      O80434   6.035   9.556   0.759
26731WAT     H180435   6.007   9.460   0.755
26731WAT     H280436   5.983   9.609   0.693
26732WAT      O80437   4.481   1.782   9.228
26732WAT     H180438   4.558   1.841   9.203
26732WAT     H280439   4.437   1.748   9.146
26733WAT      O80440   0.077   6.077   0.681
26733WAT     H180441   0.144   6.074   0.607
26733WAT     H280442   0.023   6.161   0.675
26734WAT      O80443   0.393   8.048   4.516
26734WAT     H180444   0.300   8.013   4.516
26734WAT     H280445   0.394   8.142   4.549
26735WAT      O80446   3.858   7.535   9.680
26735WAT     H180447   3.925   7.569   9.615
26735WAT     H280448   3.802   7.464   9.637
26736WAT      O80449   6.817   2.117   2.269
26736WAT     H180450   6.891   2.058   2.304
26736WAT     H280451   6.735   2.062   2.256
26737WAT      O80452   2.953   6.975   3.603
26737WAT     H180453   2.862   6.936   3.615
26737WAT     H280454   2.948   7.074   3.606
26738WAT      O80455   6.039   9.530   0.032
26738WAT     H180456   6.049   9.624   0.065
26738WAT     H280457   6.003   9.472   0.106
26739WAT      O80458   1.374   6.424   8.656
26739WAT     H180459   1.404   6.510   8.698
26739WAT     H280460   1.332   6.365   8.725
26740WAT      O80461   6.563   8.902   0.393
26740WAT     H180462   6.518   8.874   0.478
26740WAT     H280463   6.548   9.000   0.379
26741WAT      O80464   1.598   5.885   2.781
26741WAT     H180465   1.533   5.825   2.737
26741WAT     H280466   1.680   5.893   2.725
26742WAT      O80467   2.198   8.863   0.762
26742WAT     H180468   2.198   8.763   0.751
26742WAT     H280469   2.104   8.895   0.776
26743WAT      O80470   9.434   1.125   3.132
26743WAT     H180471   9.487   1.061   3.076
26743WAT     H280472   9.401   1.078   3.214
26744WAT      O80473   9.315   8.176   9.413
26744WAT     H180474   9.216   8.179   9.428
26744WAT     H280475   9.338   8.099   9.353
26745WAT      O80476   6.810   4.414   0.210
26745WAT     H180477   6.782   4.457   0.125
26745WAT     H280478   6.820   4.315   0.197
26746WAT      O80479   2.238   0.767   6.221
26746WAT     H180480   2.329   0.735   6.248
26746WAT     H280481   2.190   0.802   6.302
26747WAT      O80482   4.270   8.125   4.995
26747WAT     H180483   4.182   8.087   4.969
26747WAT     H280484   4.341   8.055   4.985
26748WAT      O80485   8.904   8.177   3.680
26748WAT     H180486   8.900   8.199   3.777
26748WAT     H280487   8.825   8.218   3.634
26749WAT      O80488   0.683   3.953   5.025
26749WAT     H180489   0.741   3.911   4.955
26749WAT     H280490   0.681   3.894   5.106
26750WAT      O80491   3.502   8.777   3.048
26750WAT     H180492   3.505   8.876   3.031
26750WAT     H280493   3.418   8.739   3.009
26751WAT      O80494   8.806   5.732   2.215
26751WAT     H180495   8.732   5.730   2.148
26751WAT     H280496   8.775   5.690   2.300
26752WAT      O80497   0.849   3.491   9.268
26752WAT     H180498   0.838   3.475   9.170
26752WAT     H280499   0.837   3.405   9.318
26753WAT      O80500   6.943   1.082   9.803
26753WAT     H180501   6.887   1.013   9.848
26753WAT     H280502   7.010   1.037   9.743
26754WAT      O80503   3.950   5.883   0.652
26754WAT     H180504   4.044   5.876   0.617
26754WAT     H280505   3.953   5.921   0.745
26755WAT      O80506   3.383   9.697   2.668
26755WAT     H180507   3.339   9.771   2.618
26755WAT     H280508   3.482   9.701   2.656
26756WAT      O80509   4.359   6.273   8.784
26756WAT     H180510   4.390   6.351   8.839
26756WAT     H280511   4.439   6.228   8.743
26757WAT      O80512   7.552   8.439   3.028
26757WAT     H180513   7.569   8.382   3.109
26757WAT     H280514   7.521   8.381   2.953
26758WAT      O80515   6.368   8.016   8.281
26758WAT     H180516   6.314   8.024   8.366
26758WAT     H280517   6.450   8.073   8.289
26759WAT      O80518   4.446   1.204   0.223
26759WAT     H180519   4.434   1.129   0.288
26759WAT     H280520   4.508   1.272   0.262
26760WAT      O80521   0.181   3.018   2.034
26760WAT     H180522   0.154   3.066   2.118
26760WAT     H280523   0.134   2.929   2.030
26761WAT      O80524   0.831   9.107   6.890
26761WAT     H180525   0.867   9.040   6.826
26761WAT     H280526   0.761   9.064   6.947
26762WAT      O80527   2.524   8.913   9.803
26762WAT     H180528   2.469   8.982   9.756
26762WAT     H280529   2.465   8.854   9.858
26763WAT      O80530   4.003   9.011   9.782
26763WAT     H180531   4.083   8.961   9.748
26763WAT     H280532   3.921   8.977   9.735
26764WAT      O80533   5.578   4.131   8.975
26764WAT     H180534   5.647   4.092   9.036
26764WAT     H280535   5.562   4.068   8.898
26765WAT      O80536   0.760   7.958   8.723
26765WAT     H180537   0.723   7.938   8.814
26765WAT     H280538   0.684   7.978   8.660
26766WAT      O80539   0.836   9.569   9.185
26766WAT     H180540   0.813   9.558   9.088
26766WAT     H280541   0.764   9.527   9.241
26767WAT      O80542   6.796   5.627   6.840
26767WAT     H180543   6.772   5.721   6.818
26767WAT     H280544   6.765   5.605   6.932
26768WAT      O80545   6.247   7.295   8.665
26768WAT     H180546   6.314   7.258   8.730
26768WAT     H280547   6.196   7.369   8.709
26769WAT      O80548   4.598   3.260   9.081
26769WAT     H180549   4.601   3.257   8.981
26769WAT     H280550   4.531   3.194   9.115
26770WAT      O80551   5.056   2.837   9.805
26770WAT     H180552   5.041   2.858   9.708
26770WAT     H280553   5.049   2.739   9.819
26771WAT      O80554   8.211   8.547   6.421
26771WAT     H180555   8.308   8.523   6.416
26771WAT     H280556   8.199   8.642   6.392
26772WAT      O80557   8.438   9.209   7.828
26772WAT     H180558   8.422   9.112   7.812
26772WAT     H280559   8.526   9.236   7.788
26773WAT      O80560   1.341   5.925   7.310
26773WAT     H180561   1.441   5.914   7.308
26773WAT     H280562   1.306   5.922   7.217
26774WAT      O80563   6.066   3.723   9.783
26774WAT     H180564   6.109   3.665   9.713
26774WAT     H280565   6.067   3.818   9.752
26775WAT      O80566   6.897   7.105   5.218
26775WAT     H180567   6.926   7.160   5.140
26775WAT     H280568   6.973   7.047   5.248
26776WAT      O80569   5.673   5.059   9.397
26776WAT     H180570   5.628   5.087   9.482
26776WAT     H280571   5.610   5.006   9.341
26777WAT      O80572   3.584   0.665   3.447
26777WAT     H180573   3.660   0.651   3.383
26777WAT     H280574   3.579   0.761   3.473
26778WAT      O80575   2.376   4.698   5.642
26778WAT     H180576   2.457   4.683   5.585
26778WAT     H280577   2.403   4.748   5.725
26779WAT      O80578   5.091   0.499   9.485
26779WAT     H180579   5.061   0.565   9.554
26779WAT     H280580   5.118   0.414   9.531
26780WAT      O80581   2.596   9.677   7.111
26780WAT     H180582   2.557   9.681   7.019
26780WAT     H280583   2.605   9.769   7.147
26781WAT      O80584   5.085   8.839   0.693
26781WAT     H180585   5.018   8.782   0.740
26781WAT     H280586   5.153   8.780   0.648
26782WAT      O80587   2.204   1.064   2.546
26782WAT     H180588   2.266   1.094   2.474
26782WAT     H280589   2.112   1.100   2.529
26783WAT      O80590   8.789   2.306   8.872
26783WAT     H180591   8.789   2.250   8.789
26783WAT     H280592   8.871   2.363   8.873
26784WAT      O80593   7.364   6.588   8.017
26784WAT     H180594   7.396   6.683   8.016
26784WAT     H280595   7.421   6.533   7.955
26785WAT      O80596   0.318   5.943   5.738
26785WAT     H180597   0.321   5.972   5.642
26785WAT     H280598   0.232   5.896   5.757
26786WAT      O80599   0.970   7.018   4.953
26786WAT     H180600   1.011   7.100   4.912
26786WAT     H280601   0.939   7.040   5.046
26787WAT      O80602   7.848   1.788   1.289
26787WAT     H180603   7.930   1.733   1.309
26787WAT     H280604   7.875   1.884   1.280
26788WAT      O80605   9.199   5.372   9.107
26788WAT     H180606   9.153   5.408   9.187
26788WAT     H280607   9.199   5.272   9.110
26789WAT      O80608   6.106   5.714   5.219
26789WAT     H180609   6.071   5.724   5.126
26789WAT     H280610   6.206   5.715   5.218
26790WAT      O80611   8.857   0.708   0.388
26790WAT     H180612   8.896   0.617   0.405
26790WAT     H280613   8.917   0.760   0.327
26791WAT      O80614   0.138   7.944   5.233
26791WAT     H180615   0.156   7.986   5.145
26791WAT     H280616   0.192   7.860   5.242
26792WAT      O80617   1.793   9.157   4.032
26792WAT     H180618   1.886   9.179   4.064
26792WAT     H280619   1.727   9.205   4.089
26793WAT      O80620   9.285   3.853   1.784
26793WAT     H180621   9.204   3.800   1.758
26793WAT     H280622   9.366   3.794   1.780
26794WAT      O80623   4.306   3.615   5.826
26794WAT     H180624   4.336   3.692   5.884
26794WAT     H280625   4.253   3.650   5.750
26795WAT      O80626   6.041   7.387   4.339
26795WAT     H180627   6.140   7.370   4.338
26795WAT     H280628   6.000   7.351   4.255
26796WAT      O80629   1.106   4.485   2.087
26796WAT     H180630   1.014   4.515   2.111
26796WAT     H280631   1.102   4.401   2.034
26797WAT      O80632   9.700   0.302   6.886
26797WAT     H180633   9.651   0.224   6.925
26797WAT     H280634   9.637   0.379   6.874
26798WAT      O80635   7.438   2.628   7.372
26798WAT     H180636   7.489   2.587   7.297
26798WAT     H280637   7.438   2.728   7.363
26799WAT      O80638   2.789   1.277   8.047
26799WAT     H180639   2.773   1.223   7.964
26799WAT     H280640   2.814   1.371   8.022
26800WAT      O80641   5.429   1.432   8.805
26800WAT     H180642   5.340   1.466   8.835
26800WAT     H280643   5.468   1.374   8.877
26801WAT      O80644   8.297   3.056   4.294
26801WAT     H180645   8.207   3.092   4.269
26801WAT     H280646   8.288   2.959   4.319
26802WAT      O80647   3.863   8.815   6.665
26802WAT     H180648   3.779   8.860   6.635
26802WAT     H280649   3.901   8.863   6.744
26803WAT      O80650   7.333   5.129   9.546
26803WAT     H180651   7.328   5.200   9.617
26803WAT     H280652   7.355   5.041   9.588
26804WAT      O80653   2.467   8.022   9.389
26804WAT     H180654   2.553   7.971   9.387
26804WAT     H280655   2.399   7.970   9.442
26805WAT      O80656   0.268   8.676   4.702
26805WAT     H180657   0.274   8.603   4.634
26805WAT     H280658   0.181   8.669   4.751
26806WAT      O80659   3.338   5.149   4.097
26806WAT     H180660   3.323   5.116   4.190
26806WAT     H280661   3.435   5.170   4.084
26807WAT      O80662   5.147   2.840   4.062
26807WAT     H180663   5.235   2.796   4.048
26807WAT     H280664   5.091   2.830   3.980
26808WAT      O80665   2.373   4.491   0.226
26808WAT     H180666   2.316   4.565   0.264
26808WAT     H280667   2.449   4.531   0.176
26809WAT      O80668   6.571   7.088   6.490
26809WAT     H180669   6.590   7.013   6.553
26809WAT     H280670   6.650   7.148   6.483
26810WAT      O80671   1.058   7.738   3.275
26810WAT     H180672   0.976   7.686   3.251
26810WAT     H280673   1.069   7.814   3.211
26811WAT      O80674   4.993   4.977   2.910
26811WAT     H180675   4.904   4.937   2.891
26811WAT     H280676   5.021   4.954   3.004
26812WAT      O80677   0.297   9.702   7.403
26812WAT     H180678   0.280   9.641   7.481
26812WAT     H280679   0.353   9.779   7.433
26813WAT      O80680   3.635   7.618   6.390
26813WAT     H180681   3.574   7.576   6.322
26813WAT     H280682   3.612   7.715   6.401
26814WAT      O80683   8.071   5.969   0.690
26814WAT     H180684   8.019   5.921   0.620
26814WAT     H280685   8.084   5.909   0.769
26815WAT      O80686   1.804   6.185   3.545
26815WAT     H180687   1.759   6.267   3.507
26815WAT     H280688   1.832   6.125   3.470
26816WAT      O80689   2.788   1.879   0.420
26816WAT     H180690   2.781   1.978   0.431
26816WAT     H280691   2.734   1.851   0.341
26817WAT      O80692   7.840   7.437   1.655
26817WAT     H180693   7.878   7.387   1.577
26817WAT     H280694   7.915   7.474   1.710
26818WAT      O80695   6.877   3.555   3.686
26818WAT     H180696   6.967   3.580   3.649
26818WAT     H280697   6.859   3.458   3.666
26819WAT      O80698   7.049   3.875   5.817
26819WAT     H180699   6.968   3.883   5.758
26819WAT     H280700   7.131   3.896   5.764
26820WAT      O80701   7.177   5.596   0.104
26820WAT     H180702   7.108   5.535   0.145
26820WAT     H280703   7.178   5.582   0.005
26821WAT      O80704   8.844   5.230   9.717
26821WAT     H180705   8.801   5.312   9.756
26821WAT     H280706   8.933   5.215   9.760
26822WAT      O80707   9.437   4.860   5.226
26822WAT     H180708   9.447   4.789   5.296
26822WAT     H280709   9.418   4.948   5.271
26823WAT      O80710   2.928   5.971   7.093
26823WAT     H180711   2.931   5.982   6.994
26823WAT     H280712   2.861   6.035   7.131
26824WAT      O80713   0.351   9.619   8.630
26824WAT     H180714   0.342   9.520   8.614
26824WAT     H280715   0.295   9.668   8.563
26825WAT      O80716   5.238   9.276   8.681
26825WAT     H180717   5.294   9.253   8.601
26825WAT     H280718   5.194   9.364   8.666
26826WAT      O80719   3.977   4.966   7.613
26826WAT     H180720   3.887   4.958   7.656
26826WAT     H280721   3.971   4.944   7.516
26827WAT      O80722   1.443   6.899   8.367
26827WAT     H180723   1.473   6.989   8.334
26827WAT     H280724   1.412   6.907   8.462
26828WAT      O80725   2.278   2.496   0.714
26828WAT     H180726   2.260   2.564   0.644
26828WAT     H280727   2.336   2.535   0.785
26829WAT      O80728   8.469   3.182   0.441
26829WAT     H180729   8.446   3.272   0.405
26829WAT     H280730   8.539   3.139   0.384
26830WAT      O80731   6.913   2.464   1.602
26830WAT     H180732   6.946   2.546   1.649
26830WAT     H280733   6.929   2.384   1.660
26831WAT      O80734   4.613   6.844   7.727
26831WAT     H180735   4.571   6.926   7.766
26831WAT     H280736   4.712   6.849   7.737
26832WAT      O80737   4.423   8.165   0.736
26832WAT     H180738   4.422   8.067   0.714
26832WAT     H280739   4.343   8.188   0.792
26833WAT      O80740   6.340   2.936   5.799
26833WAT     H180741   6.433   2.902   5.788
26833WAT     H280742   6.342   3.027   5.841
26834WAT      O80743   9.595   8.082   9.769
26834WAT     H180744   9.546   8.082   9.857
26834WAT     H280745   9.573   8.166   9.720
26835WAT      O80746   0.492   9.745   9.299
26835WAT     H180747   0.450   9.774   9.213
26835WAT     H280748   0.572   9.802   9.318
26836WAT      O80749   5.036   7.025   8.414
26836WAT     H180750   4.959   7.063   8.363
26836WAT     H280751   5.054   6.931   8.382
26837WAT      O80752   3.290   6.296   6.280
26837WAT     H180753   3.382   6.333   6.294
26837WAT     H280754   3.289   6.240   6.197
26838WAT      O80755   2.431   7.060   1.259
26838WAT     H180756   2.338   7.095   1.262
26838WAT     H280757   2.431   6.967   1.223
26839WAT      O80758   5.081   1.482   3.542
26839WAT     H180759   5.156   1.423   3.573
26839WAT     H280760   5.045   1.446   3.456
26840WAT      O80761   1.468   5.998   0.837
26840WAT     H180762   1.508   5.974   0.748
26840WAT     H280763   1.459   6.098   0.842
26841WAT      O80764   8.132   1.798   3.671
26841WAT     H180765   8.054   1.809   3.611
26841WAT     H280766   8.146   1.701   3.691
26842WAT      O80767   8.061   3.464   0.030
26842WAT     H180768   8.051   3.397   0.104
26842WAT     H280769   7.970   3.494   0.000
26843WAT      O80770   3.134   4.947   9.768
26843WAT     H180771   3.173   5.031   9.805
26843WAT     H280772   3.055   4.969   9.711
26844WAT      O80773   5.429   0.299   3.322
26844WAT     H180774   5.518   0.263   3.294
26844WAT     H280775   5.440   0.353   3.405
26845WAT      O80776   3.287   6.272   9.102
26845WAT     H180777   3.198   6.239   9.071
26845WAT     H280778   3.355   6.257   9.031
26846WAT      O80779   2.061   0.261   8.692
26846WAT     H180780   2.019   0.285   8.604
26846WAT     H280781   2.071   0.162   8.698
26847WAT      O80782   0.856   1.722   8.362
26847WAT     H180783   0.841   1.817   8.390
26847WAT     H280784   0.788   1.696   8.294
26848WAT      O80785   0.236   6.887   6.919
26848WAT     H180786   0.234   6.953   6.994
26848WAT     H280787   0.289   6.924   6.843
26849WAT      O80788   6.050   0.955   9.451
26849WAT     H180789   6.087   0.871   9.411
26849WAT     H280790   5.990   1.000   9.384
26850WAT      O80791   2.860   8.859   6.550
26850WAT     H180792   2.921   8.800   6.496
26850WAT     H280793   2.915   8.923   6.604
26851WAT      O80794   5.517   5.129   8.365
26851WAT     H180795   5.561   5.051   8.320
26851WAT     H280796   5.482   5.192   8.296
26852WAT      O80797   7.037   8.156   0.459
26852WAT     H180798   6.981   8.109   0.391
26852WAT     H280799   6.978   8.185   0.535
26853WAT      O80800   2.600   7.581   4.172
26853WAT     H180801   2.620   7.545   4.262
26853WAT     H280802   2.536   7.521   4.125
26854WAT      O80803   4.277   2.743   0.298
26854WAT     H180804   4.322   2.750   0.209
26854WAT     H280805   4.327   2.800   0.364
26855WAT      O80806   9.247   4.375   5.510
26855WAT     H180807   9.212   4.382   5.603
26855WAT     H280808   9.347   4.363   5.513
26856WAT      O80809   7.429   8.057   6.935
26856WAT     H180810   7.373   8.132   6.969
26856WAT     H280811   7.418   8.050   6.835
26857WAT      O80812   5.391   4.654   5.933
26857WAT     H180813   5.390   4.710   5.850
26857WAT     H280814   5.401   4.714   6.013
26858WAT      O80815   1.022   0.179   4.423
26858WAT     H180816   0.997   0.114   4.351
26858WAT     H280817   0.939   0.215   4.466
26859WAT      O80818   2.218   1.638   7.209
26859WAT     H180819   2.275   1.692   7.148
26859WAT     H280820   2.131   1.616   7.164
26860WAT      O80821   7.155   5.005   3.601
26860WAT     H180822   7.076   5.022   3.661
26860WAT     H280823   7.176   5.087   3.550
26861WAT      O80824   9.795   8.907   7.372
26861WAT     H180825   9.839   8.948   7.293
26861WAT     H280826   9.765   8.814   7.349
26862WAT      O80827   5.883   1.149   5.009
26862WAT     H180828   5.969   1.194   5.034
26862WAT     H280829   5.842   1.197   4.931
26863WAT      O80830   2.099   1.171   2.850
26863WAT     H180831   2.117   1.075   2.872
26863WAT     H280832   2.018   1.202   2.901
26864WAT      O80833   5.645   8.837   3.042
26864WAT     H180834   5.554   8.869   3.070
26864WAT     H280835   5.691   8.910   2.991
26865WAT      O80836   6.845   7.185   6.933
26865WAT     H180837   6.873   7.183   7.029
26865WAT     H280838   6.925   7.204   6.876
26866WAT      O80839   4.048   1.405   6.395
26866WAT     H180840   4.003   1.493   6.406
26866WAT     H280841   4.026   1.347   6.474
26867WAT      O80842   8.867   1.663   8.322
26867WAT     H180843   8.835   1.753   8.295
26867WAT     H280844   8.937   1.672   8.393
26868WAT      O80845   6.753   6.367   6.370
26868WAT     H180846   6.658   6.343   6.393
26868WAT     H280847   6.769   6.349   6.273
26869WAT      O80848   9.604   9.323   3.964
26869WAT     H180849   9.528   9.301   4.025
26869WAT     H280850   9.660   9.395   4.005
26870WAT      O80851   9.848   9.109   5.681
26870WAT     H180852   9.842   9.018   5.723
26870WAT     H280853   9.942   9.143   5.689
26871WAT      O80854   2.461   3.273   7.073
26871WAT     H180855   2.378   3.260   7.020
26871WAT     H280856   2.541   3.251   7.017
26872WAT      O80857   2.341   6.884   8.507
26872WAT     H180858   2.388   6.882   8.419
26872WAT     H280859   2.243   6.870   8.492
26873WAT      O80860   2.969   3.883   1.910
26873WAT     H180861   2.874   3.888   1.940
26873WAT     H280862   2.997   3.788   1.903
26874WAT      O80863   8.227   4.764   5.891
26874WAT     H180864   8.177   4.679   5.908
26874WAT     H280865   8.316   4.743   5.849
26875WAT      O80866   6.525   2.617   6.420
26875WAT     H180867   6.509   2.519   6.407
26875WAT     H280868   6.620   2.638   6.397
26876WAT      O80869   7.363   8.982   7.435
26876WAT     H180870   7.341   8.885   7.424
26876WAT     H280871   7.430   9.009   7.366
26877WAT      O80872   0.826   5.343   0.411
26877WAT     H180873   0.838   5.378   0.318
26877WAT     H280874   0.890   5.390   0.473
26878WAT      O80875   8.647   4.917   8.986
26878WAT     H180876   8.557   4.908   9.030
26878WAT     H280877   8.709   4.967   9.046
26879WAT      O80878   3.839   4.072   1.914
26879WAT     H180879   3.882   3.989   1.949
26879WAT     H280880   3.857   4.148   1.977
26880WAT      O80881   9.446   3.146   6.159
26880WAT     H180882   9.494   3.059   6.151
26880WAT     H280883   9.367   3.146   6.099
26881WAT      O80884   9.560   1.444   2.077
26881WAT     H180885   9.475   1.393   2.061
26881WAT     H280886   9.619   1.435   1.997
26882WAT      O80887   0.957   3.489   0.685
26882WAT     H180888   1.054   3.508   0.695
26882WAT     H280889   0.937   3.465   0.590
26883WAT      O80890   3.116   7.745   7.459
26883WAT     H180891   3.108   7.845   7.451
26883WAT     H280892   3.090   7.703   7.372
26884WAT      O80893   0.449   0.091   5.625
26884WAT     H180894   0.403   0.177   5.647
26884WAT     H280895   0.548   0.102   5.638
26885WAT      O80896   2.936   1.597   6.347
26885WAT     H180897   2.861   1.655   6.380
26885WAT     H280898   2.898   1.521   6.294
26886WAT      O80899   7.778   7.612   2.862
26886WAT     H180900   7.738   7.573   2.779
26886WAT     H280901   7.755   7.709   2.867
26887WAT      O80902   4.152   5.529   8.782
26887WAT     H180903   4.243   5.490   8.766
26887WAT     H280904   4.159   5.601   8.852
26888WAT      O80905   7.533   7.190   6.021
26888WAT     H180906   7.607   7.192   6.089
26888WAT     H280907   7.525   7.098   5.983
26889WAT      O80908   9.087   4.153   5.022
26889WAT     H180909   9.036   4.068   5.031
26889WAT     H280910   9.096   4.196   5.111
26890WAT      O80911   8.101   9.032   0.252
26890WAT     H180912   8.009   9.049   0.217
26890WAT     H280913   8.094   8.987   0.341
26891WAT      O80914   4.889   7.927   0.378
26891WAT     H180915   4.906   7.966   0.288
26891WAT     H280916   4.797   7.954   0.409
26892WAT      O80917   2.695   0.177   1.111
26892WAT     H180918   2.668   0.175   1.015
26892WAT     H280919   2.694   0.271   1.144
26893WAT      O80920   6.089   5.058   6.276
26893WAT     H180921   6.019   5.119   6.237
26893WAT     H280922   6.141   5.108   6.345
26894WAT      O80923   1.587   2.911   6.864
26894WAT     H180924   1.547   2.826   6.831
26894WAT     H280925   1.614   2.900   6.959
26895WAT      O80926   2.973   3.813   2.687
26895WAT     H180927   2.920   3.733   2.658
26895WAT     H280928   2.944   3.893   2.636
26896WAT      O80929   7.056   9.250   9.850
26896WAT     H180930   7.004   9.222   9.769
26896WAT     H280931   7.075   9.169   9.906
26897WAT      O80932   6.790   5.536   0.249
26897WAT     H180933   6.775   5.616   0.191
26897WAT     H280934   6.870   5.486   0.216
26898WAT      O80935   6.657   2.964   4.530
26898WAT     H180936   6.700   2.919   4.609
26898WAT     H280937   6.620   2.894   4.469
26899WAT      O80938   2.014   0.007   5.499
26899WAT     H180939   2.027  -0.086   5.464
26899WAT     H280940   1.983   0.003   5.594
26900WAT      O80941   8.249   3.604   0.255
26900WAT     H180942   8.187   3.546   0.202
26900WAT     H280943   8.271   3.686   0.202
26901WAT      O80944   7.596   5.692   3.396
26901WAT     H180945   7.509   5.647   3.414
26901WAT     H280946   7.604   5.713   3.299
26902WAT      O80947   5.523   2.706   1.768
26902WAT     H180948   5.503   2.696   1.866
26902WAT     H280949   5.440   2.738   1.721
26903WAT      O80950   8.489   0.961   2.681
26903WAT     H180951   8.586   0.954   2.655
26903WAT     H280952   8.457   0.872   2.714
26904WAT      O80953   1.488   9.246   9.337
26904WAT     H180954   1.565   9.299   9.303
26904WAT     H280955   1.466   9.275   9.430
26905WAT      O80956   3.569   9.200   4.249
26905WAT     H180957   3.536   9.151   4.330
26905WAT     H280958   3.662   9.232   4.266
26906WAT      O80959   2.643   0.883   7.953
26906WAT     H180960   2.648   0.786   7.929
26906WAT     H280961   2.704   0.901   8.030
26907WAT      O80962   7.731   0.239   0.938
26907WAT     H180963   7.738   0.152   0.890
26907WAT     H280964   7.823   0.272   0.960
26908WAT      O80965   7.610   6.483   6.727
26908WAT     H180966   7.709   6.491   6.715
26908WAT     H280967   7.590   6.417   6.800
26909WAT      O80968   7.119   1.960   0.400
26909WAT     H180969   7.098   1.932   0.493
26909WAT     H280970   7.144   1.880   0.346
26910WAT      O80971   2.967   4.339   1.674
26910WAT     H180972   3.015   4.252   1.681
26910WAT     H280973   2.878   4.332   1.718
26911WAT      O80974   3.731   2.426   2.973
26911WAT     H180975   3.744   2.482   2.892
26911WAT     H280976   3.688   2.480   3.045
26912WAT      O80977   8.053   1.606   0.154
26912WAT     H180978   8.089   1.654   0.233
26912WAT     H280979   8.121   1.604   0.081
26913WAT      O80980   3.118   3.556   6.203
26913WAT     H180981   3.183   3.619   6.246
26913WAT     H280982   3.061   3.608   6.139
26914WAT      O80983   3.151   6.834   3.460
26914WAT     H180984   3.156   6.740   3.492
26914WAT     H280985   3.086   6.885   3.516
26915WAT      O80986   0.500   4.704   9.541
26915WAT     H180987   0.592   4.666   9.535
26915WAT     H280988   0.489   4.776   9.473
26916WAT      O80989   8.961   2.332   2.728
26916WAT     H180990   8.993   2.240   2.747
26916WAT     H280991   8.866   2.329   2.696
26917WAT      O80992   9.812   7.503   0.619
26917WAT     H180993   9.748   7.572   0.654
26917WAT     H280994   9.790   7.414   0.658
26918WAT      O80995   4.707   7.606   6.159
26918WAT     H180996   4.693   7.704   6.147
26918WAT     H280997   4.662   7.556   6.085
26919WAT      O80998   3.071   8.761   9.667
26919WAT     H180999   3.038   8.685   9.723
26919WAT     H281000   3.059   8.847   9.717
26920WAT      O81001   9.869   6.878   7.512
26920WAT     H181002   9.964   6.906   7.519
26920WAT     H281003   9.850   6.846   7.419
26921WAT      O81004   3.603   1.342   9.068
26921WAT     H181005   3.682   1.403   9.076
26921WAT     H281006   3.533   1.385   9.011
26922WAT      O81007   2.289   6.834   6.784
26922WAT     H181008   2.279   6.924   6.740
26922WAT     H281009   2.317   6.767   6.715
26923WAT      O81010   4.277   5.697   1.126
26923WAT     H181011   4.324   5.618   1.164
26923WAT     H281012   4.183   5.699   1.159
26924WAT      O81013   5.258   4.653   3.733
26924WAT     H181014   5.349   4.684   3.758
26924WAT     H281015   5.193   4.729   3.744
26925WAT      O81016   1.635   9.020   2.008
26925WAT     H181017   1.627   9.071   1.922
26925WAT     H281018   1.569   8.945   2.008
26926WAT      O81019   2.805   5.295   5.531
26926WAT     H181020   2.850   5.283   5.442
26926WAT     H281021   2.865   5.260   5.603
26927WAT      O81022   0.631   4.649   2.669
26927WAT     H181023   0.606   4.563   2.625
26927WAT     H281024   0.694   4.630   2.745
26928WAT      O81025   1.707   9.114   3.093
26928WAT     H181026   1.615   9.150   3.074
26928WAT     H281027   1.703   9.054   3.173
26929WAT      O81028   2.500   6.761   5.375
26929WAT     H181029   2.407   6.784   5.402
26929WAT     H281030   2.498   6.685   5.310
26930WAT      O81031   7.124   7.872   1.618
26930WAT     H181032   7.091   7.795   1.562
26930WAT     H281033   7.046   7.917   1.661
26931WAT      O81034   2.904   7.345   8.355
26931WAT     H181035   2.959   7.317   8.434
26931WAT     H281036   2.955   7.325   8.271
26932WAT      O81037   8.342   4.601   8.095
26932WAT     H181038   8.409   4.547   8.043
26932WAT     H281039   8.301   4.543   8.166
26933WAT      O81040   2.712   5.843   4.275
26933WAT     H181041   2.799   5.834   4.226
26933WAT     H281042   2.724   5.812   4.369
26934WAT      O81043   4.719   0.533   9.697
26934WAT     H181044   4.652   0.582   9.641
26934WAT     H281045   4.725   0.438   9.667
26935WAT      O81046   7.956   8.557   9.065
26935WAT     H181047   7.896   8.513   9.132
26935WAT     H281048   7.901   8.596   8.992
26936WAT      O81049   5.234   6.329   7.479
26936WAT     H181050   5.217   6.427   7.481
26936WAT     H281051   5.146   6.280   7.475
26937WAT      O81052   6.346   2.528   8.360
26937WAT     H181053   6.377   2.449   8.309
26937WAT     H281054   6.274   2.501   8.424
26938WAT      O81055   2.385   0.210   3.300
26938WAT     H181056   2.399   0.240   3.394
26938WAT     H281057   2.473   0.188   3.258
26939WAT      O81058   3.881   9.522   2.851
26939WAT     H181059   3.877   9.621   2.862
26939WAT     H281060   3.971   9.495   2.816
26940WAT      O81061   2.106   8.126   6.250
26940WAT     H181062   2.186   8.136   6.191
26940WAT     H281063   2.110   8.194   6.323
26941WAT      O81064   4.101   4.011   1.292
26941WAT     H181065   4.021   4.036   1.236
26941WAT     H281066   4.109   3.911   1.296
26942WAT      O81067   9.089   3.267   2.017
26942WAT     H181068   9.068   3.348   2.072
26942WAT     H281069   9.012   3.204   2.019
26943WAT      O81070   8.299   2.582   6.877
26943WAT     H181071   8.262   2.493   6.904
26943WAT     H281072   8.231   2.631   6.821
26944WAT      O81073   2.563   9.802   2.045
26944WAT     H181074   2.627   9.816   2.120
26944WAT     H281075   2.608   9.752   1.971
26945WAT      O81076   6.172   0.566   3.746
26945WAT     H181077   6.254   0.595   3.698
26945WAT     H281078   6.091   0.605   3.702
26946WAT      O81079   1.459   1.940   6.646
26946WAT     H181080   1.524   1.865   6.628
26946WAT     H281081   1.370   1.915   6.609
26947WAT      O81082   7.433   9.532   1.687
26947WAT     H181083   7.512   9.571   1.733
26947WAT     H281084   7.367   9.500   1.754
26948WAT      O81085   8.423   3.424   4.372
26948WAT     H181086   8.507   3.399   4.324
26948WAT     H281087   8.355   3.456   4.306
26949WAT      O81088   5.350   3.705   1.012
26949WAT     H181089   5.299   3.777   0.967
26949WAT     H281090   5.418   3.667   0.949
26950WAT      O81091   2.016   2.554   7.697
26950WAT     H181092   1.962   2.629   7.659
26950WAT     H281093   1.987   2.534   7.790
26951WAT      O81094   0.413   3.850   4.748
26951WAT     H181095   0.488   3.893   4.698
26951WAT     H281096   0.327   3.868   4.701
26952WAT      O81097   8.224   3.185   5.483
26952WAT     H181098   8.268   3.115   5.426
26952WAT     H281099   8.134   3.152   5.512
26953WAT      O81100   7.216   0.703   9.288
26953WAT     H181101   7.167   0.616   9.288
26953WAT     H281102   7.152   0.776   9.263
26954WAT      O81103   2.926   6.256   2.914
26954WAT     H181104   2.856   6.327   2.907
26954WAT     H281105   2.905   6.182   2.850
26955WAT      O81106   5.381   9.727   8.222
26955WAT     H181107   5.292   9.748   8.262
26955WAT     H281108   5.451   9.729   8.294
26956WAT      O81109   4.948   0.880   2.662
26956WAT     H181110   4.855   0.900   2.631
26956WAT     H281111   4.995   0.825   2.594
26957WAT      O81112   5.607   7.508   5.724
26957WAT     H181113   5.508   7.514   5.711
26957WAT     H281114   5.650   7.474   5.640
26958WAT      O81115   5.090   5.126   6.133
26958WAT     H181116   5.136   5.048   6.089
26958WAT     H281117   5.021   5.092   6.197
26959WAT      O81118   9.395   5.957   4.591
26959WAT     H181119   9.338   5.969   4.672
26959WAT     H281120   9.339   5.919   4.517
26960WAT      O81121   0.236   1.637   3.017
26960WAT     H181122   0.298   1.576   2.968
26960WAT     H281123   0.276   1.728   3.022
26961WAT      O81124   2.972   0.389   5.339
26961WAT     H181125   3.056   0.367   5.388
26961WAT     H281126   2.938   0.307   5.293
26962WAT      O81127   8.204   2.188   9.123
26962WAT     H181128   8.257   2.112   9.160
26962WAT     H281129   8.255   2.231   9.048
26963WAT      O81130   3.566   0.357   6.892
26963WAT     H181131   3.571   0.281   6.827
26963WAT     H281132   3.471   0.378   6.912
26964WAT      O81133   1.627   9.670   1.367
26964WAT     H181134   1.690   9.670   1.290
26964WAT     H281135   1.655   9.600   1.433
26965WAT      O81136   7.251   6.634   6.904
26965WAT     H181137   7.288   6.704   6.966
26965WAT     H281138   7.248   6.546   6.951
26966WAT      O81139   7.381   9.299   6.081
26966WAT     H181140   7.438   9.292   6.163
26966WAT     H281141   7.377   9.394   6.051
26967WAT      O81142   2.522   4.161   6.979
26967WAT     H181143   2.564   4.221   6.911
26967WAT     H281144   2.507   4.213   7.064
26968WAT      O81145   7.817   6.492   0.744
26968WAT     H181146   7.804   6.467   0.648
26968WAT     H281147   7.873   6.422   0.789
26969WAT      O81148   8.935   5.387   8.690
26969WAT     H181149   8.872   5.458   8.722
26969WAT     H281150   9.022   5.428   8.664
26970WAT      O81151   2.851   5.715   7.218
26970WAT     H181152   2.752   5.724   7.220
26970WAT     H281153   2.891   5.796   7.175
26971WAT      O81154   6.360   2.882   9.560
26971WAT     H181155   6.401   2.801   9.602
26971WAT     H281156   6.263   2.864   9.541
26972WAT      O81157   4.909   6.158   0.973
26972WAT     H181158   4.863   6.223   0.912
26972WAT     H281159   5.004   6.186   0.987
26973WAT      O81160   8.626   6.634   3.562
26973WAT     H181161   8.709   6.690   3.555
26973WAT     H281162   8.637   6.552   3.506
26974WAT      O81163   0.685   2.984   2.115
26974WAT     H181164   0.665   2.890   2.088
26974WAT     H281165   0.779   2.990   2.149
26975WAT      O81166   5.943   2.396   9.886
26975WAT     H181167   5.870   2.357   9.830
26975WAT     H281168   5.902   2.447   9.962
26976WAT      O81169   8.483   0.289   4.738
26976WAT     H181170   8.563   0.348   4.735
26976WAT     H281171   8.435   0.292   4.650
26977WAT      O81172   9.641   1.421   1.190
26977WAT     H181173   9.552   1.409   1.145
26977WAT     H281174   9.638   1.501   1.250
26978WAT      O81175   9.174   5.106   4.419
26978WAT     H181176   9.093   5.158   4.446
26978WAT     H281177   9.150   5.042   4.346
26979WAT      O81178   9.727   2.422   3.421
26979WAT     H181179   9.689   2.329   3.412
26979WAT     H281180   9.813   2.418   3.472
26980WAT      O81181   4.028   2.691   2.706
26980WAT     H181182   4.007   2.741   2.790
26980WAT     H281183   3.970   2.724   2.632
26981WAT      O81184   3.854   5.951   9.089
26981WAT     H181185   3.775   5.938   9.030
26981WAT     H281186   3.825   5.952   9.185
26982WAT      O81187   9.251   6.356   1.645
26982WAT     H181188   9.210   6.383   1.732
26982WAT     H281189   9.312   6.428   1.613
26983WAT      O81190   6.724   2.876   4.176
26983WAT     H181191   6.735   2.884   4.077
26983WAT     H281192   6.711   2.966   4.216
26984WAT      O81193   5.141   9.431   2.892
26984WAT     H181194   5.054   9.468   2.924
26984WAT     H281195   5.130   9.393   2.801
26985WAT      O81196   9.533   2.436   9.514
26985WAT     H181197   9.533   2.484   9.426
26985WAT     H281198   9.611   2.468   9.568
26986WAT      O81199   0.553   7.945   4.309
26986WAT     H181200   0.568   7.858   4.355
26986WAT     H281201   0.498   8.005   4.369
26987WAT      O81202   2.066   0.156   0.763
26987WAT     H181203   2.117   0.203   0.834
26987WAT     H281204   2.028   0.071   0.799
26988WAT      O81205   9.890   8.721   4.200
26988WAT     H181206   9.852   8.782   4.130
26988WAT     H281207   9.875   8.761   4.290
26989WAT      O81208   4.700   1.174   7.248
26989WAT     H181209   4.650   1.155   7.332
26989WAT     H281210   4.693   1.096   7.186
26990WAT      O81211   0.878   4.478   5.128
26990WAT     H181212   0.910   4.402   5.184
26990WAT     H281213   0.948   4.503   5.062
26991WAT      O81214   3.089   4.182   0.312
26991WAT     H181215   3.097   4.216   0.218
26991WAT     H281216   3.000   4.209   0.350
26992WAT      O81217   5.346   8.221   7.052
26992WAT     H181218   5.322   8.147   7.114
26992WAT     H281219   5.276   8.230   6.981
26993WAT      O81220   0.289   2.336   0.090
26993WAT     H181221   0.320   2.379   0.175
26993WAT     H281222   0.357   2.269   0.060
26994WAT      O81223   8.938   2.889   2.655
26994WAT     H181224   9.035   2.886   2.678
26994WAT     H281225   8.915   2.979   2.618
26995WAT      O81226   7.759   3.636   3.370
26995WAT     H181227   7.729   3.699   3.298
26995WAT     H281228   7.704   3.651   3.452
26996WAT      O81229   4.617   8.521   9.206
26996WAT     H181230   4.660   8.548   9.292
26996WAT     H281231   4.575   8.431   9.217
26997WAT      O81232   7.693   5.417   6.947
26997WAT     H181233   7.739   5.338   6.907
26997WAT     H281234   7.704   5.415   7.047
26998WAT      O81235   0.766   1.133   0.782
26998WAT     H181236   0.837   1.071   0.747
26998WAT     H281237   0.781   1.225   0.744
26999WAT      O81238   9.675   4.807   1.709
26999WAT     H181239   9.728   4.816   1.625
26999WAT     H281240   9.698   4.720   1.754
27000WAT      O81241   7.898   6.030   6.692
27000WAT     H181242   7.806   6.060   6.716
27000WAT     H281243   7.947   6.004   6.776
27001WAT      O81244   3.114   3.284   6.565
27001WAT     H181245   3.019   3.313   6.570
27001WAT     H281246   3.174   3.361   6.586
27002WAT      O81247   6.257   2.138   6.888
27002WAT     H181248   6.304   2.152   6.802
27002WAT     H281249   6.159   2.155   6.876
27003WAT      O81250   3.013   9.390   9.866
27003WAT     H181251   3.037   9.467   9.926
27003WAT     H281252   3.096   9.345   9.834
27004WAT      O81253   8.298   8.968   5.088
27004WAT     H181254   8.324   9.006   5.177
27004WAT     H281255   8.308   9.039   5.018
27005WAT      O81256   6.824   0.542   8.529
27005WAT     H181257   6.853   0.450   8.503
27005WAT     H281258   6.728   0.555   8.506
27006WAT      O81259   4.838   5.753   1.617
27006WAT     H181260   4.868   5.835   1.568
27006WAT     H281261   4.805   5.778   1.707
27007WAT      O81262   6.964   1.930   3.624
27007WAT     H181263   6.873   1.971   3.627
27007WAT     H281264   7.030   1.999   3.595
27008WAT      O81265   0.566   1.768   9.538
27008WAT     H181266   0.633   1.841   9.527
27008WAT     H281267   0.555   1.720   9.452
27009WAT      O81268   5.319   7.702   7.770
27009WAT     H181269   5.307   7.789   7.723
27009WAT     H281270   5.270   7.704   7.857
27010WAT      O81271   6.913   5.463   2.050
27010WAT     H181272   6.991   5.400   2.050
27010WAT     H281273   6.828   5.411   2.060
27011WAT      O81274   5.450   1.840   5.099
27011WAT     H181275   5.407   1.930   5.107
27011WAT     H281276   5.525   1.845   5.033
27012WAT      O81277   8.433   0.996   8.934
27012WAT     H181278   8.361   0.938   8.895
27012WAT     H281279   8.479   1.046   8.860
27013WAT      O81280   7.136   1.191   1.896
27013WAT     H181281   7.215   1.166   1.950
27013WAT     H281282   7.057   1.137   1.925
27014WAT      O81283   6.877   4.525   3.514
27014WAT     H181284   6.842   4.503   3.605
27014WAT     H281285   6.946   4.596   3.521
27015WAT      O81286   8.486   0.707   8.379
27015WAT     H181287   8.538   0.623   8.390
27015WAT     H281288   8.413   0.710   8.447
27016WAT      O81289   0.007   3.825   5.484
27016WAT     H181290   0.075   3.898   5.480
27016WAT     H281291   0.051   3.737   5.464
27017WAT      O81292   5.730   7.487   5.447
27017WAT     H181293   5.660   7.556   5.429
27017WAT     H281294   5.810   7.506   5.389
27018WAT      O81295   4.484   7.232   5.552
27018WAT     H181296   4.477   7.264   5.646
27018WAT     H281297   4.566   7.272   5.510
27019WAT      O81298   8.932   3.776   8.826
27019WAT     H181299   8.912   3.750   8.731
27019WAT     H281300   8.971   3.869   8.827
27020WAT      O81301   9.055   3.017   4.959
27020WAT     H181302   9.104   3.034   5.045
27020WAT     H281303   9.114   3.042   4.882
27021WAT      O81304   1.592   1.415   0.018
27021WAT     H181305   1.604   1.446  -0.076
27021WAT     H281306   1.581   1.316   0.021
27022WAT      O81307   4.530   5.302   3.697
27022WAT     H181308   4.533   5.260   3.788
27022WAT     H281309   4.442   5.282   3.654
27023WAT      O81310   2.800   9.770   3.623
27023WAT     H181311   2.784   9.694   3.559
27023WAT     H281312   2.869   9.744   3.690
27024WAT      O81313   3.021   1.673   8.442
27024WAT     H181314   3.027   1.626   8.354
27024WAT     H281315   2.926   1.698   8.459
27025WAT      O81316   3.910   5.712   6.690
27025WAT     H181317   3.815   5.694   6.663
27025WAT     H281318   3.971   5.691   6.614
27026WAT      O81319   8.613   7.134   5.126
27026WAT     H181320   8.604   7.082   5.211
27026WAT     H281321   8.660   7.078   5.058
27027WAT      O81322   0.756   1.781   4.249
27027WAT     H181323   0.806   1.865   4.228
27027WAT     H281324   0.819   1.711   4.282
27028WAT      O81325   2.058   7.878   5.273
27028WAT     H181326   2.041   7.861   5.176
27028WAT     H281327   2.111   7.803   5.312
27029WAT      O81328   0.639   9.073   4.071
27029WAT     H181329   0.673   9.143   4.133
27029WAT     H281330   0.686   9.082   3.983
27030WAT      O81331   7.368   1.695   9.036
27030WAT     H181332   7.391   1.598   9.022
27030WAT     H281333   7.426   1.751   8.977
27031WAT      O81334   5.695   2.953   7.692
27031WAT     H181335   5.599   2.975   7.676
27031WAT     H281336   5.752   3.001   7.625
27032WAT      O81337   8.254   8.588   2.477
27032WAT     H181338   8.239   8.687   2.480
27032WAT     H281339   8.241   8.555   2.384
27033WAT      O81340   2.157   0.199   7.077
27033WAT     H181341   2.060   0.217   7.063
27033WAT     H281342   2.195   0.267   7.140
27034WAT      O81343   2.007   6.728   9.141
27034WAT     H181344   1.970   6.814   9.104
27034WAT     H281345   1.960   6.651   9.099
27035WAT      O81346   3.503   8.017   2.141
27035WAT     H181347   3.462   8.071   2.068
27035WAT     H281348   3.551   8.078   2.204
27036WAT      O81349   5.236   0.559   4.378
27036WAT     H181350   5.177   0.616   4.320
27036WAT     H281351   5.331   0.588   4.367
27037WAT      O81352   5.258   2.359   8.609
27037WAT     H181353   5.247   2.265   8.642
27037WAT     H281354   5.348   2.393   8.636
27038WAT      O81355   9.782   6.500   5.815
27038WAT     H181356   9.762   6.588   5.773
27038WAT     H281357   9.697   6.446   5.821
27039WAT      O81358   4.037   8.826   8.807
27039WAT     H181359   3.983   8.842   8.890
27039WAT     H281360   3.982   8.775   8.741
27040WAT      O81361   9.763   9.044   1.762
27040WAT     H181362   9.831   9.070   1.693
27040WAT     H281363   9.736   8.949   1.747
27041WAT      O81364   3.690   4.491   3.773
27041WAT     H181365   3.647   4.435   3.702
27041WAT     H281366   3.698   4.438   3.857
27042WAT      O81367   5.419   8.653   7.592
27042WAT     H181368   5.358   8.577   7.612
27042WAT     H281369   5.414   8.675   7.494
27043WAT      O81370   8.422   4.638   6.732
27043WAT     H181371   8.434   4.538   6.732
27043WAT     H281372   8.471   4.677   6.655
27044WAT      O81373   2.250   5.287   0.459
27044WAT     H181374   2.313   5.210   0.444
27044WAT     H281375   2.234   5.297   0.557
27045WAT      O81376   2.996   8.758   1.449
27045WAT     H181377   3.002   8.829   1.519
27045WAT     H281378   3.003   8.800   1.358
27046WAT      O81379   9.810   2.551   1.317
27046WAT     H181380   9.725   2.499   1.316
27046WAT     H281381   9.880   2.503   1.263
27047WAT      O81382   1.887   8.966   9.817
27047WAT     H181383   1.841   8.930   9.898
27047WAT     H281384   1.825   8.960   9.738
27048WAT      O81385   5.736   7.514   1.080
27048WAT     H181386   5.736   7.613   1.068
27048WAT     H281387   5.650   7.485   1.123
27049WAT      O81388   9.208   8.174   6.268
27049WAT     H181389   9.170   8.216   6.186
27049WAT     H281390   9.245   8.084   6.245
27050WAT      O81391   7.388   7.658   3.270
27050WAT     H181392   7.303   7.607   3.285
27050WAT     H281393   7.374   7.754   3.292
27051WAT      O81394   2.858   9.595   4.168
27051WAT     H181395   2.853   9.548   4.080
27051WAT     H281396   2.829   9.690   4.157
27052WAT      O81397   4.475   8.697   0.509
27052WAT     H181398   4.462   8.780   0.455
27052WAT     H281399   4.515   8.626   0.451
27053WAT      O81400   3.979   3.818   0.724
27053WAT     H181401   4.060   3.760   0.710
27053WAT     H281402   3.922   3.817   0.642
27054WAT      O81403   0.762   8.886   6.372
27054WAT     H181404   0.842   8.939   6.399
27054WAT     H281405   0.682   8.916   6.424
27055WAT      O81406   8.791   5.937   3.322
27055WAT     H181407   8.742   6.010   3.274
27055WAT     H281408   8.885   5.934   3.289
27056WAT      O81409   9.396   3.593   8.800
27056WAT     H181410   9.415   3.677   8.852
27056WAT     H281411   9.429   3.514   8.853
27057WAT      O81412   4.029   9.839   2.312
27057WAT     H181413   4.041   9.881   2.222
27057WAT     H281414   4.082   9.755   2.318
27058WAT      O81415   5.917   7.256   1.112
27058WAT     H181416   5.854   7.300   1.048
27058WAT     H281417   6.011   7.277   1.085
27059WAT      O81418   3.513   2.599   3.888
27059WAT     H181419   3.437   2.663   3.872
27059WAT     H281420   3.569   2.592   3.806
27060WAT      O81421   3.835   8.908   9.068
27060WAT     H181422   3.802   8.989   9.020
27060WAT     H281423   3.908   8.935   9.132
27061WAT      O81424   7.621   4.153   0.813
27061WAT     H181425   7.694   4.216   0.789
27061WAT     H281426   7.657   4.080   0.871
27062WAT      O81427   2.312   4.299   6.346
27062WAT     H181428   2.228   4.352   6.362
27062WAT     H281429   2.327   4.289   6.248
27063WAT      O81430   4.759   5.175   1.202
27063WAT     H181431   4.678   5.190   1.145
27063WAT     H281432   4.809   5.095   1.168
27064WAT      O81433   4.840   7.984   2.357
27064WAT     H181434   4.873   8.040   2.433
27064WAT     H281435   4.854   8.033   2.271
27065WAT      O81436   5.853   1.574   8.460
27065WAT     H181437   5.779   1.574   8.527
27065WAT     H281438   5.862   1.483   8.420
27066WAT      O81439   7.881   0.317   4.212
27066WAT     H181440   7.869   0.389   4.281
27066WAT     H281441   7.978   0.296   4.203
27067WAT      O81442   0.234   6.318   8.415
27067WAT     H181443   0.254   6.222   8.397
27067WAT     H281444   0.274   6.375   8.343
27068WAT      O81445   5.471   7.938   0.721
27068WAT     H181446   5.498   8.022   0.769
27068WAT     H281447   5.372   7.937   0.709
27069WAT      O81448   2.608   2.704   9.547
27069WAT     H181449   2.591   2.786   9.601
27069WAT     H281450   2.703   2.676   9.557
27070WAT      O81451   5.497   4.378   5.698
27070WAT     H181452   5.453   4.366   5.787
27070WAT     H281453   5.558   4.457   5.701
27071WAT      O81454   6.519   8.241   8.342
27071WAT     H181455   6.610   8.227   8.383
27071WAT     H281456   6.461   8.290   8.407
27072WAT      O81457   1.282   0.981   5.278
27072WAT     H181458   1.292   0.890   5.236
27072WAT     H281459   1.193   1.019   5.252
27073WAT      O81460   7.206   8.472   3.982
27073WAT     H181461   7.140   8.514   3.921
27073WAT     H281462   7.292   8.523   3.979
27074WAT      O81463   3.430   1.511   9.728
27074WAT     H181464   3.334   1.537   9.721
27074WAT     H281465   3.457   1.460   9.647
27075WAT      O81466   7.152   9.724   4.087
27075WAT     H181467   7.180   9.777   4.007
27075WAT     H281468   7.206   9.640   4.093
27076WAT      O81469   3.904   9.284   5.375
27076WAT     H181470   3.928   9.378   5.349
27076WAT     H281471   3.919   9.223   5.298
27077WAT      O81472   0.055   7.846   9.003
27077WAT     H181473   0.035   7.750   9.026
27077WAT     H281474   0.011   7.869   8.917
27078WAT      O81475   5.573   5.225   1.936
27078WAT     H181476   5.509   5.262   1.868
27078WAT     H281477   5.580   5.126   1.925
27079WAT      O81478   8.806   0.932   0.769
27079WAT     H181479   8.757   1.013   0.803
27079WAT     H281480   8.896   0.959   0.736
27080WAT      O81481   6.148   9.175   4.257
27080WAT     H181482   6.202   9.091   4.266
27080WAT     H281483   6.053   9.151   4.238
27081WAT      O81484   7.621   4.759   7.974
27081WAT     H181485   7.558   4.753   8.052
27081WAT     H281486   7.675   4.842   7.982
27082WAT      O81487   9.371   7.347   3.314
27082WAT     H181488   9.315   7.274   3.353
27082WAT     H281489   9.352   7.433   3.361
27083WAT      O81490   0.260   3.160   4.358
27083WAT     H181491   0.311   3.212   4.426
27083WAT     H281492   0.172   3.205   4.340
27084WAT      O81493   9.561   3.468   6.454
27084WAT     H181494   9.552   3.369   6.451
27084WAT     H281495   9.542   3.501   6.546
27085WAT      O81496   0.331   5.108   1.102
27085WAT     H181497   0.409   5.123   1.042
27085WAT     H281498   0.361   5.064   1.187
27086WAT      O81499   3.940   5.868   6.350
27086WAT     H181500   4.028   5.903   6.384
27086WAT     H281501   3.953   5.775   6.316
27087WAT      O81502   6.597   7.820   9.799
27087WAT     H181503   6.624   7.916   9.789
27087WAT     H281504   6.497   7.814   9.799
27088WAT      O81505   2.610   4.447   0.769
27088WAT     H181506   2.558   4.495   0.698
27088WAT     H281507   2.698   4.419   0.731
27089WAT      O81508   5.929   9.092   5.980
27089WAT     H181509   6.002   9.158   5.998
27089WAT     H281510   5.951   9.040   5.898
27090WAT      O81511   3.999   8.181   9.274
27090WAT     H181512   3.991   8.106   9.340
27090WAT     H281513   4.093   8.214   9.271
27091WAT      O81514   6.081   9.819   8.984
27091WAT     H181515   6.082   9.784   9.077
27091WAT     H281516   6.169   9.800   8.940
27092WAT      O81517   6.303   7.668   3.762
27092WAT     H181518   6.275   7.623   3.677
27092WAT     H281519   6.378   7.618   3.804
27093WAT      O81520   1.582   6.157   5.765
27093WAT     H181521   1.611   6.222   5.695
27093WAT     H281522   1.648   6.081   5.770
27094WAT      O81523   6.955   3.509   0.121
27094WAT     H181524   6.868   3.555   0.136
27094WAT     H281525   6.974   3.447   0.198
27095WAT      O81526   8.595   4.066   3.304
27095WAT     H181527   8.558   4.011   3.379
27095WAT     H281528   8.523   4.085   3.237
27096WAT      O81529   5.338   0.352   7.802
27096WAT     H181530   5.413   0.383   7.860
27096WAT     H281531   5.351   0.386   7.709
27097WAT      O81532   2.136   2.373   6.234
27097WAT     H181533   2.211   2.398   6.172
27097WAT     H281534   2.084   2.456   6.258
27098WAT      O81535   1.294   4.583   2.256
27098WAT     H181536   1.227   4.545   2.193
27098WAT     H281537   1.324   4.512   2.320
27099WAT      O81538   4.812   2.363   3.047
27099WAT     H181539   4.802   2.445   2.990
27099WAT     H281540   4.899   2.318   3.025
27100WAT      O81541   2.430   2.054   8.532
27100WAT     H181542   2.505   2.009   8.582
27100WAT     H281543   2.408   2.140   8.578
27101WAT      O81544   1.487   5.472   2.630
27101WAT     H181545   1.579   5.457   2.666
27101WAT     H281546   1.494   5.520   2.542
27102WAT      O81547   0.104   8.364   6.539
27102WAT     H181548   0.086   8.462   6.544
27102WAT     H281549   0.019   8.313   6.555
27103WAT      O81550   0.891   4.679   8.351
27103WAT     H181551   0.897   4.752   8.284
27103WAT     H281552   0.918   4.592   8.308
27104WAT      O81553   3.657   6.111   7.506
27104WAT     H181554   3.618   6.019   7.508
27104WAT     H281555   3.667   6.145   7.599
27105WAT      O81556   3.346   8.815   4.745
27105WAT     H181557   3.321   8.782   4.654
27105WAT     H281558   3.294   8.898   4.766
27106WAT      O81559   0.131   2.222   2.381
27106WAT     H181560   0.201   2.169   2.429
27106WAT     H281561   0.068   2.161   2.334
27107WAT      O81562   6.400   5.073   6.678
27107WAT     H181563   6.421   4.990   6.628
27107WAT     H281564   6.334   5.053   6.751
27108WAT      O81565   5.666   5.961   3.000
27108WAT     H181566   5.622   5.909   2.927
27108WAT     H281567   5.707   6.044   2.961
27109WAT      O81568   0.988   0.813   8.256
27109WAT     H181569   0.947   0.745   8.317
27109WAT     H281570   1.081   0.785   8.232
27110WAT      O81571   8.975   6.661   7.680
27110WAT     H181572   8.952   6.692   7.588
27110WAT     H281573   8.921   6.711   7.747
27111WAT      O81574   3.037   4.475   4.245
27111WAT     H181575   2.978   4.475   4.325
27111WAT     H281576   2.981   4.478   4.162
27112WAT      O81577   0.500   6.108   8.224
27112WAT     H181578   0.405   6.085   8.241
27112WAT     H281579   0.550   6.111   8.310
27113WAT      O81580   1.974   0.921   1.767
27113WAT     H181581   2.038   0.993   1.737
27113WAT     H281582   1.888   0.964   1.797
27114WAT      O81583   5.336   2.430   0.986
27114WAT     H181584   5.337   2.417   1.085
27114WAT     H281585   5.258   2.488   0.961
27115WAT      O81586   9.073   0.569   5.382
27115WAT     H181587   9.111   0.514   5.456
27115WAT     H281588   8.992   0.618   5.415
27116WAT      O81589   5.650   3.398   2.062
27116WAT     H181590   5.721   3.394   2.132
27116WAT     H281591   5.693   3.403   1.971
27117WAT      O81592   8.093   0.454   2.778
27117WAT     H181593   8.030   0.376   2.787
27117WAT     H281594   8.124   0.482   2.869
27118WAT      O81595   6.543   7.471   2.312
27118WAT     H181596   6.537   7.387   2.258
27118WAT     H281597   6.474   7.469   2.384
27119WAT      O81598   8.238   4.469   6.442
27119WAT     H181599   8.225   4.484   6.344
27119WAT     H281600   8.163   4.512   6.493
27120WAT      O81601   6.360   6.771   5.421
27120WAT     H181602   6.335   6.846   5.483
27120WAT     H281603   6.454   6.783   5.390
27121WAT      O81604   6.746   0.074   3.834
27121WAT     H181605   6.765   0.066   3.736
27121WAT     H281606   6.737  -0.017   3.874
27122WAT      O81607   3.982   0.889   5.356
27122WAT     H181608   3.882   0.894   5.353
27122WAT     H281609   4.019   0.977   5.385
27123WAT      O81610   8.460   4.764   0.442
27123WAT     H181611   8.548   4.795   0.407
27123WAT     H281612   8.420   4.835   0.500
27124WAT      O81613   4.550   9.158   0.418
27124WAT     H181614   4.580   9.195   0.330
27124WAT     H281615   4.592   9.210   0.493
27125WAT      O81616   9.048   1.699   8.524
27125WAT     H181617   9.099   1.764   8.579
27125WAT     H281618   9.103   1.617   8.509
27126WAT      O81619   4.511   0.321   0.478
27126WAT     H181620   4.516   0.420   0.490
27126WAT     H281621   4.446   0.299   0.406
27127WAT      O81622   7.049   7.842   9.766
27127WAT     H181623   7.124   7.906   9.747
27127WAT     H281624   6.990   7.880   9.837
27128WAT      O81625   9.744   5.262   2.691
27128WAT     H181626   9.801   5.316   2.753
27128WAT     H281627   9.693   5.323   2.631
27129WAT      O81628   3.646   4.878   7.313
27129WAT     H181629   3.585   4.937   7.260
27129WAT     H281630   3.608   4.865   7.405
27130WAT      O81631   1.562   4.682   2.307
27130WAT     H181632   1.466   4.686   2.277
27130WAT     H281633   1.575   4.600   2.363
27131WAT      O81634   4.138   5.737   2.657
27131WAT     H181635   4.059   5.683   2.686
27131WAT     H281636   4.141   5.823   2.707
27132WAT      O81637   6.975   3.390   6.906
27132WAT     H181638   6.950   3.299   6.872
27132WAT     H281639   6.899   3.453   6.890
27133WAT      O81640   2.456   7.575   7.594
27133WAT     H181641   2.403   7.500   7.633
27133WAT     H281642   2.552   7.548   7.588
27134WAT      O81643   7.374   9.569   6.045
27134WAT     H181644   7.363   9.606   6.138
27134WAT     H281645   7.325   9.627   5.980
27135WAT      O81646   8.269   2.011   7.543
27135WAT     H181647   8.366   2.030   7.529
27135WAT     H281648   8.250   1.916   7.519
27136WAT      O81649   8.836   0.564   8.605
27136WAT     H181650   8.922   0.585   8.559
27136WAT     H281651   8.850   0.566   8.704
27137WAT      O81652   3.638   1.987   4.249
27137WAT     H181653   3.619   1.949   4.339
27137WAT     H281654   3.554   1.987   4.194
27138WAT      O81655   1.612   2.227   6.207
27138WAT     H181656   1.673   2.176   6.268
27138WAT     H281657   1.519   2.226   6.245
27139WAT      O81658   5.752   6.703   4.452
27139WAT     H181659   5.717   6.693   4.545
27139WAT     H281660   5.689   6.658   4.388
27140WAT      O81661   1.547   7.471   3.219
27140WAT     H181662   1.522   7.396   3.158
27140WAT     H281663   1.587   7.434   3.303
27141WAT      O81664   3.571   6.223   5.388
27141WAT     H181665   3.585   6.175   5.302
27141WAT     H281666   3.539   6.159   5.458
27142WAT      O81667   9.779   9.785   9.521
27142WAT     H181668   9.785   9.696   9.476
27142WAT     H281669   9.714   9.780   9.597
27143WAT      O81670   4.304   4.542   2.401
27143WAT     H181671   4.211   4.510   2.384
27143WAT     H281672   4.363   4.464   2.422
27144WAT      O81673   5.712   3.446   4.356
27144WAT     H181674   5.769   3.492   4.424
27144WAT     H281675   5.624   3.493   4.349
27145WAT      O81676   7.562   2.213   1.362
27145WAT     H181677   7.641   2.245   1.414
27145WAT     H281678   7.540   2.279   1.291
27146WAT      O81679   1.997   3.788   4.340
27146WAT     H181680   1.900   3.789   4.315
27146WAT     H281681   2.035   3.697   4.322
27147WAT      O81682   4.553   3.196   0.322
27147WAT     H181683   4.627   3.261   0.339
27147WAT     H281684   4.584   3.104   0.344
27148WAT      O81685   8.308   5.376   6.989
27148WAT     H181686   8.273   5.286   7.014
27148WAT     H281687   8.319   5.381   6.890
27149WAT      O81688   7.221   5.888   6.192
27149WAT     H181689   7.248   5.792   6.179
27149WAT     H281690   7.234   5.938   6.107
27150WAT      O81691   9.257   9.574   5.177
27150WAT     H181692   9.248   9.479   5.204
27150WAT     H281693   9.271   9.631   5.259
27151WAT      O81694   0.871   3.344   2.566
27151WAT     H181695   0.943   3.410   2.543
27151WAT     H281696   0.784   3.375   2.528
27152WAT      O81697   1.151   7.421   8.036
27152WAT     H181698   1.167   7.466   7.948
27152WAT     H281699   1.081   7.471   8.087
27153WAT      O81700   7.303   1.741   2.131
27153WAT     H181701   7.328   1.811   2.198
27153WAT     H281702   7.259   1.784   2.052
27154WAT      O81703   9.860   3.224   1.240
27154WAT     H181704   9.791   3.262   1.302
27154WAT     H281705   9.856   3.272   1.152
27155WAT      O81706   7.314   7.248   0.639
27155WAT     H181707   7.350   7.288   0.724
27155WAT     H281708   7.387   7.244   0.571
27156WAT      O81709   1.238   2.987   8.701
27156WAT     H181710   1.244   3.012   8.605
27156WAT     H281711   1.154   2.935   8.716
27157WAT      O81712   6.770   9.746   3.542
27157WAT     H181713   6.850   9.804   3.557
27157WAT     H281714   6.793   9.651   3.566
27158WAT      O81715   7.852   1.958   9.361
27158WAT     H181716   7.943   1.998   9.374
27158WAT     H281717   7.807   2.002   9.284
27159WAT      O81718   8.164   2.166   6.461
27159WAT     H181719   8.194   2.230   6.532
27159WAT     H281720   8.094   2.210   6.405
27160WAT      O81721   3.398   3.251   8.980
27160WAT     H181722   3.382   3.250   9.079
27160WAT     H281723   3.369   3.163   8.941
27161WAT      O81724   6.164   4.712   5.170
27161WAT     H181725   6.129   4.769   5.245
27161WAT     H281726   6.094   4.646   5.143
27162WAT      O81727   5.435   8.117   7.833
27162WAT     H181728   5.424   8.207   7.875
27162WAT     H281729   5.451   8.049   7.904
27163WAT      O81730   9.813   8.879   0.206
27163WAT     H181731   9.860   8.961   0.173
27163WAT     H281732   9.757   8.841   0.132
27164WAT      O81733   2.734   7.217   8.705
27164WAT     H181734   2.701   7.243   8.795
27164WAT     H281735   2.793   7.137   8.713
27165WAT      O81736   1.769   7.686   6.669
27165WAT     H181737   1.815   7.775   6.661
27165WAT     H281738   1.760   7.645   6.579
27166WAT      O81739   4.518   1.521   4.410
27166WAT     H181740   4.585   1.453   4.440
27166WAT     H281741   4.553   1.613   4.430
27167WAT      O81742   8.896   3.540   4.012
27167WAT     H181743   8.802   3.528   3.979
27167WAT     H281744   8.959   3.498   3.948
27168WAT      O81745   1.968   6.766   6.744
27168WAT     H181746   2.017   6.803   6.665
27168WAT     H281747   1.887   6.716   6.713
27169WAT      O81748   5.894   5.026   7.580
27169WAT     H181749   5.896   4.934   7.542
27169WAT     H281750   5.951   5.087   7.525
27170WAT      O81751   4.812   3.291   0.719
27170WAT     H181752   4.863   3.237   0.652
27170WAT     H281753   4.855   3.381   0.728
27171WAT      O81754   5.452   3.334   4.085
27171WAT     H181755   5.381   3.363   4.149
27171WAT     H281756   5.487   3.414   4.035
27172WAT      O81757   2.003   7.472   5.407
27172WAT     H181758   2.021   7.506   5.500
27172WAT     H281759   1.910   7.495   5.381
27173WAT      O81760   0.891   4.151   7.200
27173WAT     H181761   0.855   4.100   7.279
27173WAT     H281762   0.871   4.248   7.211
27174WAT      O81763   6.901   1.228   3.942
27174WAT     H181764   6.848   1.191   3.866
27174WAT     H281765   6.840   1.269   4.010
27175WAT      O81766   2.119   2.809   7.842
27175WAT     H181767   2.054   2.884   7.833
27175WAT     H281768   2.166   2.794   7.755
27176WAT      O81769   5.393   4.628   4.021
27176WAT     H181770   5.381   4.627   3.921
27176WAT     H281771   5.441   4.712   4.047
27177WAT      O81772   0.266   9.541   2.735
27177WAT     H181773   0.286   9.481   2.812
27177WAT     H281774   0.199   9.609   2.762
27178WAT      O81775   8.264   1.108   6.514
27178WAT     H181776   8.240   1.190   6.566
27178WAT     H281777   8.226   1.115   6.422
27179WAT      O81778   4.666   8.322   2.882
27179WAT     H181779   4.739   8.256   2.863
27179WAT     H281780   4.705   8.404   2.923
27180WAT      O81781   2.628   5.664   8.189
27180WAT     H181782   2.600   5.598   8.119
27180WAT     H281783   2.679   5.616   8.260
27181WAT      O81784   3.855   7.666   8.790
27181WAT     H181785   3.825   7.588   8.735
27181WAT     H281786   3.819   7.656   8.883
27182WAT      O81787   8.499   7.056   6.439
27182WAT     H181788   8.411   7.067   6.393
27182WAT     H281789   8.570   7.037   6.371
27183WAT      O81790   5.894   1.671   4.073
27183WAT     H181791   5.962   1.684   4.146
27183WAT     H281792   5.803   1.666   4.113
27184WAT      O81793   2.415   3.355   6.103
27184WAT     H181794   2.438   3.430   6.165
27184WAT     H281795   2.318   3.361   6.078
27185WAT      O81796   7.335   9.327   8.456
27185WAT     H181797   7.322   9.381   8.539
27185WAT     H281798   7.247   9.311   8.412
27186WAT      O81799   4.992   6.495   0.793
27186WAT     H181800   5.081   6.451   0.806
27186WAT     H281801   4.968   6.495   0.695
27187WAT      O81802   6.726   4.477   8.405
27187WAT     H181803   6.667   4.540   8.456
27187WAT     H281804   6.784   4.529   8.342
27188WAT      O81805   5.352   1.238   5.533
27188WAT     H181806   5.413   1.217   5.457
27188WAT     H281807   5.268   1.282   5.499
27189WAT      O81808   4.049   3.036   6.910
27189WAT     H181809   3.976   2.977   6.946
27189WAT     H281810   4.132   3.022   6.965
27190WAT      O81811   4.612   7.279   0.353
27190WAT     H181812   4.546   7.211   0.321
27190WAT     H281813   4.629   7.266   0.450
27191WAT      O81814   2.402   1.919   0.493
27191WAT     H181815   2.407   1.939   0.395
27191WAT     H281816   2.306   1.925   0.523
27192WAT      O81817   8.846   9.648   4.829
27192WAT     H181818   8.750   9.657   4.802
27192WAT     H281819   8.880   9.738   4.858
27193WAT      O81820   2.860   0.991   6.351
27193WAT     H181821   2.845   0.899   6.386
27193WAT     H281822   2.957   1.013   6.355
27194WAT      O81823   9.198   5.186   6.172
27194WAT     H181824   9.190   5.270   6.117
27194WAT     H281825   9.234   5.209   6.263
27195WAT      O81826   1.839   1.323   2.048
27195WAT     H181827   1.925   1.370   2.027
27195WAT     H281828   1.849   1.274   2.135
27196WAT      O81829   8.003   1.102   2.242
27196WAT     H181830   8.048   1.151   2.167
27196WAT     H281831   7.945   1.030   2.205
27197WAT      O81832   9.391   9.530   7.497
27197WAT     H181833   9.461   9.559   7.562
27197WAT     H281834   9.434   9.474   7.426
27198WAT      O81835   8.805   3.845   4.105
27198WAT     H181836   8.767   3.856   4.014
27198WAT     H281837   8.904   3.860   4.102
27199WAT      O81838   9.723   8.113   0.886
27199WAT     H181839   9.736   8.176   0.810
27199WAT     H281840   9.807   8.106   0.939
27200WAT      O81841   0.116   6.664   9.848
27200WAT     H181842   0.067   6.629   9.927
27200WAT     H281843   0.213   6.638   9.853
27201WAT      O81844   3.513   6.971   4.102
27201WAT     H181845   3.537   7.068   4.097
27201WAT     H281846   3.501   6.934   4.010
27202WAT      O81847   0.726   1.148   9.141
27202WAT     H181848   0.775   1.140   9.054
27202WAT     H281849   0.629   1.163   9.122
27203WAT      O81850   6.094   0.494   8.213
27203WAT     H181851   6.086   0.533   8.304
27203WAT     H281852   6.047   0.554   8.147
27204WAT      O81853   5.615   5.704   8.856
27204WAT     H181854   5.701   5.682   8.902
27204WAT     H281855   5.607   5.803   8.845
27205WAT      O81856   0.541   2.350   9.515
27205WAT     H181857   0.601   2.283   9.558
27205WAT     H281858   0.593   2.432   9.491
27206WAT      O81859   9.186   1.780   4.964
27206WAT     H181860   9.152   1.687   4.954
27206WAT     H281861   9.215   1.814   4.874
27207WAT      O81862   8.110   9.622   1.164
27207WAT     H181863   8.047   9.579   1.229
27207WAT     H281864   8.128   9.716   1.193
27208WAT      O81865   9.760   9.780   2.104
27208WAT     H181866   9.694   9.719   2.147
27208WAT     H281867   9.713   9.839   2.038
27209WAT      O81868   3.400   0.469   9.314
27209WAT     H181869   3.397   0.379   9.357
27209WAT     H281870   3.494   0.487   9.282
27210WAT      O81871   8.052   6.440   1.605
27210WAT     H181872   8.142   6.410   1.573
27210WAT     H281873   8.063   6.493   1.689
27211WAT      O81874   7.485   6.591   4.230
27211WAT     H181875   7.493   6.503   4.277
27211WAT     H281876   7.561   6.600   4.165
27212WAT      O81877   2.003   2.224   9.483
27212WAT     H181878   2.049   2.311   9.498
27212WAT     H281879   1.904   2.237   9.490
27213WAT      O81880   6.172   6.125   4.920
27213WAT     H181881   6.125   6.199   4.872
27213WAT     H281882   6.182   6.148   5.017
27214WAT      O81883   0.128   0.947   8.299
27214WAT     H181884   0.142   0.854   8.331
27214WAT     H281885   0.031   0.962   8.281
27215WAT      O81886   6.360   1.555   8.273
27215WAT     H181887   6.280   1.601   8.234
27215WAT     H281888   6.371   1.466   8.229
27216WAT      O81889   4.443   7.121   5.296
27216WAT     H181890   4.431   7.195   5.230
27216WAT     H281891   4.448   7.159   5.388
27217WAT      O81892   2.403   0.889   6.034
27217WAT     H181893   2.357   0.879   6.122
27217WAT     H281894   2.469   0.965   6.039
27218WAT      O81895   3.035   6.791   3.797
27218WAT     H181896   3.015   6.858   3.726
27218WAT     H281897   3.071   6.838   3.878
27219WAT      O81898   8.216   0.655   7.630
27219WAT     H181899   8.148   0.654   7.704
27219WAT     H281900   8.249   0.562   7.613
27220WAT      O81901   1.141   3.546   5.861
27220WAT     H181902   1.099   3.571   5.948
27220WAT     H281903   1.219   3.486   5.878
27221WAT      O81904   4.328   7.915   9.074
27221WAT     H181905   4.231   7.913   9.095
27221WAT     H281906   4.343   7.969   8.991
27222WAT      O81907   8.037   2.146   6.833
27222WAT     H181908   8.084   2.098   6.907
27222WAT     H281909   8.052   2.097   6.747
27223WAT      O81910   4.820   1.682   9.859
27223WAT     H181911   4.900   1.699   9.917
27223WAT     H281912   4.782   1.770   9.830
27224WAT      O81913   5.896   8.426   5.959
27224WAT     H181914   5.886   8.450   6.055
27224WAT     H281915   5.965   8.484   5.917
27225WAT      O81916   4.436   8.761   4.225
27225WAT     H181917   4.454   8.854   4.192
27225WAT     H281918   4.395   8.765   4.316
27226WAT      O81919   6.655   0.160   7.369
27226WAT     H181920   6.728   0.091   7.362
27226WAT     H281921   6.693   0.250   7.348
27227WAT      O81922   6.605   1.400   8.625
27227WAT     H181923   6.533   1.390   8.556
27227WAT     H281924   6.687   1.351   8.594
27228WAT      O81925   4.815   8.735   1.670
27228WAT     H181926   4.902   8.717   1.715
27228WAT     H281927   4.741   8.693   1.723
27229WAT      O81928   8.534   8.252   5.306
27229WAT     H181929   8.477   8.236   5.225
27229WAT     H281930   8.617   8.301   5.279
27230WAT      O81931   2.573   9.636   0.291
27230WAT     H181932   2.630   9.560   0.257
27230WAT     H281933   2.594   9.719   0.240
27231WAT      O81934   2.625   5.608   6.650
27231WAT     H181935   2.572   5.524   6.660
27231WAT     H281936   2.662   5.635   6.738
27232WAT      O81937   1.580   3.462   0.617
27232WAT     H181938   1.518   3.384   0.617
27232WAT     H281939   1.578   3.506   0.527
27233WAT      O81940   5.299   8.744   1.515
27233WAT     H181941   5.286   8.647   1.493
27233WAT     H281942   5.386   8.757   1.561
27234WAT      O81943   3.334   1.219   1.270
27234WAT     H181944   3.397   1.154   1.228
27234WAT     H281945   3.262   1.168   1.319
27235WAT      O81946   2.686   0.150   4.964
27235WAT     H181947   2.775   0.168   4.921
27235WAT     H281948   2.613   0.168   4.898
27236WAT      O81949   2.608   2.029   3.749
27236WAT     H181950   2.698   1.993   3.773
27236WAT     H281951   2.539   1.960   3.767
27237WAT      O81952   7.135   3.474   5.878
27237WAT     H181953   7.205   3.408   5.902
27237WAT     H281954   7.048   3.448   5.920
27238WAT      O81955   9.176   5.048   7.435
27238WAT     H181956   9.177   5.142   7.468
27238WAT     H281957   9.223   4.989   7.502
27239WAT      O81958   6.105   4.836   9.849
27239WAT     H181959   6.201   4.818   9.830
27239WAT     H281960   6.089   4.935   9.846
27240WAT      O81961   7.724   2.325   8.358
27240WAT     H181962   7.773   2.411   8.372
27240WAT     H281963   7.642   2.342   8.303
27241WAT      O81964   9.812   2.710   3.999
27241WAT     H181965   9.774   2.618   4.011
27241WAT     H281966   9.904   2.713   4.037
27242WAT      O81967   9.171   3.138   4.651
27242WAT     H181968   9.100   3.200   4.684
27242WAT     H281969   9.258   3.161   4.694
27243WAT      O81970   8.532   3.209   8.507
27243WAT     H181971   8.518   3.150   8.428
27243WAT     H281972   8.488   3.297   8.491
27244WAT      O81973   1.710   6.803   5.257
27244WAT     H181974   1.649   6.882   5.261
27244WAT     H281975   1.657   6.720   5.274
27245WAT      O81976   3.433   4.897   5.160
27245WAT     H181977   3.468   4.863   5.073
27245WAT     H281978   3.443   4.826   5.230
27246WAT      O81979   2.547   6.069   6.634
27246WAT     H181980   2.476   6.131   6.600
27246WAT     H281981   2.636   6.116   6.633
27247WAT      O81982   0.373   1.341   7.826
27247WAT     H181983   0.382   1.411   7.754
27247WAT     H281984   0.329   1.380   7.906
27248WAT      O81985   9.423   7.094   3.938
27248WAT     H181986   9.420   7.009   3.991
27248WAT     H281987   9.463   7.166   3.995
27249WAT      O81988   1.865   1.119   2.248
27249WAT     H181989   1.777   1.079   2.223
27249WAT     H281990   1.867   1.135   2.346
27250WAT      O81991   9.752   4.939   9.240
27250WAT     H181992   9.784   4.852   9.277
27250WAT     H281993   9.757   5.010   9.311
27251WAT      O81994   8.390   7.388   9.182
27251WAT     H181995   8.333   7.322   9.232
27251WAT     H281996   8.486   7.374   9.206
27252WAT      O81997   5.174   1.356   2.488
27252WAT     H181998   5.165   1.436   2.548
27252WAT     H281999   5.149   1.382   2.395
27253WAT      O82000   2.084   1.034   9.072
27253WAT     H182001   2.097   1.111   9.135
27253WAT     H282002   2.165   0.975   9.074
27254WAT      O82003   8.043   8.971   7.968
27254WAT     H182004   7.967   8.909   7.984
27254WAT     H282005   8.128   8.919   7.960
27255WAT      O82006   4.473   1.248   5.070
27255WAT     H182007   4.538   1.172   5.074
27255WAT     H282008   4.507   1.324   5.125
27256WAT      O82009   1.696   9.580   7.629
27256WAT     H182010   1.730   9.631   7.709
27256WAT     H282011   1.664   9.645   7.560
27257WAT      O82012   2.497   2.458   2.430
27257WAT     H182013   2.534   2.451   2.523
27257WAT     H282014   2.570   2.483   2.367
27258WAT      O82015   8.310   1.182   7.679
27258WAT     H182016   8.259   1.097   7.695
27258WAT     H282017   8.314   1.201   7.581
27259WAT      O82018   8.886   4.562   1.353
27259WAT     H182019   8.842   4.629   1.412
27259WAT     H282020   8.888   4.596   1.259
27260WAT      O82021   7.501   7.207   9.484
27260WAT     H182022   7.595   7.217   9.452
27260WAT     H282023   7.440   7.193   9.406
27261WAT      O82024   1.597   5.547   0.796
27261WAT     H182025   1.650   5.479   0.745
27261WAT     H282026   1.500   5.535   0.776
27262WAT      O82027   5.099   8.823   8.301
27262WAT     H182028   5.123   8.729   8.321
27262WAT     H282029   5.086   8.874   8.386
27263WAT      O82030   7.083   7.409   3.052
27263WAT     H182031   7.045   7.318   3.069
27263WAT     H282032   7.030   7.454   2.980
27264WAT      O82033   2.671   5.209   7.804
27264WAT     H182034   2.618   5.273   7.749
27264WAT     H282035   2.643   5.115   7.784
27265WAT      O82036   7.594   1.622   3.289
27265WAT     H182037   7.506   1.656   3.254
27265WAT     H282038   7.577   1.545   3.351
27266WAT      O82039   2.325   0.738   0.992
27266WAT     H182040   2.316   0.833   1.023
27266WAT     H282041   2.421   0.717   0.976
27267WAT      O82042   6.221   6.334   0.223
27267WAT     H182043   6.241   6.318   0.126
27267WAT     H282044   6.125   6.313   0.241
27268WAT      O82045   5.957   6.321   0.740
27268WAT     H182046   5.925   6.243   0.685
27268WAT     H282047   6.041   6.357   0.699
27269WAT      O82048   7.553   9.405   3.095
27269WAT     H182049   7.573   9.362   3.183
27269WAT     H282050   7.601   9.493   3.089
27270WAT      O82051   3.236   6.217   6.619
27270WAT     H182052   3.229   6.117   6.620
27270WAT     H282053   3.260   6.247   6.526
27271WAT      O82054   6.794   2.829   7.737
27271WAT     H182055   6.709   2.867   7.776
27271WAT     H282056   6.800   2.732   7.760
27272WAT      O82057   1.776   4.728   8.146
27272WAT     H182058   1.854   4.747   8.086
27272WAT     H282059   1.806   4.671   8.223
27273WAT      O82060   2.471   4.743   4.519
27273WAT     H182061   2.372   4.730   4.518
27273WAT     H282062   2.502   4.773   4.429
27274WAT      O82063   5.902   4.954   4.765
27274WAT     H182064   5.994   4.985   4.743
27274WAT     H282065   5.878   4.981   4.858
27275WAT      O82066   8.022   7.105   2.359
27275WAT     H182067   8.059   7.098   2.451
27275WAT     H282068   8.090   7.146   2.298
27276WAT      O82069   9.053   9.310   9.657
27276WAT     H182070   9.036   9.407   9.642
27276WAT     H282071   8.985   9.273   9.720
27277WAT      O82072   3.879   2.364   7.166
27277WAT     H182073   3.779   2.359   7.174
27277WAT     H282074   3.907   2.327   7.078
27278WAT      O82075   4.155   2.569   0.504
27278WAT     H182076   4.132   2.562   0.601
27278WAT     H282077   4.183   2.663   0.483
27279WAT      O82078   1.579   4.422   4.992
27279WAT     H182079   1.634   4.439   5.074
27279WAT     H282080   1.533   4.334   5.001
27280WAT      O82081   3.411   5.164   0.763
27280WAT     H182082   3.389   5.067   0.766
27280WAT     H282083   3.379   5.208   0.847
27281WAT      O82084   8.744   2.856   9.408
27281WAT     H182085   8.746   2.829   9.311
27281WAT     H282086   8.831   2.899   9.432
27282WAT      O82087   3.924   7.246   3.483
27282WAT     H182088   3.871   7.238   3.568
27282WAT     H282089   3.938   7.343   3.462
27283WAT      O82090   6.716   9.581   6.932
27283WAT     H182091   6.696   9.562   6.836
27283WAT     H282092   6.643   9.638   6.971
27284WAT      O82093   3.937   3.290   2.910
27284WAT     H182094   3.963   3.214   2.850
27284WAT     H282095   4.004   3.300   2.982
27285WAT      O82096   8.878   3.712   8.531
27285WAT     H182097   8.892   3.620   8.569
27285WAT     H282098   8.784   3.721   8.499
27286WAT      O82099   2.345   6.797   2.823
27286WAT     H182100   2.379   6.799   2.729
27286WAT     H282101   2.371   6.881   2.870
27287WAT      O82102   9.206   5.583   5.331
27287WAT     H182103   9.147   5.662   5.352
27287WAT     H282104   9.213   5.525   5.412
27288WAT      O82105   0.474   2.790   4.476
27288WAT     H182106   0.466   2.867   4.540
27288WAT     H282107   0.558   2.799   4.423
27289WAT      O82108   6.494   7.192   3.049
27289WAT     H182109   6.478   7.095   3.035
27289WAT     H282110   6.411   7.235   3.084
27290WAT      O82111   7.141   9.168   7.277
27290WAT     H182112   7.216   9.114   7.240
27290WAT     H282113   7.090   9.114   7.344
27291WAT      O82114   1.800   3.596   0.250
27291WAT     H182115   1.785   3.594   0.152
27291WAT     H282116   1.712   3.590   0.298
27292WAT      O82117   3.241   8.624   7.016
27292WAT     H182118   3.288   8.572   7.087
27292WAT     H282119   3.284   8.714   7.006
27293WAT      O82120   2.491   1.564   7.803
27293WAT     H182121   2.398   1.590   7.830
27293WAT     H282122   2.493   1.544   7.705
27294WAT      O82123   1.511   5.252   3.417
27294WAT     H182124   1.497   5.341   3.462
27294WAT     H282125   1.522   5.181   3.487
27295WAT      O82126   9.370   9.581   0.796
27295WAT     H182127   9.357   9.488   0.831
27295WAT     H282128   9.400   9.640   0.870
27296WAT      O82129   1.970   3.975   1.261
27296WAT     H182130   1.924   3.919   1.193
27296WAT     H282131   1.905   4.000   1.333
27297WAT      O82132   7.785   7.569   3.462
27297WAT     H182133   7.810   7.638   3.530
27297WAT     H282134   7.866   7.542   3.411
27298WAT      O82135   5.093   8.804   3.092
27298WAT     H182136   5.086   8.809   2.993
27298WAT     H282137   5.175   8.753   3.117
27299WAT      O82138   5.252   9.335   6.925
27299WAT     H182139   5.311   9.317   6.847
27299WAT     H282140   5.283   9.282   7.004
27300WAT      O82141   5.020   1.113   7.099
27300WAT     H182142   5.044   1.124   7.196
27300WAT     H282143   5.104   1.101   7.046
27301WAT      O82144   2.310   1.663   9.183
27301WAT     H182145   2.352   1.744   9.224
27301WAT     H282146   2.366   1.583   9.204
27302WAT      O82147   2.968   9.781   5.451
27302WAT     H182148   3.045   9.737   5.498
27302WAT     H282149   2.911   9.710   5.407
27303WAT      O82150   4.390   9.150   7.881
27303WAT     H182151   4.362   9.128   7.974
27303WAT     H282152   4.490   9.146   7.874
27304WAT      O82153   8.307   2.283   8.879
27304WAT     H182154   8.396   2.320   8.851
27304WAT     H282155   8.241   2.359   8.888
27305WAT      O82156   3.674   3.401   6.896
27305WAT     H182157   3.727   3.472   6.942
27305WAT     H282158   3.715   3.312   6.914
27306WAT      O82159   8.788   6.363   6.113
27306WAT     H182160   8.773   6.351   6.211
27306WAT     H282161   8.820   6.456   6.095
27307WAT      O82162   4.858   7.746   9.229
27307WAT     H182163   4.772   7.697   9.245
27307WAT     H282164   4.934   7.694   9.270
27308WAT      O82165   2.432   1.989   3.102
27308WAT     H182166   2.363   2.038   3.049
27308WAT     H282167   2.408   1.892   3.106
27309WAT      O82168   5.687   8.671   6.795
27309WAT     H182169   5.693   8.572   6.779
27309WAT     H282170   5.612   8.709   6.740
27310WAT      O82171   0.864   4.185   2.006
27310WAT     H182172   0.964   4.177   2.009
27310WAT     H282173   0.823   4.107   2.052
27311WAT      O82174   8.844   4.133   3.901
27311WAT     H182175   8.840   4.046   3.853
27311WAT     H282176   8.936   4.172   3.893
27312WAT      O82177   1.718   5.445   7.860
27312WAT     H182178   1.718   5.346   7.874
27312WAT     H282179   1.644   5.486   7.914
27313WAT      O82180   8.852   5.645   8.224
27313WAT     H182181   8.775   5.604   8.176
27313WAT     H282182   8.889   5.578   8.290
27314WAT      O82183   6.114   4.870   3.059
27314WAT     H182184   6.015   4.870   3.049
27314WAT     H282185   6.144   4.957   3.097
27315WAT      O82186   7.483   8.389   7.208
27315WAT     H182187   7.470   8.488   7.213
27315WAT     H282188   7.428   8.344   7.279
27316WAT      O82189   1.477   7.722   6.523
27316WAT     H182190   1.396   7.702   6.468
27316WAT     H282191   1.467   7.678   6.613
27317WAT      O82192   5.324   1.819   3.142
27317WAT     H182193   5.246   1.778   3.094
27317WAT     H282194   5.294   1.902   3.189
27318WAT      O82195   4.204   6.063   1.771
27318WAT     H182196   4.111   6.058   1.735
27318WAT     H282197   4.246   5.973   1.769
27319WAT      O82198   3.478   2.747   7.722
27319WAT     H182199   3.518   2.803   7.794
27319WAT     H282200   3.408   2.800   7.673
27320WAT      O82201   7.443   1.666   5.916
27320WAT     H182202   7.533   1.630   5.894
27320WAT     H282203   7.439   1.764   5.893
27321WAT      O82204   4.501   3.734   1.533
27321WAT     H182205   4.486   3.786   1.617
27321WAT     H282206   4.413   3.703   1.498
27322WAT      O82207   0.673   2.370   6.577
27322WAT     H182208   0.763   2.383   6.536
27322WAT     H282209   0.633   2.459   6.598
27323WAT      O82210   3.122   3.815   0.467
27323WAT     H182211   3.176   3.884   0.516
27323WAT     H282212   3.099   3.849   0.376
27324WAT      O82213   3.654   3.939   1.376
27324WAT     H182214   3.616   4.026   1.407
27324WAT     H282215   3.580   3.878   1.348
27325WAT      O82216   2.668   6.804   6.907
27325WAT     H182217   2.707   6.749   6.982
27325WAT     H282218   2.701   6.898   6.915
27326WAT      O82219   0.571   1.424   7.435
27326WAT     H182220   0.611   1.342   7.475
27326WAT     H282221   0.480   1.440   7.474
27327WAT      O82222   4.413   7.921   0.606
27327WAT     H182223   4.500   7.959   0.575
27327WAT     H282224   4.372   7.867   0.533
27328WAT      O82225   4.492   5.826   2.902
27328WAT     H182226   4.485   5.909   2.959
27328WAT     H282227   4.420   5.762   2.928
27329WAT      O82228   6.697   3.623   0.146
27329WAT     H182229   6.672   3.701   0.203
27329WAT     H282230   6.656   3.540   0.183
27330WAT      O82231   4.886   5.486   3.857
27330WAT     H182232   4.913   5.435   3.939
27330WAT     H282233   4.926   5.442   3.777
27331WAT      O82234   3.382   7.460   3.878
27331WAT     H182235   3.314   7.388   3.890
27331WAT     H282236   3.428   7.447   3.790
27332WAT      O82237   7.060   2.552   2.299
27332WAT     H182238   6.992   2.482   2.321
27332WAT     H282239   7.120   2.566   2.378
27333WAT      O82240   6.882   0.366   1.968
27333WAT     H182241   6.951   0.333   1.904
27333WAT     H282242   6.805   0.404   1.917
27334WAT      O82243   7.315   1.352   9.550
27334WAT     H182244   7.261   1.396   9.622
27334WAT     H282245   7.360   1.271   9.588
27335WAT      O82246   7.452   3.048   9.699
27335WAT     H182247   7.448   2.951   9.676
27335WAT     H282248   7.515   3.094   9.637
27336WAT      O82249   5.912   4.728   9.658
27336WAT     H182250   5.902   4.640   9.611
27336WAT     H282251   5.998   4.729   9.709
27337WAT      O82252   5.977   3.073   8.528
27337WAT     H182253   5.879   3.053   8.522
27337WAT     H282254   6.027   3.011   8.467
27338WAT      O82255   0.506   0.347   5.411
27338WAT     H182256   0.530   0.436   5.450
27338WAT     H282257   0.435   0.305   5.468
27339WAT      O82258   9.177   5.868   4.961
27339WAT     H182259   9.242   5.806   5.007
27339WAT     H282260   9.086   5.826   4.960
27340WAT      O82261   5.501   5.618   1.647
27340WAT     H182262   5.539   5.703   1.608
27340WAT     H282263   5.429   5.584   1.586
27341WAT      O82264   3.334   2.030   5.134
27341WAT     H182265   3.393   2.111   5.137
27341WAT     H282266   3.258   2.041   5.198
27342WAT      O82267   3.246   0.302   9.078
27342WAT     H182268   3.283   0.354   9.156
27342WAT     H282269   3.263   0.352   8.993
27343WAT      O82270   2.486   4.360   7.889
27343WAT     H182271   2.510   4.335   7.795
27343WAT     H282272   2.387   4.357   7.900
27344WAT      O82273   0.794   3.768   3.011
27344WAT     H182274   0.861   3.752   3.083
27344WAT     H282275   0.842   3.784   2.925
27345WAT      O82276   3.261   1.390   8.822
27345WAT     H182277   3.255   1.314   8.887
27345WAT     H282278   3.181   1.389   8.762
27346WAT      O82279   9.546   6.673   7.734
27346WAT     H182280   9.612   6.648   7.804
27346WAT     H282281   9.468   6.611   7.738
27347WAT      O82282   2.644   1.871   0.172
27347WAT     H182283   2.644   1.788   0.116
27347WAT     H282284   2.583   1.939   0.131
27348WAT      O82285   4.695   8.882   5.083
27348WAT     H182286   4.744   8.951   5.031
27348WAT     H282287   4.611   8.922   5.120
27349WAT      O82288   7.474   5.541   2.147
27349WAT     H182289   7.465   5.474   2.073
27349WAT     H282290   7.384   5.561   2.185
27350WAT      O82291   8.484   9.608   1.468
27350WAT     H182292   8.489   9.664   1.385
27350WAT     H282293   8.563   9.546   1.471
27351WAT      O82294   6.377   1.171   7.739
27351WAT     H182295   6.349   1.149   7.646
27351WAT     H282296   6.297   1.197   7.793
27352WAT      O82297   1.274   6.528   1.574
27352WAT     H182298   1.294   6.617   1.533
27352WAT     H282299   1.187   6.495   1.539
27353WAT      O82300   6.137   2.147   1.964
27353WAT     H182301   6.095   2.070   1.918
27353WAT     H282302   6.077   2.180   2.037
27354WAT      O82303   5.916   5.004   5.029
27354WAT     H182304   5.885   4.936   5.094
27354WAT     H282305   5.973   5.072   5.075
27355WAT      O82306   9.149   5.447   2.382
27355WAT     H182307   9.215   5.521   2.391
27355WAT     H282308   9.117   5.441   2.287
27356WAT      O82309   8.959   5.021   2.349
27356WAT     H182310   8.994   5.073   2.427
27356WAT     H282311   9.026   5.024   2.274
27357WAT      O82312   0.413   2.520   8.616
27357WAT     H182313   0.366   2.520   8.528
27357WAT     H282314   0.349   2.542   8.689
27358WAT      O82315   6.060   2.068   4.572
27358WAT     H182316   6.133   2.002   4.590
27358WAT     H282317   6.077   2.152   4.624
27359WAT      O82318   6.379   4.549   0.689
27359WAT     H182319   6.476   4.564   0.671
27359WAT     H282320   6.327   4.629   0.658
27360WAT      O82321   0.034   7.587   9.066
27360WAT     H182322   0.005   7.543   9.151
27360WAT     H282323   0.108   7.535   9.024
27361WAT      O82324   7.849   2.944   2.242
27361WAT     H182325   7.907   2.996   2.179
27361WAT     H282326   7.868   2.846   2.230
27362WAT      O82327   1.413   4.956   1.370
27362WAT     H182328   1.448   4.966   1.276
27362WAT     H282329   1.457   4.878   1.413
27363WAT      O82330   7.391   8.233   8.303
27363WAT     H182331   7.365   8.329   8.293
27363WAT     H282332   7.490   8.227   8.321
27364WAT      O82333   9.816   6.299   1.778
27364WAT     H182334   9.860   6.331   1.694
27364WAT     H282335   9.754   6.370   1.812
27365WAT      O82336   5.268   3.489   7.967
27365WAT     H182337   5.292   3.552   7.893
27365WAT     H282338   5.286   3.395   7.939
27366WAT      O82339   5.192   3.107   8.151
27366WAT     H182340   5.266   3.092   8.085
27366WAT     H282341   5.108   3.127   8.102
27367WAT      O82342   4.530   8.351   7.672
27367WAT     H182343   4.452   8.332   7.612
27367WAT     H282344   4.615   8.325   7.625
27368WAT      O82345   3.822   5.641   7.416
27368WAT     H182346   3.767   5.688   7.347
27368WAT     H282347   3.814   5.542   7.403
27369WAT      O82348   8.355   5.166   4.673
27369WAT     H182349   8.262   5.193   4.697
27369WAT     H282350   8.420   5.214   4.732
27370WAT      O82351   4.576   4.868   8.231
27370WAT     H182352   4.479   4.883   8.208
27370WAT     H282353   4.632   4.879   8.149
27371WAT      O82354   0.246   2.275   7.313
27371WAT     H182355   0.159   2.226   7.313
27371WAT     H282356   0.233   2.366   7.274
27372WAT      O82357   5.773   5.391   1.926
27372WAT     H182358   5.713   5.312   1.935
27372WAT     H282359   5.768   5.425   1.832
27373WAT      O82360   2.367   5.671   7.863
27373WAT     H182361   2.335   5.765   7.856
27373WAT     H282362   2.297   5.615   7.906
27374WAT      O82363   7.209   3.591   2.023
27374WAT     H182364   7.165   3.602   1.934
27374WAT     H282365   7.308   3.607   2.014
27375WAT      O82366   4.461   7.941   4.971
27375WAT     H182367   4.559   7.945   4.989
27375WAT     H282368   4.443   7.869   4.903
27376WAT      O82369   0.931   7.023   5.245
27376WAT     H182370   0.887   7.113   5.245
27376WAT     H282371   0.861   6.952   5.252
27377WAT      O82372   8.745   9.503   9.598
27377WAT     H182373   8.712   9.590   9.560
27377WAT     H282374   8.765   9.439   9.524
27378WAT      O82375   1.413   5.379   9.707
27378WAT     H182376   1.316   5.405   9.701
27378WAT     H282377   1.451   5.370   9.615
27379WAT      O82378   5.933   3.313   7.395
27379WAT     H182379   5.922   3.387   7.461
27379WAT     H282380   6.018   3.325   7.344
27380WAT      O82381   2.300   6.141   7.138
27380WAT     H182382   2.204   6.154   7.165
27380WAT     H282383   2.337   6.227   7.103
27381WAT      O82384   5.110   5.565   5.916
27381WAT     H182385   5.168   5.647   5.915
27381WAT     H282386   5.016   5.592   5.936
27382WAT      O82387   8.699   5.104   0.404
27382WAT     H182388   8.612   5.152   0.390
27382WAT     H282389   8.771   5.170   0.423
27383WAT      O82390   3.535   2.085   6.524
27383WAT     H182391   3.634   2.089   6.511
27383WAT     H282392   3.501   1.995   6.495
27384WAT      O82393   3.340   6.942   6.441
27384WAT     H182394   3.275   7.012   6.472
27384WAT     H282395   3.433   6.979   6.443
27385WAT      O82396   1.482   3.537   2.001
27385WAT     H182397   1.458   3.532   2.098
27385WAT     H282398   1.569   3.587   1.991
27386WAT      O82399   5.626   5.812   3.910
27386WAT     H182400   5.545   5.755   3.926
27386WAT     H282401   5.648   5.813   3.813
27387WAT      O82402   9.243   1.515   5.803
27387WAT     H182403   9.336   1.488   5.781
27387WAT     H282404   9.235   1.530   5.902
27388WAT      O82405   1.653   4.922   8.822
27388WAT     H182406   1.706   4.906   8.738
27388WAT     H282407   1.562   4.882   8.812
27389WAT      O82408   2.486   6.585   6.825
27389WAT     H182409   2.442   6.662   6.872
27389WAT     H282410   2.512   6.614   6.732
27390WAT      O82411   3.480   7.548   6.163
27390WAT     H182412   3.453   7.452   6.153
27390WAT     H282413   3.523   7.580   6.078
27391WAT      O82414   0.144   6.256   1.987
27391WAT     H182415   0.075   6.231   1.919
27391WAT     H282416   0.234   6.231   1.954
27392WAT      O82417   6.434   3.087   7.858
27392WAT     H182418   6.479   3.113   7.773
27392WAT     H282419   6.341   3.123   7.858
27393WAT      O82420   3.509   2.149   8.131
27393WAT     H182421   3.473   2.220   8.192
27393WAT     H282422   3.564   2.192   8.060
27394WAT      O82423   7.979   1.021   4.441
27394WAT     H182424   8.048   1.010   4.370
27394WAT     H282425   8.023   1.035   4.529
27395WAT      O82426   2.207   2.376   2.277
27395WAT     H182427   2.294   2.334   2.303
27395WAT     H282428   2.222   2.473   2.257
27396WAT      O82429   1.279   5.834   7.060
27396WAT     H182430   1.226   5.896   7.002
27396WAT     H282431   1.217   5.778   7.115
27397WAT      O82432   3.716   3.604   0.629
27397WAT     H182433   3.761   3.669   0.568
27397WAT     H282434   3.783   3.570   0.695
27398WAT      O82435   5.764   4.442   5.478
27398WAT     H182436   5.726   4.516   5.534
27398WAT     H282437   5.700   4.420   5.405
27399WAT      O82438   8.226   8.972   5.751
27399WAT     H182439   8.210   9.066   5.781
27399WAT     H282440   8.275   8.974   5.664
27400WAT      O82441   2.657   4.499   2.061
27400WAT     H182442   2.596   4.560   2.011
27400WAT     H282443   2.726   4.462   1.999
27401WAT      O82444   7.336   7.490   4.273
27401WAT     H182445   7.325   7.578   4.228
27401WAT     H282446   7.400   7.434   4.221
27402WAT      O82447   6.179   0.657   2.554
27402WAT     H182448   6.149   0.718   2.481
27402WAT     H282449   6.197   0.710   2.637
27403WAT      O82450   2.951   5.574   1.453
27403WAT     H182451   2.898   5.574   1.538
27403WAT     H282452   3.045   5.602   1.473
27404WAT      O82453   9.410   1.506   3.554
27404WAT     H182454   9.325   1.544   3.517
27404WAT     H282455   9.465   1.579   3.595
27405WAT      O82456   0.555   1.307   1.216
27405WAT     H182457   0.519   1.400   1.223
27405WAT     H282458   0.589   1.291   1.123
27406WAT      O82459   2.255   1.943   6.511
27406WAT     H182460   2.289   2.036   6.496
27406WAT     H282461   2.316   1.878   6.467
27407WAT      O82462   8.731   8.367   8.310
27407WAT     H182463   8.689   8.340   8.223
27407WAT     H282464   8.735   8.287   8.371
27408WAT      O82465   7.680   0.330   5.031
27408WAT     H182466   7.659   0.395   5.104
27408WAT     H282467   7.704   0.241   5.070
27409WAT      O82468   9.371   6.751   9.106
27409WAT     H182469   9.285   6.785   9.069
27409WAT     H282470   9.355   6.714   9.197
27410WAT      O82471   8.166   3.107   6.405
27410WAT     H182472   8.145   3.013   6.430
27410WAT     H282473   8.118   3.169   6.467
27411WAT      O82474   3.726   7.855   6.661
27411WAT     H182475   3.800   7.798   6.623
27411WAT     H282476   3.677   7.899   6.587
27412WAT      O82477   9.841   5.888   6.943
27412WAT     H182478   9.936   5.892   6.975
27412WAT     H282479   9.782   5.937   7.006
27413WAT      O82480   5.571   2.807   9.196
27413WAT     H182481   5.511   2.881   9.227
27413WAT     H282482   5.547   2.722   9.245
27414WAT      O82483   2.949   7.795   9.147
27414WAT     H182484   2.874   7.775   9.210
27414WAT     H282485   2.921   7.772   9.054
27415WAT      O82486   7.887   2.641   5.648
27415WAT     H182487   7.945   2.629   5.568
27415WAT     H282488   7.920   2.583   5.723
27416WAT      O82489   2.697   1.891   2.659
27416WAT     H182490   2.764   1.926   2.724
27416WAT     H282491   2.606   1.898   2.698
27417WAT      O82492   9.379   4.409   0.388
27417WAT     H182493   9.428   4.442   0.307
27417WAT     H282494   9.427   4.438   0.470
27418WAT      O82495   8.710   6.247   0.348
27418WAT     H182496   8.746   6.154   0.355
27418WAT     H282497   8.784   6.309   0.320
27419WAT      O82498   2.864   4.757   1.695
27419WAT     H182499   2.880   4.752   1.597
27419WAT     H282500   2.923   4.691   1.742
27420WAT      O82501   5.581   5.596   6.749
27420WAT     H182502   5.648   5.545   6.803
27420WAT     H282503   5.519   5.644   6.810
27421WAT      O82504   6.119   4.766   5.538
27421WAT     H182505   6.067   4.696   5.490
27421WAT     H282506   6.208   4.776   5.494
27422WAT      O82507   4.712   1.017   3.557
27422WAT     H182508   4.651   0.990   3.631
27422WAT     H282509   4.785   0.950   3.548
27423WAT      O82510   3.188   4.829   7.839
27423WAT     H182511   3.124   4.811   7.765
27423WAT     H282512   3.175   4.923   7.872
27424WAT      O82513   5.023   6.373   2.323
27424WAT     H182514   5.012   6.413   2.232
27424WAT     H282515   4.957   6.415   2.386
27425WAT      O82516   0.638   1.339   0.528
27425WAT     H182517   0.718   1.344   0.588
27425WAT     H282518   0.557   1.367   0.580
27426WAT      O82519   8.910   4.694   5.454
27426WAT     H182520   8.819   4.734   5.447
27426WAT     H282521   8.956   4.729   5.536
27427WAT      O82522   5.777   5.073   4.543
27427WAT     H182523   5.685   5.034   4.541
27427WAT     H282524   5.831   5.026   4.613
27428WAT      O82525   3.224   2.176   7.336
27428WAT     H182526   3.214   2.124   7.251
27428WAT     H282527   3.201   2.117   7.414
27429WAT      O82528   5.930   2.241   4.128
27429WAT     H182529   5.862   2.253   4.200
27429WAT     H282530   5.929   2.320   4.067
27430WAT      O82531   0.129   8.088   4.364
27430WAT     H182532   0.121   8.024   4.287
27430WAT     H282533   0.201   8.155   4.344
27431WAT      O82534   7.817   8.827   6.160
27431WAT     H182535   7.825   8.793   6.066
27431WAT     H282536   7.786   8.753   6.220
27432WAT      O82537   9.363   6.000   9.269
27432WAT     H182538   9.370   5.918   9.211
27432WAT     H282539   9.269   6.012   9.298
27433WAT      O82540   0.563   1.241   2.573
27433WAT     H182541   0.639   1.183   2.544
27433WAT     H282542   0.590   1.293   2.654
27434WAT      O82543   2.629   8.810   1.551
27434WAT     H182544   2.625   8.775   1.457
27434WAT     H282545   2.587   8.901   1.555
27435WAT      O82546   6.453   0.329   4.990
27435WAT     H182547   6.443   0.295   4.896
27435WAT     H282548   6.366   0.369   5.020
27436WAT      O82549   3.651   4.145   8.687
27436WAT     H182550   3.599   4.125   8.770
27436WAT     H282551   3.631   4.075   8.618
27437WAT      O82552   7.120   0.997   6.744
27437WAT     H182553   7.102   1.066   6.815
27437WAT     H282554   7.194   1.029   6.685
27438WAT      O82555   0.013   0.237   1.257
27438WAT     H182556   0.010   0.335   1.277
27438WAT     H282557   0.103   0.201   1.282
27439WAT      O82558   1.568   4.707   3.404
27439WAT     H182559   1.504   4.778   3.374
27439WAT     H282560   1.553   4.624   3.350
27440WAT      O82561   6.030   3.506   6.342
27440WAT     H182562   6.037   3.578   6.272
27440WAT     H282563   5.940   3.462   6.336
27441WAT      O82564   3.665   6.842   4.736
27441WAT     H182565   3.702   6.779   4.805
27441WAT     H282566   3.647   6.791   4.652
27442WAT      O82567   1.369   4.380   2.395
27442WAT     H182568   1.443   4.322   2.428
27442WAT     H282569   1.296   4.384   2.464
27443WAT      O82570   5.990   4.483   7.207
27443WAT     H182571   5.963   4.529   7.122
27443WAT     H282572   6.061   4.416   7.188
27444WAT      O82573   8.379   8.152   8.577
27444WAT     H182574   8.345   8.219   8.643
27444WAT     H282575   8.349   8.061   8.604
27445WAT      O82576   9.828   4.752   5.557
27445WAT     H182577   9.747   4.702   5.588
27445WAT     H282578   9.810   4.793   5.468
27446WAT      O82579   0.510   5.997   4.027
27446WAT     H182580   0.553   6.069   3.973
27446WAT     H282581   0.412   6.018   4.038
27447WAT      O82582   3.676   9.348   0.088
27447WAT     H182583   3.674   9.266   0.145
27447WAT     H282584   3.621   9.419   0.131
27448WAT      O82585   3.645   8.463   1.362
27448WAT     H182586   3.590   8.422   1.436
27448WAT     H282587   3.720   8.515   1.402
27449WAT      O82588   1.054   5.549   8.598
27449WAT     H182589   1.085   5.548   8.503
27449WAT     H282590   1.043   5.455   8.631
27450WAT      O82591   6.375   4.125   3.406
27450WAT     H182592   6.458   4.148   3.354
27450WAT     H282593   6.330   4.047   3.363
27451WAT      O82594   5.558   2.517   3.298
27451WAT     H182595   5.635   2.576   3.271
27451WAT     H282596   5.535   2.534   3.394
27452WAT      O82597   0.274   8.024   1.218
27452WAT     H182598   0.209   8.100   1.219
27452WAT     H282599   0.224   7.938   1.202
27453WAT      O82600   0.371   4.461   8.122
27453WAT     H182601   0.304   4.415   8.180
27453WAT     H282602   0.376   4.415   8.033
27454WAT      O82603   5.438   9.347   9.273
27454WAT     H182604   5.446   9.401   9.357
27454WAT     H282605   5.506   9.379   9.206
27455WAT      O82606   7.423   6.626   4.882
27455WAT     H182607   7.434   6.722   4.908
27455WAT     H282608   7.495   6.572   4.925
27456WAT      O82609   2.947   3.731   8.434
27456WAT     H182610   3.035   3.683   8.446
27456WAT     H282611   2.931   3.791   8.513
27457WAT      O82612   0.495   2.519   4.920
27457WAT     H182613   0.471   2.566   4.835
27457WAT     H282614   0.443   2.559   4.996
27458WAT      O82615   3.346   5.438   9.769
27458WAT     H182616   3.321   5.409   9.676
27458WAT     H282617   3.386   5.360   9.818
27459WAT      O82618   3.156   6.768   4.911
27459WAT     H182619   3.250   6.775   4.943
27459WAT     H282620   3.150   6.695   4.843
27460WAT      O82621   0.430   1.718   7.667
27460WAT     H182622   0.434   1.747   7.762
27460WAT     H282623   0.523   1.706   7.632
27461WAT      O82624   0.734   3.983   2.117
27461WAT     H182625   0.656   3.949   2.064
27461WAT     H282626   0.702   4.010   2.208
27462WAT      O82627   5.663   1.864   3.614
27462WAT     H182628   5.685   1.846   3.710
27462WAT     H282629   5.693   1.956   3.589
27463WAT      O82630   6.065   4.225   2.533
27463WAT     H182631   5.972   4.188   2.536
27463WAT     H282632   6.063   4.317   2.492
27464WAT      O82633   4.783   0.014   5.754
27464WAT     H182634   4.855   0.063   5.706
27464WAT     H282635   4.816  -0.014   5.844
27465WAT      O82636   4.515   2.310   5.014
27465WAT     H182637   4.447   2.301   5.086
27465WAT     H282638   4.586   2.374   5.042
27466WAT      O82639   4.970   9.185   7.498
27466WAT     H182640   4.962   9.275   7.455
27466WAT     H282641   5.023   9.125   7.438
27467WAT      O82642   1.602   1.642   8.281
27467WAT     H182643   1.639   1.594   8.361
27467WAT     H282644   1.640   1.602   8.198
27468WAT      O82645   6.730   3.852   7.291
27468WAT     H182646   6.661   3.923   7.303
27468WAT     H282647   6.687   3.762   7.297
27469WAT      O82648   4.508   3.700   7.798
27469WAT     H182649   4.504   3.672   7.702
27469WAT     H282650   4.540   3.795   7.804
27470WAT      O82651   8.409   2.435   0.045
27470WAT     H182652   8.384   2.338   0.036
27470WAT     H282653   8.453   2.450   0.133
27471WAT      O82654   4.693   5.015   2.205
27471WAT     H182655   4.618   4.972   2.155
27471WAT     H282656   4.656   5.083   2.269
27472WAT      O82657   6.905   9.625   0.419
27472WAT     H182658   6.996   9.585   0.412
27472WAT     H282659   6.837   9.552   0.426
27473WAT      O82660   2.930   1.246   4.003
27473WAT     H182661   2.878   1.261   4.087
27473WAT     H282662   2.869   1.259   3.924
27474WAT      O82663   5.767   7.516   0.267
27474WAT     H182664   5.743   7.603   0.309
27474WAT     H282665   5.846   7.476   0.315
27475WAT      O82666   5.396   8.914   3.125
27475WAT     H182667   5.364   8.929   3.032
27475WAT     H282668   5.403   9.001   3.173
27476WAT      O82669   0.425   9.025   0.738
27476WAT     H182670   0.341   8.974   0.755
27476WAT     H282671   0.406   9.123   0.745
27477WAT      O82672   4.462   3.503   7.011
27477WAT     H182673   4.467   3.572   7.084
27477WAT     H282674   4.500   3.541   6.927
27478WAT      O82675   8.417   7.555   1.386
27478WAT     H182676   8.430   7.480   1.321
27478WAT     H282677   8.324   7.591   1.376
27479WAT      O82678   1.680   3.783   9.145
27479WAT     H182679   1.628   3.858   9.186
27479WAT     H282680   1.690   3.799   9.047
27480WAT      O82681   2.147   4.443   3.975
27480WAT     H182682   2.194   4.419   3.890
27480WAT     H282683   2.110   4.535   3.967
27481WAT      O82684   9.427   5.762   4.231
27481WAT     H182685   9.381   5.693   4.175
27481WAT     H282686   9.523   5.769   4.202
27482WAT      O82687   2.051   0.858   9.850
27482WAT     H182688   1.980   0.898   9.909
27482WAT     H282689   2.102   0.931   9.806
27483WAT      O82690   5.670   1.999   0.197
27483WAT     H182691   5.601   1.982   0.127
27483WAT     H282692   5.725   1.916   0.210
27484WAT      O82693   9.451   9.110   7.380
27484WAT     H182694   9.505   9.182   7.338
27484WAT     H282695   9.500   9.074   7.460
27485WAT      O82696   3.676   2.844   5.345
27485WAT     H182697   3.767   2.809   5.369
27485WAT     H282698   3.613   2.827   5.421
27486WAT      O82699   4.426   9.794   3.221
27486WAT     H182700   4.521   9.805   3.251
27486WAT     H282701   4.373   9.749   3.293
27487WAT      O82702   6.064   0.840   0.591
27487WAT     H182703   5.977   0.859   0.635
27487WAT     H282704   6.138   0.846   0.658
27488WAT      O82705   1.084   9.660   2.208
27488WAT     H182706   1.085   9.609   2.294
27488WAT     H282707   1.014   9.622   2.148
27489WAT      O82708   5.655   2.657   8.753
27489WAT     H182709   5.700   2.673   8.841
27489WAT     H282710   5.578   2.594   8.766
27490WAT      O82711   5.358   7.198   4.580
27490WAT     H182712   5.440   7.213   4.635
27490WAT     H282713   5.329   7.102   4.588
27491WAT      O82714   2.703   6.325   5.185
27491WAT     H182715   2.758   6.310   5.268
27491WAT     H282716   2.701   6.241   5.131
27492WAT      O82717   6.356   1.149   0.150
27492WAT     H182718   6.303   1.202   0.083
27492WAT     H282719   6.326   1.054   0.148
27493WAT      O82720   2.170   6.143   0.829
27493WAT     H182721   2.200   6.231   0.794
27493WAT     H282722   2.189   6.138   0.928
27494WAT      O82723   0.900   6.492   0.697
27494WAT     H182724   0.852   6.405   0.687
27494WAT     H282725   0.849   6.551   0.760
27495WAT      O82726   3.247   2.178   6.209
27495WAT     H182727   3.180   2.238   6.166
27495WAT     H282728   3.302   2.230   6.275
27496WAT      O82729   7.736   5.049   6.588
27496WAT     H182730   7.638   5.066   6.585
27496WAT     H282731   7.772   5.073   6.678
27497WAT      O82732   0.372   1.833   0.115
27497WAT     H182733   0.311   1.909   0.093
27497WAT     H282734   0.444   1.826   0.046
27498WAT      O82735   1.617   5.867   7.952
27498WAT     H182736   1.636   5.795   7.885
27498WAT     H282737   1.529   5.850   7.995
27499WAT      O82738   6.031   6.200   9.081
27499WAT     H182739   6.025   6.157   9.171
27499WAT     H282740   6.124   6.233   9.065
27500WAT      O82741   7.298   8.352   7.423
27500WAT     H182742   7.217   8.316   7.376
27500WAT     H282743   7.272   8.383   7.515
27501WAT      O82744   2.848   2.941   9.633
27501WAT     H182745   2.750   2.956   9.623
27501WAT     H282746   2.864   2.860   9.690
27502WAT      O82747   6.036   9.481   7.509
27502WAT     H182748   6.000   9.403   7.458
27502WAT     H282749   6.097   9.448   7.582
27503WAT      O82750   3.646   0.353   6.288
27503WAT     H182751   3.647   0.316   6.195
27503WAT     H282752   3.563   0.323   6.335
27504WAT      O82753   4.010   4.718   6.370
27504WAT     H182754   4.047   4.810   6.366
27504WAT     H282755   4.079   4.655   6.405
27505WAT      O82756   6.280   0.732   6.068
27505WAT     H182757   6.290   0.724   5.969
27505WAT     H282758   6.184   0.717   6.093
27506WAT      O82759   0.124   6.412   7.541
27506WAT     H182760   0.132   6.482   7.612
27506WAT     H282761   0.122   6.456   7.451
27507WAT      O82762   1.775   5.769   4.368
27507WAT     H182763   1.804   5.814   4.283
27507WAT     H282764   1.801   5.672   4.364
27508WAT      O82765   7.733   7.550   7.183
27508WAT     H182766   7.689   7.635   7.212
27508WAT     H282767   7.696   7.473   7.235
27509WAT      O82768   8.552   9.027   0.458
27509WAT     H182769   8.591   9.092   0.523
27509WAT     H282770   8.492   8.963   0.506
27510WAT      O82771   2.748   0.788   8.741
27510WAT     H182772   2.791   0.878   8.733
27510WAT     H282773   2.819   0.718   8.745
27511WAT      O82774   7.410   0.406   7.682
27511WAT     H182775   7.490   0.361   7.720
27511WAT     H282776   7.438   0.492   7.639
27512WAT      O82777   0.084   0.390   6.077
27512WAT     H182778   0.152   0.419   6.144
27512WAT     H282779   0.103   0.435   5.989
27513WAT      O82780   2.862   9.016   1.944
27513WAT     H182781   2.797   8.976   2.009
27513WAT     H282782   2.910   8.944   1.895
27514WAT      O82783   9.793   4.158   2.470
27514WAT     H182784   9.726   4.116   2.409
27514WAT     H282785   9.880   4.170   2.420
27515WAT      O82786   1.408   7.380   1.672
27515WAT     H182787   1.443   7.303   1.618
27515WAT     H282788   1.479   7.448   1.682
27516WAT      O82789   0.423   0.746   7.222
27516WAT     H182790   0.446   0.671   7.160
27516WAT     H282791   0.406   0.829   7.168
27517WAT      O82792   1.129   2.784   9.446
27517WAT     H182793   1.120   2.794   9.545
27517WAT     H282794   1.204   2.841   9.413
27518WAT      O82795   3.533   6.536   0.799
27518WAT     H182796   3.544   6.490   0.711
27518WAT     H282797   3.616   6.525   0.853
27519WAT      O82798   2.713   7.226   0.252
27519WAT     H182799   2.720   7.326   0.243
27519WAT     H282800   2.805   7.187   0.255
27520WAT      O82801   6.653   8.799   0.942
27520WAT     H182802   6.664   8.775   1.039
27520WAT     H282803   6.631   8.716   0.890
27521WAT      O82804   3.224   7.997   7.036
27521WAT     H182805   3.282   7.971   7.113
27521WAT     H282806   3.280   8.038   6.964
27522WAT      O82807   0.326   6.089   3.760
27522WAT     H182808   0.362   6.181   3.779
27522WAT     H282809   0.298   6.084   3.664
27523WAT      O82810   6.228   9.510   3.272
27523WAT     H182811   6.263   9.601   3.250
27523WAT     H282812   6.216   9.502   3.371
27524WAT      O82813   5.594   4.014   3.401
27524WAT     H182814   5.663   3.951   3.435
27524WAT     H282815   5.612   4.037   3.305
27525WAT      O82816   7.260   7.738   4.717
27525WAT     H182817   7.179   7.754   4.660
27525WAT     H282818   7.248   7.652   4.768
27526WAT      O82819   0.612   6.976   2.064
27526WAT     H182820   0.604   6.917   2.144
27526WAT     H282821   0.708   6.999   2.049
27527WAT      O82822   7.396   9.246   7.813
27527WAT     H182823   7.475   9.191   7.838
27527WAT     H282824   7.399   9.266   7.715
27528WAT      O82825   4.078   2.463   2.444
27528WAT     H182826   4.053   2.454   2.541
27528WAT     H282827   4.154   2.526   2.435
27529WAT      O82828   8.736   4.073   8.611
27529WAT     H182829   8.648   4.119   8.601
27529WAT     H282830   8.726   3.976   8.586
27530WAT      O82831   5.294   5.099   7.895
27530WAT     H182832   5.225   5.162   7.859
27530WAT     H282833   5.266   5.065   7.984
27531WAT      O82834   3.485   3.500   7.091
27531WAT     H182835   3.525   3.536   7.175
27531WAT     H282836   3.557   3.458   7.035
27532WAT      O82837   9.397   9.239   6.010
27532WAT     H182838   9.340   9.196   6.080
27532WAT     H282839   9.358   9.224   5.920
27533WAT      O82840   7.995   2.302   0.628
27533WAT     H182841   8.037   2.314   0.538
27533WAT     H282842   7.958   2.390   0.659
27534WAT      O82843   6.638   4.148   8.741
27534WAT     H182844   6.676   4.213   8.676
27534WAT     H282845   6.641   4.186   8.833
27535WAT      O82846   0.063   2.721   7.985
27535WAT     H182847   0.117   2.637   7.991
27535WAT     H282848  -0.029   2.704   8.020
27536WAT      O82849   3.946   1.397   8.584
27536WAT     H182850   3.962   1.381   8.487
27536WAT     H282851   3.953   1.495   8.604
27537WAT      O82852   7.022   0.355   6.057
27537WAT     H182853   6.938   0.396   6.091
27537WAT     H282854   7.046   0.275   6.113
27538WAT      O82855   0.972   6.426   3.749
27538WAT     H182856   1.044   6.433   3.680
27538WAT     H282857   0.883   6.430   3.704
27539WAT      O82858   7.416   3.546   0.380
27539WAT     H182859   7.334   3.596   0.349
27539WAT     H282860   7.492   3.610   0.390
27540WAT      O82861   8.483   7.768   1.553
27540WAT     H182862   8.439   7.719   1.628
27540WAT     H282863   8.489   7.708   1.473
27541WAT      O82864   4.181   5.565   9.440
27541WAT     H182865   4.110   5.633   9.422
27541WAT     H282866   4.184   5.546   9.538
27542WAT      O82867   4.264   2.135   4.389
27542WAT     H182868   4.222   2.056   4.432
27542WAT     H282869   4.293   2.200   4.459
27543WAT      O82870   9.478   2.739   5.162
27543WAT     H182871   9.449   2.805   5.094
27543WAT     H282872   9.505   2.654   5.117
27544WAT      O82873   2.206   7.268   8.214
27544WAT     H182874   2.126   7.327   8.215
27544WAT     H282875   2.289   7.324   8.215
27545WAT      O82876   0.864   8.607   5.919
27545WAT     H182877   0.844   8.538   5.850
27545WAT     H282878   0.918   8.681   5.878
27546WAT      O82879   5.401   8.597   5.850
27546WAT     H182880   5.348   8.586   5.934
27546WAT     H282881   5.461   8.518   5.837
27547WAT      O82882   5.535   1.287   9.488
27547WAT     H182883   5.511   1.190   9.494
27547WAT     H282884   5.529   1.317   9.393
27548WAT      O82885   0.134   7.454   8.592
27548WAT     H182886   0.100   7.382   8.530
27548WAT     H282887   0.223   7.487   8.558
27549WAT      O82888   5.300   6.492   3.919
27549WAT     H182889   5.350   6.578   3.931
27549WAT     H282890   5.309   6.436   4.001
27550WAT      O82891   5.031   1.746   3.595
27550WAT     H182892   5.126   1.776   3.580
27550WAT     H282893   5.025   1.647   3.587
27551WAT      O82894   1.001   3.116   5.566
27551WAT     H182895   1.030   3.075   5.479
27551WAT     H282896   1.077   3.166   5.606
27552WAT      O82897   9.091   9.320   7.167
27552WAT     H182898   9.110   9.254   7.240
27552WAT     H282899   8.994   9.319   7.145
27553WAT      O82900   2.442   6.906   8.239
27553WAT     H182901   2.421   6.837   8.170
27553WAT     H282902   2.394   6.990   8.218
27554WAT      O82903   8.601   6.438   1.803
27554WAT     H182904   8.563   6.347   1.820
27554WAT     H282905   8.590   6.461   1.706
27555WAT      O82906   5.453   4.358   0.174
27555WAT     H182907   5.546   4.365   0.138
27555WAT     H282908   5.452   4.386   0.270
27556WAT      O82909   5.810   2.947   4.439
27556WAT     H182910   5.769   2.925   4.351
27556WAT     H282911   5.854   2.865   4.477
27557WAT      O82912   1.255   9.256   0.654
27557WAT     H182913   1.187   9.279   0.585
27557WAT     H282914   1.210   9.215   0.733
27558WAT      O82915   9.229   2.639   2.889
27558WAT     H182916   9.275   2.573   2.829
27558WAT     H282917   9.131   2.624   2.886
27559WAT      O82918   1.148   9.805   3.500
27559WAT     H182919   1.160   9.829   3.597
27559WAT     H282920   1.134   9.706   3.493
27560WAT      O82921   6.016   3.891   7.053
27560WAT     H182922   6.048   3.929   7.140
27560WAT     H282923   5.977   3.801   7.067
27561WAT      O82924   0.253   6.855   7.589
27561WAT     H182925   0.238   6.849   7.688
27561WAT     H282926   0.246   6.764   7.549
27562WAT      O82927   3.420   4.188   4.340
27562WAT     H182928   3.489   4.239   4.289
27562WAT     H282929   3.409   4.097   4.298
27563WAT      O82930   4.605   7.345   8.584
27563WAT     H182931   4.598   7.423   8.522
27563WAT     H282932   4.594   7.260   8.531
27564WAT      O82933   5.078   8.994   9.196
27564WAT     H182934   5.137   9.073   9.184
27564WAT     H282935   5.087   8.959   9.289
27565WAT      O82936   8.967   5.794   1.880
27565WAT     H182937   9.023   5.819   1.802
27565WAT     H282938   9.024   5.787   1.962
27566WAT      O82939   8.703   9.242   7.732
27566WAT     H182940   8.756   9.287   7.660
27566WAT     H282941   8.695   9.303   7.810
27567WAT      O82942   7.176   5.469   5.220
27567WAT     H182943   7.208   5.380   5.187
27567WAT     H282944   7.107   5.505   5.156
27568WAT      O82945   3.216   9.063   4.861
27568WAT     H182946   3.231   9.037   4.957
27568WAT     H282947   3.118   9.064   4.842
27569WAT      O82948   0.486   5.996   0.737
27569WAT     H182949   0.486   5.972   0.640
27569WAT     H282950   0.569   5.960   0.780
27570WAT      O82951   2.890   8.387   6.055
27570WAT     H182952   2.959   8.419   5.991
27570WAT     H282953   2.894   8.442   6.139
27571WAT      O82954   8.512   3.201   5.205
27571WAT     H182955   8.541   3.149   5.285
27571WAT     H282956   8.591   3.240   5.159
27572WAT      O82957   8.800   0.903   9.224
27572WAT     H182958   8.807   0.917   9.323
27572WAT     H282959   8.850   0.975   9.176
27573WAT      O82960   9.531   1.362   3.982
27573WAT     H182961   9.500   1.328   4.071
27573WAT     H282962   9.541   1.286   3.919
27574WAT      O82963   8.684   4.192   7.596
27574WAT     H182964   8.705   4.227   7.505
27574WAT     H282965   8.729   4.249   7.665
27575WAT      O82966   0.837   3.564   1.243
27575WAT     H182967   0.891   3.579   1.160
27575WAT     H282968   0.806   3.470   1.246
27576WAT      O82969   3.882   8.759   7.273
27576WAT     H182970   3.915   8.704   7.196
27576WAT     H282971   3.919   8.852   7.265
27577WAT      O82972   8.891   2.938   4.331
27577WAT     H182973   8.844   2.864   4.380
27577WAT     H282974   8.915   2.906   4.239
27578WAT      O82975   7.927   8.729   9.462
27578WAT     H182976   7.843   8.721   9.408
27578WAT     H282977   8.004   8.743   9.400
27579WAT      O82978   9.633   1.842   5.635
27579WAT     H182979   9.580   1.900   5.697
27579WAT     H282980   9.603   1.747   5.645
27580WAT      O82981   3.889   6.345   3.135
27580WAT     H182982   3.920   6.253   3.158
27580WAT     H282983   3.897   6.404   3.216
27581WAT      O82984   8.772   9.129   2.191
27581WAT     H182985   8.855   9.118   2.246
27581WAT     H282986   8.732   9.039   2.173
27582WAT      O82987   8.228   5.981   8.380
27582WAT     H182988   8.286   6.042   8.434
27582WAT     H282989   8.277   5.952   8.298
27583WAT      O82990   0.222   0.463   2.906
27583WAT     H182991   0.257   0.422   2.990
27583WAT     H282992   0.294   0.518   2.863
27584WAT      O82993   3.807   3.787   1.198
27584WAT     H182994   3.753   3.845   1.260
27584WAT     H282995   3.773   3.796   1.105
27585WAT      O82996   5.126   4.410   6.902
27585WAT     H182997   5.184   4.452   6.972
27585WAT     H282998   5.031   4.440   6.915
27586WAT      O82999   1.393   0.050   0.080
27586WAT     H183000   1.397  -0.036   0.028
27586WAT     H283001   1.335   0.037   0.161
27587WAT      O83002   8.779   0.469   2.525
27587WAT     H183003   8.750   0.524   2.604
27587WAT     H283004   8.698   0.441   2.473
27588WAT      O83005   2.987   4.566   3.533
27588WAT     H183006   2.933   4.484   3.513
27588WAT     H283007   2.932   4.630   3.587
27589WAT      O83008   7.791   2.154   4.794
27589WAT     H183009   7.876   2.101   4.791
27589WAT     H283010   7.787   2.206   4.879
27590WAT      O83011   3.052   9.557   6.011
27590WAT     H183012   2.994   9.637   6.025
27590WAT     H283013   3.146   9.587   5.993
27591WAT      O83014   3.640   1.627   5.981
27591WAT     H183015   3.543   1.605   5.992
27591WAT     H283016   3.686   1.551   5.935
27592WAT      O83017   2.951   3.219   9.188
27592WAT     H183018   3.023   3.288   9.173
27592WAT     H283019   2.877   3.234   9.123
27593WAT      O83020   0.043   8.546   2.382
27593WAT     H183021  -0.025   8.557   2.454
27593WAT     H283022   0.038   8.624   2.319
27594WAT      O83023   0.767   1.672   0.926
27594WAT     H183024   0.735   1.709   0.838
27594WAT     H283025   0.695   1.682   0.994
27595WAT      O83026   2.444   6.018   6.867
27595WAT     H183027   2.344   6.020   6.867
27595WAT     H283028   2.477   6.043   6.776
27596WAT      O83029   6.072   3.097   4.957
27596WAT     H183030   6.077   3.098   4.857
27596WAT     H283031   6.165   3.095   4.994
27597WAT      O83032   6.296   7.152   4.109
27597WAT     H183033   6.280   7.198   4.196
27597WAT     H283034   6.348   7.068   4.124
27598WAT      O83035   1.513   0.627   4.691
27598WAT     H183036   1.608   0.606   4.712
27598WAT     H283037   1.508   0.707   4.631
27599WAT      O83038   5.512   9.513   3.594
27599WAT     H183039   5.528   9.539   3.689
27599WAT     H283040   5.557   9.425   3.576
27600WAT      O83041   0.385   0.894   8.635
27600WAT     H183042   0.331   0.826   8.685
27600WAT     H283043   0.465   0.850   8.595
27601WAT      O83044   9.261   5.349   7.955
27601WAT     H183045   9.349   5.387   7.927
27601WAT     H283046   9.237   5.274   7.894
27602WAT      O83047   2.028   5.700   9.285
27602WAT     H183048   1.990   5.636   9.218
27602WAT     H283049   1.956   5.761   9.317
27603WAT      O83050   5.698   2.921   0.611
27603WAT     H183051   5.683   2.828   0.644
27603WAT     H283052   5.747   2.918   0.524
27604WAT      O83053   9.321   8.328   5.228
27604WAT     H183054   9.320   8.417   5.183
27604WAT     H283055   9.357   8.337   5.321
27605WAT      O83056   4.514   6.517   6.661
27605WAT     H183057   4.601   6.468   6.666
27605WAT     H283058   4.482   6.536   6.754
27606WAT      O83059   3.286   8.473   2.758
27606WAT     H183060   3.312   8.524   2.676
27606WAT     H283061   3.246   8.385   2.731
27607WAT      O83062   8.831   5.166   3.649
27607WAT     H183063   8.774   5.230   3.597
27607WAT     H283064   8.785   5.142   3.734
27608WAT      O83065   6.660   6.952   2.959
27608WAT     H183066   6.589   6.882   2.964
27608WAT     H283067   6.740   6.923   3.013
27609WAT      O83068   6.685   9.833   1.578
27609WAT     H183069   6.783   9.823   1.595
27609WAT     H283070   6.653   9.919   1.619
27610WAT      O83071   0.695   4.668   4.413
27610WAT     H183072   0.607   4.715   4.408
27610WAT     H283073   0.680   4.569   4.420
27611WAT      O83074   8.189   5.537   2.249
27611WAT     H183075   8.287   5.559   2.242
27611WAT     H283076   8.147   5.543   2.159
27612WAT      O83077   6.564   6.019   2.650
27612WAT     H183078   6.501   5.952   2.691
27612WAT     H283079   6.521   6.109   2.649
27613WAT      O83080   7.077   5.619   6.337
27613WAT     H183081   7.046   5.692   6.399
27613WAT     H283082   7.074   5.652   6.243
27614WAT      O83083   5.703   2.342   5.703
27614WAT     H183084   5.750   2.411   5.758
27614WAT     H283085   5.620   2.382   5.663
27615WAT      O83086   2.048   8.012   5.549
27615WAT     H183087   2.088   7.957   5.476
27615WAT     H283088   2.120   8.039   5.613
27616WAT      O83089   2.857   4.858   0.724
27616WAT     H183090   2.943   4.815   0.695
27616WAT     H283091   2.856   4.953   0.694
27617WAT      O83092   8.821   1.444   3.734
27617WAT     H183093   8.728   1.430   3.698
27617WAT     H283094   8.832   1.392   3.818
27618WAT      O83095   3.224   1.422   1.717
27618WAT     H183096   3.132   1.439   1.682
27618WAT     H283097   3.286   1.402   1.641
27619WAT      O83098   6.332   3.107   5.099
27619WAT     H183099   6.357   3.039   5.168
27619WAT     H283100   6.298   3.189   5.144
27620WAT      O83101   9.546   5.432   7.141
27620WAT     H183102   9.602   5.430   7.224
27620WAT     H283103   9.592   5.486   7.071
27621WAT      O83104   5.167   2.311   7.962
27621WAT     H183105   5.092   2.357   8.009
27621WAT     H283106   5.181   2.220   8.002
27622WAT      O83107   1.802   5.277   9.711
27622WAT     H183108   1.772   5.372   9.700
27622WAT     H283109   1.862   5.252   9.635
27623WAT      O83110   0.378   9.659   4.450
27623WAT     H183111   0.351   9.751   4.422
27623WAT     H283112   0.427   9.615   4.375
27624WAT      O83113   4.824   5.365   5.864
27624WAT     H183114   4.917   5.358   5.826
27624WAT     H283115   4.807   5.460   5.891
27625WAT      O83116   5.893   5.277   8.939
27625WAT     H183117   5.822   5.251   9.005
27625WAT     H283118   5.926   5.369   8.961
27626WAT      O83119   9.113   0.703   8.893
27626WAT     H183120   9.110   0.781   8.830
27626WAT     H283121   9.208   0.686   8.919
27627WAT      O83122   8.032   0.340   6.074
27627WAT     H183123   8.027   0.281   6.154
27627WAT     H283124   8.127   0.355   6.049
27628WAT      O83125   9.616   6.891   8.698
27628WAT     H183126   9.710   6.917   8.676
27628WAT     H283127   9.612   6.855   8.791
27629WAT      O83128   1.481   8.710   9.393
27629WAT     H183129   1.398   8.655   9.403
27629WAT     H283130   1.455   8.805   9.374
27630WAT      O83131   8.592   2.726   7.940
27630WAT     H183132   8.647   2.790   7.995
27630WAT     H283133   8.557   2.774   7.860
27631WAT      O83134   7.139   2.188   4.915
27631WAT     H183135   7.231   2.170   4.949
27631WAT     H283136   7.083   2.225   4.988
27632WAT      O83137   7.132   6.238   6.694
27632WAT     H183138   7.204   6.293   6.652
27632WAT     H283139   7.051   6.238   6.635
27633WAT      O83140   9.002   5.185   9.362
27633WAT     H183141   9.032   5.279   9.346
27633WAT     H283142   9.069   5.138   9.420
27634WAT      O83143   3.444   2.413   4.211
27634WAT     H183144   3.470   2.344   4.278
27634WAT     H283145   3.458   2.504   4.249
27635WAT      O83146   6.845   0.349   7.406
27635WAT     H183147   6.916   0.317   7.342
27635WAT     H283148   6.883   0.355   7.498
27636WAT      O83149   4.699   4.836   0.857
27636WAT     H183150   4.719   4.916   0.914
27636WAT     H283151   4.714   4.858   0.761
27637WAT      O83152   4.536   4.521   1.079
27637WAT     H183153   4.619   4.517   1.025
27637WAT     H283154   4.474   4.589   1.041
27638WAT      O83155   6.280   0.792   3.073
27638WAT     H183156   6.188   0.786   3.111
27638WAT     H283157   6.318   0.883   3.090
27639WAT      O83158   9.672   8.099   4.260
27639WAT     H183159   9.740   8.083   4.189
27639WAT     H283160   9.686   8.189   4.300
27640WAT      O83161   3.601   3.522   0.357
27640WAT     H183162   3.552   3.449   0.309
27640WAT     H283163   3.590   3.510   0.456
27641WAT      O83164   0.316   3.667   3.617
27641WAT     H183165   0.216   3.666   3.625
27641WAT     H283166   0.355   3.707   3.699
27642WAT      O83167   1.680   8.686   7.531
27642WAT     H183168   1.711   8.637   7.449
27642WAT     H283169   1.629   8.768   7.503
27643WAT      O83170   6.147   6.023   2.512
27643WAT     H183171   6.099   6.104   2.480
27643WAT     H283172   6.190   5.976   2.435
27644WAT      O83173   2.422   3.549   9.471
27644WAT     H183174   2.515   3.515   9.471
27644WAT     H283175   2.381   3.534   9.381
27645WAT      O83176   3.568   8.112   3.981
27645WAT     H183177   3.555   8.157   4.070
27645WAT     H283178   3.649   8.150   3.937
27646WAT      O83179   4.668   6.652   8.515
27646WAT     H183180   4.675   6.683   8.610
27646WAT     H283181   4.618   6.721   8.462
27647WAT      O83182   6.235   7.883   5.544
27647WAT     H183183   6.306   7.887   5.473
27647WAT     H283184   6.266   7.825   5.619
27648WAT      O83185   7.819   1.586   8.276
27648WAT     H183186   7.811   1.621   8.183
27648WAT     H283187   7.876   1.503   8.276
27649WAT      O83188   3.011   0.811   4.642
27649WAT     H183189   2.953   0.820   4.722
27649WAT     H283190   3.032   0.902   4.606
27650WAT      O83191   3.919   0.903   7.334
27650WAT     H183192   3.944   0.811   7.303
27650WAT     H283193   3.944   0.914   7.430
27651WAT      O83194   9.027   9.442   7.979
27651WAT     H183195   9.018   9.353   7.934
27651WAT     H283196   9.063   9.429   8.072
27652WAT      O83197   2.199   4.771   1.112
27652WAT     H183198   2.149   4.686   1.124
27652WAT     H283199   2.285   4.753   1.065
27653WAT      O83200   3.110   0.801   1.431
27653WAT     H183201   3.091   0.808   1.529
27653WAT     H283202   3.106   0.705   1.403
27654WAT      O83203   5.446   5.274   7.683
27654WAT     H183204   5.396   5.206   7.736
27654WAT     H283205   5.520   5.229   7.632
27655WAT      O83206   5.064   1.819   5.172
27655WAT     H183207   5.136   1.879   5.206
27655WAT     H283208   5.104   1.746   5.117
27656WAT      O83209   8.299   7.957   4.611
27656WAT     H183210   8.209   7.928   4.578
27656WAT     H283211   8.370   7.899   4.570
27657WAT      O83212   3.706   3.631   9.043
27657WAT     H183213   3.772   3.693   9.000
27657WAT     H283214   3.622   3.629   8.989
27658WAT      O83215   3.666   1.368   1.414
27658WAT     H183216   3.717   1.299   1.466
27658WAT     H283217   3.686   1.459   1.451
27659WAT      O83218   1.375   3.439   5.305
27659WAT     H183219   1.397   3.473   5.214
27659WAT     H283220   1.411   3.347   5.317
27660WAT      O83221   2.651   4.293   5.715
27660WAT     H183222   2.600   4.304   5.630
27660WAT     H283223   2.728   4.231   5.700
27661WAT      O83224   8.378   5.180   4.396
27661WAT     H183225   8.412   5.095   4.357
27661WAT     H283226   8.379   5.175   4.495
27662WAT      O83227   0.346   4.966   5.978
27662WAT     H183228   0.425   4.960   6.040
27662WAT     H283229   0.262   4.954   6.031
27663WAT      O83230   6.330   4.382   0.918
27663WAT     H183231   6.316   4.420   0.826
27663WAT     H283232   6.339   4.456   0.984
27664WAT      O83233   1.559   2.285   8.545
27664WAT     H183234   1.631   2.221   8.573
27664WAT     H283235   1.522   2.257   8.456
27665WAT      O83236   7.430   2.401   4.375
27665WAT     H183237   7.368   2.367   4.445
27665WAT     H283238   7.501   2.332   4.357
27666WAT      O83239   5.016   8.809   9.421
27666WAT     H183240   4.995   8.826   9.518
27666WAT     H283241   4.946   8.750   9.382
27667WAT      O83242   8.078   5.637   5.058
27667WAT     H183243   8.116   5.549   5.032
27667WAT     H283244   8.119   5.667   5.144
27668WAT      O83245   4.768   5.167   8.556
27668WAT     H183246   4.673   5.176   8.586
27668WAT     H283247   4.780   5.082   8.505
27669WAT      O83248   3.574   1.597   6.833
27669WAT     H183249   3.477   1.592   6.809
27669WAT     H283250   3.585   1.575   6.930
27670WAT      O83251   1.945   7.918   6.621
27670WAT     H183252   1.901   7.936   6.533
27670WAT     H283253   1.992   8.000   6.652
27671WAT      O83254   0.414   2.313   1.029
27671WAT     H183255   0.445   2.352   1.115
27671WAT     H283256   0.375   2.386   0.972
27672WAT      O83257   2.152   3.412   6.679
27672WAT     H183258   2.176   3.335   6.620
27672WAT     H283259   2.235   3.459   6.707
27673WAT      O83260   8.731   0.455   7.189
27673WAT     H183261   8.794   0.402   7.131
27673WAT     H283262   8.717   0.545   7.149
27674WAT      O83263   5.828   4.078   6.959
27674WAT     H183264   5.886   4.014   7.011
27674WAT     H283265   5.754   4.027   6.915
27675WAT      O83266   6.258   6.608   6.054
27675WAT     H183267   6.245   6.660   5.970
27675WAT     H283268   6.220   6.516   6.043
27676WAT      O83269   5.960   3.365   2.503
27676WAT     H183270   5.948   3.363   2.602
27676WAT     H283271   6.024   3.439   2.479
27677WAT      O83272   1.212   4.221   8.585
27677WAT     H183273   1.245   4.301   8.636
27677WAT     H283274   1.206   4.245   8.488
27678WAT      O83275   9.879   7.062   4.370
27678WAT     H183276   9.965   7.094   4.409
27678WAT     H283277   9.851   6.977   4.415
27679WAT      O83278   5.957   6.200   2.454
27679WAT     H183279   5.954   6.197   2.354
27679WAT     H283280   5.866   6.223   2.489
27680WAT      O83281   1.980   5.475   2.338
27680WAT     H183282   1.997   5.452   2.434
27680WAT     H283283   1.934   5.399   2.293
27681WAT      O83284   8.492   5.573   3.372
27681WAT     H183285   8.564   5.621   3.321
27681WAT     H283286   8.451   5.503   3.314
27682WAT      O83287   8.221   2.051   4.584
27682WAT     H183288   8.195   2.131   4.638
27682WAT     H283289   8.304   2.010   4.623
27683WAT      O83290   2.273   6.914   5.437
27683WAT     H183291   2.339   6.958   5.497
27683WAT     H283292   2.189   6.969   5.433
27684WAT      O83293   3.601   9.348   6.070
27684WAT     H183294   3.502   9.347   6.055
27684WAT     H283295   3.643   9.416   6.010
27685WAT      O83296   5.878   7.813   7.254
27685WAT     H183297   5.781   7.833   7.262
27685WAT     H283298   5.890   7.721   7.216
27686WAT      O83299   3.046   3.046   8.736
27686WAT     H183300   3.038   3.141   8.766
27686WAT     H283301   2.955   3.012   8.710
27687WAT      O83302   0.703   2.233   7.289
27687WAT     H183303   0.765   2.167   7.332
27687WAT     H283304   0.714   2.322   7.332
27688WAT      O83305   2.900   7.476   5.787
27688WAT     H183306   2.969   7.408   5.764
27688WAT     H283307   2.924   7.564   5.747
27689WAT      O83308   0.786   8.188   6.784
27689WAT     H183309   0.740   8.203   6.696
27689WAT     H283310   0.882   8.165   6.767
27690WAT      O83311   0.809   6.736   7.211
27690WAT     H183312   0.883   6.673   7.238
27690WAT     H283313   0.722   6.701   7.244
27691WAT      O83314   3.319   7.037   2.937
27691WAT     H183315   3.245   7.052   3.003
27691WAT     H283316   3.302   7.092   2.856
27692WAT      O83317   1.676   0.966   2.527
27692WAT     H183318   1.678   0.890   2.591
27692WAT     H283319   1.584   0.976   2.489
27693WAT      O83320   1.900   7.776   4.551
27693WAT     H183321   1.895   7.678   4.531
27693WAT     H283322   1.995   7.806   4.549
27694WAT      O83323   6.923   4.718   2.948
27694WAT     H183324   6.957   4.776   3.022
27694WAT     H283325   6.985   4.641   2.936
27695WAT      O83326   6.537   5.216   7.431
27695WAT     H183327   6.443   5.212   7.464
27695WAT     H283328   6.545   5.170   7.343
27696WAT      O83329   2.382   8.822   0.394
27696WAT     H183330   2.411   8.733   0.429
27696WAT     H283331   2.461   8.883   0.386
27697WAT      O83332   9.197   0.392   7.850
27697WAT     H183333   9.226   0.298   7.832
27697WAT     H283334   9.150   0.427   7.769
27698WAT      O83335   0.294   7.743   7.469
27698WAT     H183336   0.339   7.676   7.529
27698WAT     H283337   0.336   7.833   7.482
27699WAT      O83338   6.652   2.836   5.498
27699WAT     H183339   6.568   2.825   5.550
27699WAT     H283340   6.655   2.927   5.458
27700WAT      O83341   2.581   6.023   1.645
27700WAT     H183342   2.583   6.097   1.578
27700WAT     H283343   2.663   5.967   1.636
27701WAT      O83344   1.560   4.486   2.937
27701WAT     H183345   1.597   4.577   2.956
27701WAT     H283346   1.634   4.425   2.909
27702WAT      O83347   9.522   1.412   3.177
27702WAT     H183348   9.555   1.491   3.125
27702WAT     H283349   9.556   1.419   3.271
27703WAT      O83350   8.354   1.149   2.144
27703WAT     H183351   8.359   1.106   2.234
27703WAT     H283352   8.381   1.083   2.074
27704WAT      O83353   3.101   8.108   8.748
27704WAT     H183354   3.077   8.070   8.658
27704WAT     H283355   3.041   8.068   8.817
27705WAT      O83356   4.535   5.229   8.337
27705WAT     H183357   4.525   5.259   8.432
27705WAT     H283358   4.631   5.213   8.317
27706WAT      O83359   5.386   8.781   5.360
27706WAT     H183360   5.375   8.729   5.276
27706WAT     H283361   5.407   8.719   5.435
27707WAT      O83362   8.330   2.344   4.228
27707WAT     H183363   8.347   2.339   4.129
27707WAT     H283364   8.301   2.254   4.261
27708WAT      O83365   6.431   7.206   3.883
27708WAT     H183366   6.518   7.229   3.926
27708WAT     H283367   6.360   7.197   3.953
27709WAT      O83368   7.515   3.088   9.176
27709WAT     H183369   7.609   3.052   9.170
27709WAT     H283370   7.485   3.085   9.271
27710WAT      O83371   3.481   3.844   1.925
27710WAT     H183372   3.395   3.806   1.891
27710WAT     H283373   3.464   3.891   2.011
27711WAT      O83374   2.189   9.649   0.285
27711WAT     H183375   2.255   9.724   0.280
27711WAT     H283376   2.215   9.577   0.221
27712WAT      O83377   6.254   5.392   0.125
27712WAT     H183378   6.160   5.379   0.094
27712WAT     H283379   6.303   5.305   0.124
27713WAT      O83380   2.940   5.958   2.347
27713WAT     H183381   2.967   6.054   2.352
27713WAT     H283382   2.847   5.948   2.384
27714WAT      O83383   5.819   7.651   5.825
27714WAT     H183384   5.881   7.609   5.759
27714WAT     H283385   5.725   7.621   5.807
27715WAT      O83386   7.982   7.620   7.089
27715WAT     H183387   8.000   7.717   7.105
27715WAT     H283388   7.887   7.599   7.114
27716WAT      O83389   3.635   9.234   7.600
27716WAT     H183390   3.619   9.262   7.695
27716WAT     H283391   3.710   9.169   7.597
27717WAT      O83392   6.256   2.388   8.806
27717WAT     H183393   6.165   2.354   8.829
27717WAT     H283394   6.325   2.337   8.857
27718WAT      O83395   0.748   9.119   4.458
27718WAT     H183396   0.759   9.190   4.527
27718WAT     H283397   0.686   9.048   4.492
27719WAT      O83398   2.668   3.296   1.025
27719WAT     H183399   2.719   3.231   0.969
27719WAT     H283400   2.729   3.371   1.051
27720WAT      O83401   3.187   4.353   6.709
27720WAT     H183402   3.206   4.272   6.765
27720WAT     H283403   3.271   4.385   6.666
27721WAT      O83404   5.213   3.552   9.154
27721WAT     H183405   5.121   3.590   9.141
27721WAT     H283406   5.207   3.465   9.201
27722WAT      O83407   8.686   1.396   4.747
27722WAT     H183408   8.668   1.460   4.821
27722WAT     H283409   8.679   1.443   4.659
27723WAT      O83410   0.434   9.068   2.571
27723WAT     H183411   0.338   9.089   2.557
27723WAT     H283412   0.443   9.002   2.646
27724WAT      O83413   0.974   3.008   6.488
27724WAT     H183414   0.921   3.067   6.549
27724WAT     H283415   0.975   2.915   6.524
27725WAT      O83416   3.749   2.104   1.547
27725WAT     H183417   3.738   2.167   1.470
27725WAT     H283418   3.689   2.131   1.622
27726WAT      O83419   9.356   8.020   6.925
27726WAT     H183420   9.432   8.007   6.862
27726WAT     H283421   9.388   8.005   7.019
27727WAT      O83422   2.200   9.797   9.308
27727WAT     H183423   2.182   9.861   9.233
27727WAT     H283424   2.161   9.834   9.393
27728WAT      O83425   3.698   7.521   0.757
27728WAT     H183426   3.643   7.474   0.826
27728WAT     H283427   3.638   7.564   0.690
27729WAT      O83428   3.338   3.628   5.957
27729WAT     H183429   3.254   3.671   5.925
27729WAT     H283430   3.353   3.650   6.054
27730WAT      O83431   3.607   0.919   1.372
27730WAT     H183432   3.634   0.959   1.459
27730WAT     H283433   3.574   0.990   1.310
27731WAT      O83434   0.711   8.796   9.140
27731WAT     H183435   0.802   8.784   9.178
27731WAT     H283436   0.700   8.740   9.058
27732WAT      O83437   1.260   1.554   6.707
27732WAT     H183438   1.274   1.460   6.740
27732WAT     H283439   1.343   1.585   6.660
27733WAT      O83440   0.215   9.331   9.509
27733WAT     H183441   0.280   9.395   9.550
27733WAT     H283442   0.127   9.338   9.556
27734WAT      O83443   9.162   1.712   0.333
27734WAT     H183444   9.127   1.727   0.425
27734WAT     H283445   9.191   1.616   0.324
27735WAT      O83446   0.217   1.419   8.051
27735WAT     H183447   0.282   1.371   8.110
27735WAT     H283448   0.126   1.378   8.061
27736WAT      O83449   7.089   9.838   9.676
27736WAT     H183450   7.078   9.777   9.597
27736WAT     H283451   7.167   9.899   9.659
27737WAT      O83452   8.950   7.148   9.483
27737WAT     H183453   8.909   7.062   9.451
27737WAT     H283454   8.879   7.206   9.523
27738WAT      O83455   3.827   7.372   1.075
27738WAT     H183456   3.804   7.469   1.081
27738WAT     H283457   3.922   7.362   1.047
27739WAT      O83458   5.531   0.143   6.493
27739WAT     H183459   5.483   0.145   6.580
27739WAT     H283460   5.623   0.106   6.506
27740WAT      O83461   7.121   8.916   8.063
27740WAT     H183462   7.108   8.826   8.023
27740WAT     H283463   7.045   8.976   8.039
27741WAT      O83464   8.655   1.363   7.315
27741WAT     H183465   8.562   1.369   7.278
27741WAT     H283466   8.708   1.297   7.260
27742WAT      O83467   5.842   1.296   8.812
27742WAT     H183468   5.868   1.374   8.869
27742WAT     H283469   5.827   1.216   8.870
27743WAT      O83470   0.860   6.237   1.614
27743WAT     H183471   0.789   6.218   1.682
27743WAT     H283472   0.839   6.324   1.568
27744WAT      O83473   7.177   8.666   9.562
27744WAT     H183474   7.131   8.674   9.473
27744WAT     H283475   7.161   8.749   9.615
27745WAT      O83476   4.340   3.342   8.177
27745WAT     H183477   4.341   3.394   8.263
27745WAT     H283478   4.359   3.404   8.101
27746WAT      O83479   3.916   4.775   1.248
27746WAT     H183480   3.972   4.736   1.321
27746WAT     H283481   3.976   4.820   1.181
27747WAT      O83482   5.165   5.457   8.117
27747WAT     H183483   5.148   5.519   8.040
27747WAT     H283484   5.130   5.498   8.201
27748WAT      O83485   5.133   6.987   3.601
27748WAT     H183486   5.134   6.936   3.516
27748WAT     H283487   5.065   7.060   3.595
27749WAT      O83488   8.295   9.400   7.458
27749WAT     H183489   8.310   9.447   7.545
27749WAT     H283490   8.200   9.370   7.452
27750WAT      O83491   2.098   3.565   3.048
27750WAT     H183492   2.061   3.604   3.132
27750WAT     H283493   2.040   3.488   3.019
27751WAT      O83494   5.490   0.370   0.305
27751WAT     H183495   5.470   0.278   0.272
27751WAT     H283496   5.448   0.437   0.244
27752WAT      O83497   0.814   7.939   3.008
27752WAT     H183498   0.912   7.926   2.995
27752WAT     H283499   0.792   8.036   3.002
27753WAT      O83500   1.239   2.690   8.086
27753WAT     H183501   1.301   2.749   8.033
27753WAT     H283502   1.158   2.670   8.031
27754WAT      O83503   9.248   5.071   9.111
27754WAT     H183504   9.322   5.078   9.044
27754WAT     H283505   9.192   4.991   9.092
27755WAT      O83506   3.198   2.714   3.549
27755WAT     H183507   3.176   2.805   3.513
27755WAT     H283508   3.145   2.645   3.501
27756WAT      O83509   2.608   7.738   7.847
27756WAT     H183510   2.558   7.805   7.792
27756WAT     H283511   2.641   7.664   7.789
27757WAT      O83512   7.375   7.458   8.172
27757WAT     H183513   7.470   7.468   8.203
27757WAT     H283514   7.315   7.510   8.233
27758WAT      O83515   3.279   4.991   2.746
27758WAT     H183516   3.251   4.903   2.783
27758WAT     H283517   3.309   4.980   2.651
27759WAT      O83518   8.786   9.019   9.632
27759WAT     H183519   8.695   8.997   9.667
27759WAT     H283520   8.836   9.072   9.700
27760WAT      O83521   2.490   5.388   6.683
27760WAT     H183522   2.479   5.302   6.633
27760WAT     H283523   2.498   5.368   6.781
27761WAT      O83524   7.967   9.301   8.908
27761WAT     H183525   8.050   9.325   8.958
27761WAT     H283526   7.982   9.311   8.810
27762WAT      O83527   0.276   6.829   0.433
27762WAT     H183528   0.297   6.745   0.383
27762WAT     H283529   0.282   6.908   0.371
27763WAT      O83530   3.333   4.936   6.170
27763WAT     H183531   3.254   4.883   6.202
27763WAT     H283532   3.302   5.001   6.100
27764WAT      O83533   0.910   4.779   9.742
27764WAT     H183534   0.887   4.689   9.778
27764WAT     H283535   0.828   4.836   9.738
27765WAT      O83536   7.045   8.091   5.114
27765WAT     H183537   7.105   8.039   5.053
27765WAT     H283538   7.085   8.182   5.129
27766WAT      O83539   3.398   1.237   2.412
27766WAT     H183540   3.449   1.155   2.385
27766WAT     H283541   3.406   1.249   2.511
27767WAT      O83542   5.524   8.085   3.786
27767WAT     H183543   5.504   8.030   3.704
27767WAT     H283544   5.584   8.033   3.847
27768WAT      O83545   5.304   2.818   4.937
27768WAT     H183546   5.370   2.754   4.897
27768WAT     H283547   5.340   2.852   5.023
27769WAT      O83548   1.651   6.260   1.556
27769WAT     H183549   1.672   6.202   1.635
27769WAT     H283550   1.681   6.354   1.576
27770WAT      O83551   0.997   9.769   2.861
27770WAT     H183552   0.987   9.800   2.955
27770WAT     H283553   0.957   9.678   2.852
27771WAT      O83554   1.304   9.275   4.225
27771WAT     H183555   1.330   9.340   4.296
27771WAT     H283556   1.207   9.285   4.204
27772WAT      O83557   8.201   2.930   8.692
27772WAT     H183558   8.151   2.958   8.610
27772WAT     H283559   8.139   2.933   8.771
27773WAT      O83560   5.731   8.572   1.108
27773WAT     H183561   5.657   8.506   1.118
27773WAT     H283562   5.815   8.524   1.081
27774WAT      O83563   8.380   2.077   3.525
27774WAT     H183564   8.455   2.133   3.561
27774WAT     H283565   8.320   2.049   3.599
27775WAT      O83566   3.619   3.912   8.208
27775WAT     H183567   3.695   3.850   8.190
27775WAT     H283568   3.608   3.975   8.132
27776WAT      O83569   5.323   7.465   2.788
27776WAT     H183570   5.291   7.374   2.760
27776WAT     H283571   5.339   7.521   2.707
27777WAT      O83572   3.491   2.918   3.213
27777WAT     H183573   3.585   2.894   3.190
27777WAT     H283574   3.471   2.889   3.307
27778WAT      O83575   6.573   0.182   7.673
27778WAT     H183576   6.618   0.143   7.592
27778WAT     H283577   6.558   0.109   7.740
27779WAT      O83578   9.775   5.147   8.644
27779WAT     H183579   9.777   5.048   8.653
27779WAT     H283580   9.869   5.182   8.641
27780WAT      O83581   3.012   6.906   7.959
27780WAT     H183582   3.074   6.977   7.927
27780WAT     H283583   2.918   6.936   7.948
27781WAT      O83584   3.329   3.791   3.820
27781WAT     H183585   3.414   3.791   3.767
27781WAT     H283586   3.266   3.858   3.781
27782WAT      O83587   6.577   3.712   0.709
27782WAT     H183588   6.478   3.704   0.698
27782WAT     H283589   6.610   3.792   0.660
27783WAT      O83590   5.908   3.664   7.903
27783WAT     H183591   5.962   3.641   7.823
27783WAT     H283592   5.933   3.604   7.979
27784WAT      O83593   4.253   4.494   7.045
27784WAT     H183594   4.242   4.471   7.142
27784WAT     H283595   4.257   4.410   6.991
27785WAT      O83596   8.042   4.732   8.135
27785WAT     H183597   8.099   4.662   8.092
27785WAT     H283598   7.985   4.690   8.206
27786WAT      O83599   2.951   4.930   3.410
27786WAT     H183600   2.859   4.911   3.375
27786WAT     H283601   3.018   4.919   3.337
27787WAT      O83602   1.901   6.323   5.962
27787WAT     H183603   1.811   6.354   5.991
27787WAT     H283604   1.926   6.239   6.011
27788WAT      O83605   0.193   9.034   0.062
27788WAT     H183606   0.219   9.069   0.152
27788WAT     H283607   0.210   8.935   0.060
27789WAT      O83608   4.895   4.720   7.702
27789WAT     H183609   4.899   4.703   7.800
27789WAT     H283610   4.802   4.747   7.676
27790WAT      O83611   4.749   8.684   2.864
27790WAT     H183612   4.762   8.646   2.956
27790WAT     H283613   4.673   8.637   2.819
27791WAT      O83614   8.922   4.021   6.097
27791WAT     H183615   8.895   3.942   6.152
27791WAT     H283616   8.886   4.011   6.005
27792WAT      O83617   3.982   7.618   2.760
27792WAT     H183618   3.994   7.710   2.797
27792WAT     H283619   3.939   7.625   2.670
27793WAT      O83620   8.463   3.119   2.423
27793WAT     H183621   8.520   3.037   2.420
27793WAT     H283622   8.472   3.163   2.513
27794WAT      O83623   8.569   3.811   8.675
27794WAT     H183624   8.487   3.809   8.731
27794WAT     H283625   8.624   3.729   8.693
27795WAT      O83626   0.721   9.215   8.297
27795WAT     H183627   0.746   9.178   8.207
27795WAT     H283628   0.787   9.183   8.365
27796WAT      O83629   8.819   2.150   4.075
27796WAT     H183630   8.723   2.144   4.048
27796WAT     H283631   8.870   2.201   4.005
27797WAT      O83632   0.250   2.974   3.801
27797WAT     H183633   0.191   3.020   3.735
27797WAT     H283634   0.211   2.981   3.893
27798WAT      O83635   6.836   2.684   5.361
27798WAT     H183636   6.761   2.731   5.406
27798WAT     H283637   6.881   2.623   5.426
27799WAT      O83638   9.196   1.693   8.168
27799WAT     H183639   9.165   1.788   8.172
27799WAT     H283640   9.272   1.680   8.232
27800WAT      O83641   5.962   0.114   6.278
27800WAT     H183642   6.047   0.142   6.235
27800WAT     H283643   5.939   0.021   6.250
27801WAT      O83644   8.127   9.740   7.475
27801WAT     H183645   8.040   9.744   7.425
27801WAT     H283646   8.197   9.791   7.425
27802WAT      O83647   5.113   7.341   3.606
27802WAT     H183648   5.148   7.401   3.534
27802WAT     H283649   5.028   7.298   3.576
27803WAT      O83650   3.425   2.663   3.036
27803WAT     H183651   3.355   2.707   3.093
27803WAT     H283652   3.508   2.649   3.090
27804WAT      O83653   1.789   5.610   1.011
27804WAT     H183654   1.738   5.614   1.097
27804WAT     H283655   1.728   5.584   0.937
27805WAT      O83656   5.901   0.385   0.060
27805WAT     H183657   5.836   0.410   0.131
27805WAT     H283658   5.989   0.429   0.078
27806WAT      O83659   5.494   7.791   9.758
27806WAT     H183660   5.452   7.704   9.782
27806WAT     H283661   5.574   7.807   9.817
27807WAT      O83662   4.370   0.817   0.138
27807WAT     H183663   4.431   0.836   0.061
27807WAT     H283664   4.370   0.719   0.157
27808WAT      O83665   4.404   2.760   0.067
27808WAT     H183666   4.469   2.826   0.029
27808WAT     H283667   4.368   2.702  -0.006
27809WAT      O83668   4.088   6.821   3.871
27809WAT     H183669   4.119   6.785   3.958
27809WAT     H283670   3.989   6.812   3.864
27810WAT      O83671   6.578   2.635   5.999
27810WAT     H183672   6.664   2.590   6.022
27810WAT     H283673   6.589   2.687   5.915
27811WAT      O83674   7.990   9.248   8.024
27811WAT     H183675   8.007   9.153   8.047
27811WAT     H283676   8.055   9.279   7.955
27812WAT      O83677   9.488   1.368   0.751
27812WAT     H183678   9.556   1.299   0.725
27812WAT     H283679   9.507   1.398   0.845
27813WAT      O83680   4.372   1.191   8.991
27813WAT     H183681   4.404   1.282   8.965
27813WAT     H283682   4.448   1.140   9.033
27814WAT      O83683   8.210   4.482   1.266
27814WAT     H183684   8.271   4.416   1.221
27814WAT     H283685   8.205   4.565   1.211
27815WAT      O83686   0.238   6.560   0.831
27815WAT     H183687   0.242   6.463   0.808
27815WAT     H283688   0.224   6.614   0.748
27816WAT      O83689   6.890   9.748   7.085
27816WAT     H183690   6.848   9.681   7.026
27816WAT     H283691   6.986   9.725   7.100
27817WAT      O83692   0.631   7.734   6.397
27817WAT     H183693   0.595   7.811   6.450
27817WAT     H283694   0.563   7.706   6.328
27818WAT      O83695   6.136   8.123   9.756
27818WAT     H183696   6.053   8.094   9.709
27818WAT     H283697   6.165   8.052   9.820
27819WAT      O83698   7.609   5.127   2.119
27819WAT     H183699   7.523   5.078   2.135
27819WAT     H283700   7.630   5.183   2.199
27820WAT      O83701   6.360   4.597   7.244
27820WAT     H183702   6.429   4.660   7.281
27820WAT     H283703   6.280   4.596   7.304
27821WAT      O83704   6.674   1.901   7.780
27821WAT     H183705   6.735   1.906   7.701
27821WAT     H283706   6.621   1.985   7.787
27822WAT      O83707   2.757   0.111   8.351
27822WAT     H183708   2.674   0.122   8.296
27822WAT     H283709   2.740   0.143   8.444
27823WAT      O83710   9.695   2.302   7.412
27823WAT     H183711   9.743   2.341   7.334
27823WAT     H283712   9.689   2.203   7.401
27824WAT      O83713   3.675   3.400   6.186
27824WAT     H183714   3.652   3.491   6.220
27824WAT     H283715   3.596   3.340   6.194
27825WAT      O83716   8.177   0.926   7.766
27825WAT     H183717   8.079   0.926   7.748
27825WAT     H283718   8.216   0.838   7.739
27826WAT      O83719   9.286   6.708   2.488
27826WAT     H183720   9.192   6.707   2.454
27826WAT     H283721   9.349   6.727   2.412
27827WAT      O83722   2.134   0.957   6.703
27827WAT     H183723   2.083   0.899   6.766
27827WAT     H283724   2.232   0.945   6.718
27828WAT      O83725   9.872   8.616   0.789
27828WAT     H183726   9.909   8.588   0.701
27828WAT     H283727   9.773   8.628   0.781
27829WAT      O83728   1.569   3.297   1.514
27829WAT     H183729   1.594   3.231   1.442
27829WAT     H283730   1.646   3.308   1.576
27830WAT      O83731   3.888   0.687   0.342
27830WAT     H183732   3.893   0.708   0.440
27830WAT     H283733   3.896   0.588   0.329
27831WAT      O83734   2.350   6.955   0.033
27831WAT     H183735   2.448   6.949   0.051
27831WAT     H283736   2.334   7.007  -0.051
27832WAT      O83737   1.340   9.797   5.028
27832WAT     H183738   1.390   9.796   5.114
27832WAT     H283739   1.377   9.727   4.967
27833WAT      O83740   8.269   3.900   8.586
27833WAT     H183741   8.344   3.953   8.547
27833WAT     H283742   8.295   3.866   8.676
27834WAT      O83743   8.115   5.963   9.071
27834WAT     H183744   8.184   5.891   9.056
27834WAT     H283745   8.024   5.923   9.067
27835WAT      O83746   1.836   3.560   9.066
27835WAT     H183747   1.933   3.586   9.061
27835WAT     H283748   1.782   3.639   9.095
27836WAT      O83749   3.455   2.776   3.431
27836WAT     H183750   3.429   2.799   3.525
27836WAT     H283751   3.373   2.752   3.379
27837WAT      O83752   2.109   4.572   8.466
27837WAT     H183753   2.120   4.515   8.547
27837WAT     H283754   2.141   4.665   8.486
27838WAT      O83755   6.917   5.275   4.704
27838WAT     H183756   6.886   5.274   4.799
27838WAT     H283757   6.935   5.182   4.673
27839WAT      O83758   8.445   0.016   7.302
27839WAT     H183759   8.477   0.100   7.258
27839WAT     H283760   8.469  -0.063   7.245
27840WAT      O83761   1.387   6.639   2.953
27840WAT     H183762   1.326   6.658   3.031
27840WAT     H283763   1.404   6.724   2.903
27841WAT      O83764   0.723   2.269   9.211
27841WAT     H183765   0.641   2.316   9.177
27841WAT     H283766   0.784   2.336   9.253
27842WAT      O83767   5.561   4.601   6.193
27842WAT     H183768   5.536   4.527   6.131
27842WAT     H283769   5.660   4.617   6.188
27843WAT      O83770   6.131   7.467   8.204
27843WAT     H183771   6.041   7.424   8.197
27843WAT     H283772   6.188   7.415   8.268
27844WAT      O83773   5.034   8.482   9.367
27844WAT     H183774   5.097   8.529   9.428
27844WAT     H283775   4.940   8.497   9.398
27845WAT      O83776   0.031   5.054   2.767
27845WAT     H183777  -0.048   5.112   2.748
27845WAT     H283778   0.076   5.085   2.851
27846WAT      O83779   5.099   6.515   5.671
27846WAT     H183780   5.123   6.480   5.580
27846WAT     H283781   5.002   6.538   5.674
27847WAT      O83782   2.731   4.389   1.804
27847WAT     H183783   2.641   4.402   1.763
27847WAT     H283784   2.726   4.318   1.875
27848WAT      O83785   6.089   3.713   1.233
27848WAT     H183786   5.998   3.742   1.260
27848WAT     H283787   6.086   3.674   1.141
27849WAT      O83788   1.740   8.222   1.938
27849WAT     H183789   1.764   8.236   1.842
27849WAT     H283790   1.824   8.221   1.993
27850WAT      O83791   0.298   0.314   5.594
27850WAT     H183792   0.205   0.299   5.626
27850WAT     H283793   0.315   0.413   5.586
27851WAT      O83794   9.619   3.816   7.549
27851WAT     H183795   9.608   3.821   7.450
27851WAT     H283796   9.589   3.726   7.581
27852WAT      O83797   2.921   2.924   6.847
27852WAT     H183798   2.999   2.862   6.839
27852WAT     H283799   2.948   3.016   6.818
27853WAT      O83800   3.588   8.121   7.089
27853WAT     H183801   3.506   8.152   7.041
27853WAT     H283802   3.666   8.124   7.026
27854WAT      O83803   9.049   4.758   1.961
27854WAT     H183804   9.030   4.704   1.879
27854WAT     H283805   8.963   4.784   2.004
27855WAT      O83806   5.464   7.680   3.772
27855WAT     H183807   5.441   7.585   3.790
27855WAT     H283808   5.381   7.733   3.758
27856WAT      O83809   9.503   1.639   0.218
27856WAT     H183810   9.482   1.716   0.277
27856WAT     H283811   9.590   1.655   0.171
27857WAT      O83812   9.631   1.543   5.287
27857WAT     H183813   9.597   1.584   5.372
27857WAT     H283814   9.580   1.581   5.209
27858WAT      O83815   2.971   0.091   9.667
27858WAT     H183816   2.903   0.084   9.594
27858WAT     H283817   3.015   0.002   9.679
27859WAT      O83818   6.781   3.543   8.663
27859WAT     H183819   6.683   3.536   8.644
27859WAT     H283820   6.795   3.578   8.756
27860WAT      O83821   3.101   1.186   1.776
27860WAT     H183822   3.005   1.212   1.765
27860WAT     H283823   3.159   1.259   1.740
27861WAT      O83824   6.148   1.325   8.654
27861WAT     H183825   6.194   1.243   8.619
27861WAT     H283826   6.052   1.304   8.672
27862WAT      O83827   3.724   1.240   7.778
27862WAT     H183828   3.799   1.204   7.723
27862WAT     H283829   3.760   1.302   7.848
27863WAT      O83830   4.161   0.931   0.266
27863WAT     H183831   4.219   0.889   0.196
27863WAT     H283832   4.078   0.966   0.223
27864WAT      O83833   5.336   7.452   1.798
27864WAT     H183834   5.255   7.400   1.825
27864WAT     H283835   5.382   7.486   1.880
27865WAT      O83836   4.368   5.083   4.404
27865WAT     H183837   4.437   5.139   4.449
27865WAT     H283838   4.389   5.076   4.306
27866WAT      O83839   2.687   3.752   5.478
27866WAT     H183840   2.682   3.662   5.436
27866WAT     H283841   2.611   3.764   5.542
27867WAT      O83842   4.687   6.886   5.447
27867WAT     H183843   4.630   6.959   5.411
27867WAT     H283844   4.637   6.837   5.518
27868WAT      O83845   7.982   3.865   4.212
27868WAT     H183846   8.081   3.853   4.219
27868WAT     H283847   7.946   3.806   4.140
27869WAT      O83848   7.208   2.621   3.180
27869WAT     H183849   7.138   2.633   3.250
27869WAT     H283850   7.298   2.618   3.222
27870WAT      O83851   3.719   9.621   9.585
27870WAT     H183852   3.671   9.545   9.629
27870WAT     H283853   3.759   9.680   9.655
27871WAT      O83854   6.126   4.091   9.179
27871WAT     H183855   6.103   4.188   9.177
27871WAT     H283856   6.082   4.045   9.101
27872WAT      O83857   5.283   4.907   6.054
27872WAT     H183858   5.267   4.882   6.149
27872WAT     H283859   5.375   4.947   6.045
27873WAT      O83860   2.551   1.057   7.590
27873WAT     H183861   2.538   1.102   7.502
27873WAT     H283862   2.603   0.973   7.577
27874WAT      O83863   3.888   9.634   5.069
27874WAT     H183864   3.802   9.680   5.049
27874WAT     H283865   3.940   9.623   4.984
27875WAT      O83866   6.718   7.741   0.768
27875WAT     H183867   6.816   7.726   0.765
27875WAT     H283868   6.677   7.685   0.839
27876WAT      O83869   8.367   7.117   9.263
27876WAT     H183870   8.453   7.116   9.314
27876WAT     H283871   8.292   7.085   9.321
27877WAT      O83872   2.014   3.512   2.084
27877WAT     H183873   2.035   3.495   1.987
27877WAT     H283874   1.963   3.434   2.121
27878WAT      O83875   4.697   1.482   3.421
27878WAT     H183876   4.701   1.520   3.514
27878WAT     H283877   4.753   1.399   3.417
27879WAT      O83878   6.494   6.917   3.516
27879WAT     H183879   6.455   7.009   3.506
27879WAT     H283880   6.572   6.907   3.455
27880WAT      O83881   1.687   6.966   9.603
27880WAT     H183882   1.728   7.025   9.672
27880WAT     H283883   1.728   6.876   9.607
27881WAT      O83884   3.871   2.484   1.095
27881WAT     H183885   3.926   2.555   1.052
27881WAT     H283886   3.920   2.397   1.092
27882WAT      O83887   5.986   5.727   1.334
27882WAT     H183888   6.008   5.812   1.286
27882WAT     H283889   6.071   5.684   1.365
27883WAT      O83890   1.880   2.211   4.320
27883WAT     H183891   1.818   2.289   4.323
27883WAT     H283892   1.845   2.138   4.378
27884WAT      O83893   4.591   8.145   6.883
27884WAT     H183894   4.517   8.147   6.815
27884WAT     H283895   4.659   8.214   6.859
27885WAT      O83896   3.556   1.139   2.132
27885WAT     H183897   3.532   1.219   2.077
27885WAT     H283898   3.506   1.060   2.098
27886WAT      O83899   3.968   0.389   8.434
27886WAT     H183900   3.977   0.297   8.396
27886WAT     H283901   3.961   0.455   8.359
27887WAT      O83902   4.663   7.753   2.580
27887WAT     H183903   4.638   7.848   2.595
27887WAT     H283904   4.669   7.734   2.482
27888WAT      O83905   7.659   1.783   6.589
27888WAT     H183906   7.705   1.769   6.676
27888WAT     H283907   7.610   1.700   6.563
27889WAT      O83908   4.722   7.692   1.541
27889WAT     H183909   4.707   7.608   1.592
27889WAT     H283910   4.636   7.743   1.536
27890WAT      O83911   6.380   1.264   9.545
27890WAT     H183912   6.287   1.230   9.557
27890WAT     H283913   6.427   1.265   9.633
27891WAT      O83914   5.457   3.199   4.415
27891WAT     H183915   5.426   3.291   4.390
27891WAT     H283916   5.418   3.132   4.352
27892WAT      O83917   1.686   1.502   0.636
27892WAT     H183918   1.625   1.508   0.557
27892WAT     H283919   1.752   1.577   0.633
27893WAT      O83920   0.265   3.059   1.790
27893WAT     H183921   0.195   3.022   1.728
27893WAT     H283922   0.232   3.053   1.885
27894WAT      O83923   5.092   3.795   6.979
27894WAT     H183924   5.107   3.749   7.066
27894WAT     H283925   5.014   3.857   6.987
27895WAT      O83926   4.580   4.409   9.349
27895WAT     H183927   4.547   4.364   9.266
27895WAT     H283928   4.609   4.502   9.327
27896WAT      O83929   3.116   1.983   0.247
27896WAT     H183930   3.127   1.990   0.346
27896WAT     H283931   3.123   1.887   0.219
27897WAT      O83932   5.651   2.960   3.750
27897WAT     H183933   5.625   2.978   3.655
27897WAT     H283934   5.576   2.914   3.797
27898WAT      O83935   5.269   8.255   4.777
27898WAT     H183936   5.233   8.226   4.866
27898WAT     H283937   5.333   8.186   4.743
27899WAT      O83938   5.362   2.309   4.146
27899WAT     H183939   5.348   2.346   4.238
27899WAT     H283940   5.292   2.240   4.127
27900WAT      O83941   2.764   2.905   8.980
27900WAT     H183942   2.815   2.904   9.066
27900WAT     H283943   2.668   2.881   8.998
27901WAT      O83944   0.918   0.631   6.432
27901WAT     H183945   0.868   0.615   6.517
27901WAT     H283946   0.897   0.721   6.396
27902WAT      O83947   9.184   2.338   8.439
27902WAT     H183948   9.162   2.411   8.374
27902WAT     H283949   9.214   2.378   8.525
27903WAT      O83950   1.314   7.927   8.417
27903WAT     H183951   1.349   7.881   8.498
27903WAT     H283952   1.373   8.005   8.395
27904WAT      O83953   9.424   7.588   8.049
27904WAT     H183954   9.345   7.644   8.074
27904WAT     H283955   9.498   7.646   8.016
27905WAT      O83956   8.906   4.231   8.286
27905WAT     H183957   8.991   4.271   8.250
27905WAT     H283958   8.905   4.133   8.268
27906WAT      O83959   9.242   6.575   7.894
27906WAT     H183960   9.217   6.548   7.987
27906WAT     H283961   9.284   6.498   7.846
27907WAT      O83962   8.432   9.395   1.981
27907WAT     H183963   8.525   9.361   1.990
27907WAT     H283964   8.434   9.495   1.976
27908WAT      O83965   7.397   2.151   8.041
27908WAT     H183966   7.435   2.229   7.992
27908WAT     H283967   7.443   2.067   8.012
27909WAT      O83968   5.885   2.362   1.135
27909WAT     H183969   5.829   2.445   1.133
27909WAT     H283970   5.978   2.385   1.105
27910WAT      O83971   8.616   7.598   3.911
27910WAT     H183972   8.664   7.553   3.986
27910WAT     H283973   8.669   7.676   3.879
27911WAT      O83974   7.809   3.514   9.605
27911WAT     H183975   7.832   3.421   9.632
27911WAT     H283976   7.720   3.516   9.560
27912WAT      O83977   5.017   7.235   4.272
27912WAT     H183978   5.079   7.264   4.344
27912WAT     H283979   5.069   7.191   4.199
27913WAT      O83980   8.058   2.770   9.766
27913WAT     H183981   7.963   2.777   9.735
27913WAT     H283982   8.100   2.860   9.763
27914WAT      O83983   9.460   7.697   9.817
27914WAT     H183984   9.424   7.781   9.776
27914WAT     H283985   9.392   7.624   9.808
27915WAT      O83986   0.178   4.174   2.780
27915WAT     H183987   0.158   4.191   2.876
27915WAT     H283988   0.125   4.237   2.723
27916WAT      O83989   7.668   5.080   8.705
27916WAT     H183990   7.645   5.111   8.797
27916WAT     H283991   7.629   5.143   8.638
27917WAT      O83992   8.706   8.680   6.066
27917WAT     H183993   8.713   8.721   6.156
27917WAT     H283994   8.634   8.609   6.067
27918WAT      O83995   9.632   1.878   4.839
27918WAT     H183996   9.594   1.894   4.748
27918WAT     H283997   9.557   1.871   4.905
27919WAT      O83998   2.707   7.432   2.521
27919WAT     H183999   2.608   7.444   2.524
27919WAT     H284000   2.746   7.493   2.452
27920WAT      O84001   8.609   9.691   4.674
27920WAT     H184002   8.536   9.747   4.713
27920WAT     H284003   8.647   9.736   4.594
27921WAT      O84004   7.391   9.741   0.712
27921WAT     H184005   7.440   9.677   0.771
27921WAT     H284006   7.293   9.738   0.733
27922WAT      O84007   4.312   4.794   3.175
27922WAT     H184008   4.247   4.755   3.110
27922WAT     H284009   4.262   4.826   3.256
27923WAT      O84010   7.590   1.737   1.190
27923WAT     H184011   7.499   1.704   1.214
27923WAT     H284012   7.655   1.709   1.261
27924WAT      O84013   0.744   5.129   7.941
27924WAT     H184014   0.795   5.057   7.989
27924WAT     H284015   0.694   5.184   8.008
27925WAT      O84016   3.287   7.111   8.963
27925WAT     H184017   3.232   7.027   8.957
27925WAT     H284018   3.298   7.136   9.059
27926WAT      O84019   0.360   7.626   8.743
27926WAT     H184020   0.346   7.614   8.645
27926WAT     H284021   0.294   7.569   8.793
27927WAT      O84022   4.650   9.225   1.435
27927WAT     H184023   4.631   9.180   1.522
27927WAT     H284024   4.593   9.307   1.427
27928WAT      O84025   0.402   8.272   1.909
27928WAT     H184026   0.463   8.225   1.973
27928WAT     H284027   0.450   8.288   1.823
27929WAT      O84028   2.871   5.875   9.564
27929WAT     H184029   2.966   5.889   9.534
27929WAT     H284030   2.830   5.801   9.511
27930WAT      O84031   3.573   7.791   7.915
27930WAT     H184032   3.660   7.744   7.928
27930WAT     H284033   3.588   7.874   7.860
27931WAT      O84034   9.884   7.641   5.936
27931WAT     H184035   9.898   7.553   5.890
27931WAT     H284036   9.871   7.712   5.867
27932WAT      O84037   7.092   5.491   6.774
27932WAT     H184038   7.018   5.544   6.814
27932WAT     H284039   7.132   5.541   6.697
27933WAT      O84040   0.102   2.974   1.620
27933WAT     H184041   0.083   2.877   1.603
27933WAT     H284042   0.124   3.020   1.533
27934WAT      O84043   9.536   1.853   3.247
27934WAT     H184044   9.478   1.808   3.180
27934WAT     H284045   9.544   1.950   3.224
27935WAT      O84046   4.819   7.500   2.286
27935WAT     H184047   4.771   7.532   2.205
27935WAT     H284048   4.868   7.576   2.330
27936WAT      O84049   9.167   7.001   4.500
27936WAT     H184050   9.178   7.012   4.401
27936WAT     H284051   9.198   7.084   4.546
27937WAT      O84052   7.749   3.825   2.343
27937WAT     H184053   7.752   3.907   2.287
27937WAT     H284054   7.749   3.744   2.284
27938WAT      O84055   0.154   1.261   3.232
27938WAT     H184056   0.056   1.246   3.243
27938WAT     H284057   0.172   1.359   3.228
27939WAT      O84058   1.243   0.693   9.480
27939WAT     H184059   1.290   0.684   9.392
27939WAT     H284060   1.189   0.611   9.498
27940WAT      O84061   2.271   0.479   4.277
27940WAT     H184062   2.328   0.416   4.222
27940WAT     H284063   2.329   0.528   4.341
27941WAT      O84064   5.713   6.021   0.033
27941WAT     H184065   5.657   5.999  -0.047
27941WAT     H284066   5.663   6.083   0.093
27942WAT      O84067   5.604   1.296   1.661
27942WAT     H184068   5.698   1.312   1.689
27942WAT     H284069   5.548   1.274   1.741
27943WAT      O84070   4.544   4.559   0.141
27943WAT     H184071   4.481   4.513   0.204
27943WAT     H284072   4.532   4.658   0.150
27944WAT      O84073   8.716   3.701   5.100
27944WAT     H184074   8.804   3.677   5.058
27944WAT     H284075   8.644   3.698   5.030
27945WAT      O84076   8.239   9.147   6.088
27945WAT     H184077   8.247   9.175   5.992
27945WAT     H284078   8.159   9.088   6.099
27946WAT      O84079   3.181   7.647   3.825
27946WAT     H184080   3.276   7.618   3.831
27946WAT     H284081   3.130   7.612   3.904
27947WAT      O84082   4.099   8.075   7.049
27947WAT     H184083   4.102   8.157   7.105
27947WAT     H284084   4.074   7.996   7.106
27948WAT      O84085   0.692   1.753   7.584
27948WAT     H184086   0.782   1.723   7.552
27948WAT     H284087   0.700   1.792   7.675
27949WAT      O84088   6.966   2.670   8.050
27949WAT     H184089   6.903   2.648   8.124
27949WAT     H284090   6.987   2.768   8.051
27950WAT      O84091   9.534   6.234   9.153
27950WAT     H184092   9.502   6.281   9.235
27950WAT     H284093   9.499   6.140   9.153
27951WAT      O84094   4.486   6.563   3.664
27951WAT     H184095   4.497   6.479   3.611
27951WAT     H284096   4.391   6.592   3.662
27952WAT      O84097   2.246   8.412   7.237
27952WAT     H184098   2.243   8.502   7.194
27952WAT     H284099   2.338   8.373   7.227
27953WAT      O84100   5.787   4.642   9.002
27953WAT     H184101   5.865   4.700   8.979
27953WAT     H284102   5.804   4.549   8.971
27954WAT      O84103   5.465   4.410   8.568
27954WAT     H184104   5.381   4.373   8.608
27954WAT     H284105   5.507   4.475   8.631
27955WAT      O84106   3.562   1.243   3.759
27955WAT     H184107   3.626   1.184   3.809
27955WAT     H284108   3.487   1.188   3.722
27956WAT      O84109   5.500   0.145   4.667
27956WAT     H184110   5.418   0.135   4.611
27956WAT     H284111   5.489   0.092   4.751
27957WAT      O84112   9.733   9.753   5.181
27957WAT     H184113   9.636   9.774   5.194
27957WAT     H284114   9.788   9.808   5.244
27958WAT      O84115   6.494   9.595   4.295
27958WAT     H184116   6.551   9.538   4.236
27958WAT     H284117   6.420   9.539   4.334
27959WAT      O84118   2.261   1.165   4.367
27959WAT     H184119   2.230   1.142   4.274
27959WAT     H284120   2.355   1.198   4.363
27960WAT      O84121   0.889   2.112   5.390
27960WAT     H184122   0.818   2.046   5.369
27960WAT     H284123   0.847   2.200   5.413
27961WAT      O84124   9.589   4.063   2.756
27961WAT     H184125   9.643   3.998   2.810
27961WAT     H284126   9.648   4.138   2.726
27962WAT      O84127   9.089   3.724   1.659
27962WAT     H184128   9.136   3.679   1.583
27962WAT     H284129   8.990   3.720   1.644
27963WAT      O84130   1.808   4.682   6.593
27963WAT     H184131   1.788   4.607   6.656
27963WAT     H284132   1.906   4.689   6.578
27964WAT      O84133   7.519   2.653   3.288
27964WAT     H184134   7.484   2.581   3.348
27964WAT     H284135   7.574   2.612   3.215
27965WAT      O84136   1.039   6.791   1.536
27965WAT     H184137   1.110   6.857   1.511
27965WAT     H284138   0.978   6.777   1.458
27966WAT      O84139   2.853   5.179   4.033
27966WAT     H184140   2.859   5.144   3.940
27966WAT     H284141   2.782   5.248   4.038
27967WAT      O84142   1.974   0.542   2.578
27967WAT     H184143   2.029   0.619   2.543
27967WAT     H284144   1.929   0.497   2.501
27968WAT      O84145   8.300   5.593   0.139
27968WAT     H184146   8.388   5.640   0.146
27968WAT     H284147   8.240   5.644   0.077
27969WAT      O84148   9.736   8.970   4.713
27969WAT     H184149   9.791   9.050   4.734
27969WAT     H284150   9.671   8.992   4.640
27970WAT      O84151   4.537   3.091   2.019
27970WAT     H184152   4.635   3.107   2.005
27970WAT     H284153   4.511   3.002   1.980
27971WAT      O84154   2.719   2.688   7.314
27971WAT     H184155   2.633   2.638   7.309
27971WAT     H284156   2.748   2.695   7.410
27972WAT      O84157   2.942   7.950   1.820
27972WAT     H184158   2.919   8.039   1.781
27972WAT     H284159   3.029   7.956   1.869
27973WAT      O84160   7.615   1.673   8.444
27973WAT     H184161   7.538   1.609   8.438
27973WAT     H284162   7.694   1.633   8.398
27974WAT      O84163   5.523   6.698   6.818
27974WAT     H184164   5.580   6.621   6.847
27974WAT     H284165   5.469   6.731   6.895
27975WAT      O84166   8.634   9.317   9.789
27975WAT     H184167   8.654   9.387   9.858
27975WAT     H284168   8.637   9.358   9.698
27976WAT      O84169   1.168   1.572   5.228
27976WAT     H184170   1.240   1.523   5.180
27976WAT     H284171   1.209   1.633   5.296
27977WAT      O84172   4.979   0.922   8.740
27977WAT     H184173   4.992   0.828   8.709
27977WAT     H284174   4.962   0.981   8.661
27978WAT      O84175   6.200   5.649   3.469
27978WAT     H184176   6.138   5.717   3.508
27978WAT     H284177   6.281   5.694   3.431
27979WAT      O84178   4.784   3.771   2.405
27979WAT     H184179   4.840   3.838   2.357
27979WAT     H284180   4.749   3.704   2.340
27980WAT      O84181   5.259   5.444   7.564
27980WAT     H184182   5.334   5.388   7.598
27980WAT     H284183   5.188   5.385   7.526
27981WAT      O84184   6.342   8.593   5.352
27981WAT     H184185   6.396   8.604   5.435
27981WAT     H284186   6.291   8.507   5.357
27982WAT      O84187   7.034   8.993   7.461
27982WAT     H184188   6.939   8.963   7.470
27982WAT     H284189   7.078   8.993   7.550
27983WAT      O84190   0.872   2.737   4.559
27983WAT     H184191   0.866   2.801   4.483
27983WAT     H284192   0.922   2.655   4.530
27984WAT      O84193   7.715   7.435   2.645
27984WAT     H184194   7.663   7.354   2.672
27984WAT     H284195   7.807   7.407   2.616
27985WAT      O84196   7.813   6.840   0.093
27985WAT     H184197   7.841   6.834   0.189
27985WAT     H284198   7.872   6.905   0.045
27986WAT      O84199   8.702   1.766   7.997
27986WAT     H184200   8.645   1.829   7.945
27986WAT     H284201   8.644   1.694   8.037
27987WAT      O84202   5.842   1.754   1.052
27987WAT     H184203   5.907   1.682   1.029
27987WAT     H284204   5.778   1.767   0.977
27988WAT      O84205   2.064   6.508   5.696
27988WAT     H184206   2.003   6.432   5.674
27988WAT     H284207   2.104   6.544   5.612
27989WAT      O84208   6.706   6.687   6.548
27989WAT     H184209   6.763   6.604   6.551
27989WAT     H284210   6.630   6.673   6.485
27990WAT      O84211   8.379   1.475   1.892
27990WAT     H184212   8.399   1.387   1.849
27990WAT     H284213   8.407   1.549   1.831
27991WAT      O84214   4.070   0.883   6.226
27991WAT     H184215   4.062   0.976   6.190
27991WAT     H284216   4.006   0.824   6.178
27992WAT      O84217   2.214   5.091   4.691
27992WAT     H184218   2.220   5.186   4.661
27992WAT     H284219   2.245   5.031   4.618
27993WAT      O84220   2.433   7.417   8.252
27993WAT     H184221   2.509   7.429   8.315
27993WAT     H284222   2.450   7.469   8.168
27994WAT      O84223   1.238   5.257   7.376
27994WAT     H184224   1.191   5.239   7.290
27994WAT     H284225   1.311   5.191   7.389
27995WAT      O84226   5.728   0.949   6.413
27995WAT     H184227   5.752   0.861   6.455
27995WAT     H284228   5.777   1.023   6.459
27996WAT      O84229   5.065   0.266   2.646
27996WAT     H184230   5.112   0.303   2.726
27996WAT     H284231   4.966   0.270   2.660
27997WAT      O84232   2.577   3.672   4.863
27997WAT     H184233   2.653   3.737   4.871
27997WAT     H284234   2.579   3.629   4.773
27998WAT      O84235   3.896   3.396   9.487
27998WAT     H184236   3.838   3.387   9.406
27998WAT     H284237   3.970   3.329   9.482
27999WAT      O84238   0.043   5.225   5.725
27999WAT     H184239   0.009   5.163   5.655
27999WAT     H284240   0.129   5.266   5.694
28000WAT      O84241   8.725   6.419   6.392
28000WAT     H184242   8.706   6.388   6.485
28000WAT     H284243   8.793   6.492   6.394
28001WAT      O84244   7.566   3.497   8.477
28001WAT     H184245   7.547   3.587   8.436
28001WAT     H284246   7.481   3.445   8.484
28002WAT      O84247   2.216   1.947   3.586
28002WAT     H184248   2.139   1.932   3.647
28002WAT     H284249   2.195   1.911   3.495
28003WAT      O84250   5.104   6.099   2.377
28003WAT     H184251   5.154   6.117   2.292
28003WAT     H284252   5.065   6.184   2.412
28004WAT      O84253   2.740   0.004   4.210
28004WAT     H184254   2.647  -0.030   4.223
28004WAT     H284255   2.752   0.089   4.261
28005WAT      O84256   9.685   4.462   7.604
28005WAT     H184257   9.616   4.392   7.623
28005WAT     H284258   9.684   4.531   7.676
28006WAT      O84259   4.911   7.104   6.701
28006WAT     H184260   4.865   7.183   6.741
28006WAT     H284261   4.851   7.061   6.633
28007WAT      O84262   4.897   9.002   7.092
28007WAT     H184263   4.903   9.098   7.121
28007WAT     H284264   4.802   8.973   7.091
28008WAT      O84265   7.125   4.700   8.101
28008WAT     H184266   7.114   4.644   8.019
28008WAT     H284267   7.196   4.769   8.085
28009WAT      O84268   5.235   9.584   2.132
28009WAT     H184269   5.212   9.491   2.160
28009WAT     H284270   5.200   9.649   2.199
28010WAT      O84271   0.779   5.524   6.326
28010WAT     H184272   0.754   5.613   6.364
28010WAT     H284273   0.794   5.533   6.228
28011WAT      O84274   3.958   8.321   9.846
28011WAT     H184275   3.976   8.418   9.829
28011WAT     H284276   4.044   8.270   9.844
28012WAT      O84277   2.591   3.343   8.480
28012WAT     H184278   2.637   3.416   8.429
28012WAT     H284279   2.592   3.259   8.427
28013WAT      O84280   6.673   3.388   7.152
28013WAT     H184281   6.698   3.291   7.140
28013WAT     H284282   6.693   3.438   7.067
28014WAT      O84283   2.276   9.701   5.012
28014WAT     H184284   2.187   9.717   4.970
28014WAT     H284285   2.313   9.788   5.045
28015WAT      O84286   9.231   8.911   1.201
28015WAT     H184287   9.198   8.984   1.261
28015WAT     H284288   9.167   8.899   1.125
28016WAT      O84289   7.391   3.663   3.261
28016WAT     H184290   7.406   3.606   3.181
28016WAT     H284291   7.299   3.648   3.297
28017WAT      O84292   3.568   8.985   4.086
28017WAT     H184293   3.479   8.951   4.058
28017WAT     H284294   3.558   9.076   4.128
28018WAT      O84295   9.131   2.717   5.767
28018WAT     H184296   9.132   2.639   5.705
28018WAT     H284297   9.222   2.758   5.770
28019WAT      O84298   8.843   6.244   3.029
28019WAT     H184299   8.873   6.338   3.042
28019WAT     H284300   8.762   6.242   2.971
28020WAT      O84301   1.043   9.454   2.398
28020WAT     H184302   0.953   9.409   2.399
28020WAT     H284303   1.115   9.386   2.411
28021WAT      O84304   7.639   9.754   6.656
28021WAT     H184305   7.663   9.759   6.559
28021WAT     H284306   7.542   9.779   6.668
28022WAT      O84307   9.122   0.908   9.371
28022WAT     H184308   9.033   0.955   9.377
28022WAT     H284309   9.157   0.915   9.278
28023WAT      O84310   6.477   5.286   6.468
28023WAT     H184311   6.379   5.285   6.451
28023WAT     H284312   6.498   5.230   6.548
28024WAT      O84313   9.089   4.963   6.054
28024WAT     H184314   9.165   4.898   6.042
28024WAT     H284315   9.117   5.036   6.117
28025WAT      O84316   9.018   1.713   2.864
28025WAT     H184317   9.011   1.670   2.954
28025WAT     H284318   9.045   1.645   2.796
28026WAT      O84319   5.348   3.596   8.204
28026WAT     H184320   5.300   3.679   8.230
28026WAT     H284321   5.309   3.559   8.120
28027WAT      O84322   8.311   6.217   0.051
28027WAT     H184323   8.366   6.158  -0.008
28027WAT     H284324   8.351   6.309   0.053
28028WAT      O84325   8.950   6.458   9.293
28028WAT     H184326   8.995   6.368   9.289
28028WAT     H284327   8.851   6.445   9.292
28029WAT      O84328   9.505   8.512   0.149
28029WAT     H184329   9.573   8.443   0.176
28029WAT     H284330   9.471   8.559   0.231
28030WAT      O84331   3.880   5.452   7.775
28030WAT     H184332   3.931   5.451   7.860
28030WAT     H284333   3.868   5.546   7.745
28031WAT      O84334   9.402   5.825   6.416
28031WAT     H184335   9.435   5.752   6.356
28031WAT     H284336   9.334   5.880   6.368
28032WAT      O84337   9.887   7.553   2.981
28032WAT     H184338   9.887   7.635   3.038
28032WAT     H284339   9.795   7.538   2.944
28033WAT      O84340   5.484   8.157   2.866
28033WAT     H184341   5.438   8.084   2.815
28033WAT     H284342   5.533   8.217   2.803
28034WAT      O84343   2.946   0.389   4.831
28034WAT     H184344   3.032   0.394   4.781
28034WAT     H284345   2.918   0.294   4.841
28035WAT      O84346   4.181   8.872   9.653
28035WAT     H184347   4.146   8.779   9.649
28035WAT     H284348   4.251   8.885   9.584
28036WAT      O84349   4.704   2.100   0.627
28036WAT     H184350   4.720   2.003   0.612
28036WAT     H284351   4.756   2.153   0.559
28037WAT      O84352   7.266   1.941   3.536
28037WAT     H184353   7.357   1.956   3.574
28037WAT     H284354   7.219   2.028   3.523
28038WAT      O84355   0.407   4.536   3.689
28038WAT     H184356   0.351   4.514   3.610
28038WAT     H284357   0.379   4.624   3.727
28039WAT      O84358   6.896   0.912   6.632
28039WAT     H184359   6.983   0.949   6.665
28039WAT     H284360   6.908   0.880   6.538
28040WAT      O84361   0.489   2.783   6.363
28040WAT     H184362   0.389   2.777   6.367
28040WAT     H284363   0.521   2.850   6.429
28041WAT      O84364   7.822   8.249   1.596
28041WAT     H184365   7.900   8.253   1.658
28041WAT     H284366   7.745   8.299   1.636
28042WAT      O84367   6.511   0.554   0.111
28042WAT     H184368   6.489   0.592   0.201
28042WAT     H284369   6.450   0.593   0.042
28043WAT      O84370   1.946   8.474   4.112
28043WAT     H184371   1.872   8.464   4.178
28043WAT     H284372   1.929   8.417   4.033
28044WAT      O84373   8.244   3.253   3.885
28044WAT     H184374   8.169   3.211   3.835
28044WAT     H284375   8.276   3.334   3.835
28045WAT      O84376   4.307   4.209   3.656
28045WAT     H184377   4.291   4.124   3.606
28045WAT     H284378   4.356   4.189   3.741
28046WAT      O84379   1.894   0.670   9.229
28046WAT     H184380   1.919   0.591   9.174
28046WAT     H284381   1.909   0.650   9.326
28047WAT      O84382   0.928   8.345   1.148
28047WAT     H184383   0.858   8.300   1.204
28047WAT     H284384   0.887   8.375   1.062
28048WAT      O84385   8.244   4.499   4.972
28048WAT     H184386   8.284   4.565   4.908
28048WAT     H284387   8.290   4.411   4.962
28049WAT      O84388   2.090   3.126   8.175
28049WAT     H184389   2.106   3.028   8.188
28049WAT     H284390   2.115   3.175   8.258
28050WAT      O84391   1.570   2.203   9.757
28050WAT     H184392   1.503   2.205   9.831
28050WAT     H284393   1.522   2.191   9.669
28051WAT      O84394   2.606   5.553   8.589
28051WAT     H184395   2.662   5.621   8.542
28051WAT     H284396   2.537   5.599   8.645
28052WAT      O84397   2.953   6.923   6.195
28052WAT     H184398   2.931   7.001   6.253
28052WAT     H284399   2.986   6.847   6.251
28053WAT      O84400   1.921   2.302   2.740
28053WAT     H184401   1.984   2.264   2.673
28053WAT     H284402   1.844   2.346   2.693
28054WAT      O84403   6.902   7.857   4.329
28054WAT     H184404   6.819   7.801   4.322
28054WAT     H284405   6.933   7.882   4.237
28055WAT      O84406   4.280   0.615   8.524
28055WAT     H184407   4.224   0.580   8.598
28055WAT     H284408   4.232   0.690   8.478
28056WAT      O84409   2.076   2.191   2.101
28056WAT     H184410   2.131   2.243   2.166
28056WAT     H284411   1.996   2.245   2.074
28057WAT      O84412   9.202   4.304   8.196
28057WAT     H184413   9.254   4.275   8.276
28057WAT     H284414   9.244   4.385   8.156
28058WAT      O84415   1.643   7.233   5.104
28058WAT     H184416   1.609   7.274   5.019
28058WAT     H284417   1.733   7.194   5.088
28059WAT      O84418   1.809   7.172   4.000
28059WAT     H184419   1.767   7.213   3.919
28059WAT     H284420   1.909   7.175   3.991
28060WAT      O84421   4.658   2.032   3.466
28060WAT     H184422   4.717   2.079   3.399
28060WAT     H284423   4.711   2.013   3.549
28061WAT      O84424   7.801   6.289   4.527
28061WAT     H184425   7.759   6.199   4.537
28061WAT     H284426   7.844   6.295   4.437
28062WAT      O84427   0.051   5.681   1.661
28062WAT     H184428  -0.036   5.728   1.680
28062WAT     H284429   0.033   5.601   1.603
28063WAT      O84430   5.845   0.881   7.867
28063WAT     H184431   5.890   0.805   7.913
28063WAT     H284432   5.767   0.847   7.815
28064WAT      O84433   3.096   3.732   6.540
28064WAT     H184434   3.009   3.684   6.524
28064WAT     H284435   3.105   3.750   6.638
28065WAT      O84436   0.754   3.398   5.972
28065WAT     H184437   0.846   3.397   6.011
28065WAT     H284438   0.722   3.304   5.961
28066WAT      O84439   3.073   5.187   9.106
28066WAT     H184440   2.996   5.124   9.092
28066WAT     H284441   3.139   5.146   9.169
28067WAT      O84442   0.855   5.649   4.116
28067WAT     H184443   0.780   5.624   4.054
28067WAT     H284444   0.819   5.662   4.209
28068WAT      O84445   4.531   5.299   6.428
28068WAT     H184446   4.466   5.225   6.448
28068WAT     H284447   4.608   5.293   6.491
28069WAT      O84448   0.574   9.698   5.803
28069WAT     H184449   0.533   9.685   5.893
28069WAT     H284450   0.526   9.771   5.754
28070WAT      O84451   5.338   0.391   8.352
28070WAT     H184452   5.302   0.312   8.403
28070WAT     H284453   5.434   0.374   8.330
28071WAT      O84454   1.902   1.378   7.683
28071WAT     H184455   2.000   1.365   7.702
28071WAT     H284456   1.891   1.404   7.587
28072WAT      O84457   1.169   6.443   4.595
28072WAT     H184458   1.095   6.435   4.527
28072WAT     H284459   1.229   6.363   4.588
28073WAT      O84460   9.313   1.235   5.994
28073WAT     H184461   9.273   1.273   6.078
28073WAT     H284462   9.383   1.168   6.018
28074WAT      O84463   9.379   9.132   8.385
28074WAT     H184464   9.308   9.202   8.375
28074WAT     H284465   9.346   9.045   8.346
28075WAT      O84466   8.449   2.095   0.825
28075WAT     H184467   8.444   2.167   0.895
28075WAT     H284468   8.362   2.047   0.820
28076WAT      O84469   8.743   7.639   6.374
28076WAT     H184470   8.792   7.640   6.287
28076WAT     H284471   8.721   7.545   6.398
28077WAT      O84472   4.384   2.820   1.079
28077WAT     H184473   4.317   2.873   1.132
28077WAT     H284474   4.336   2.755   1.020
28078WAT      O84475   2.000   1.597   6.798
28078WAT     H184476   2.085   1.575   6.751
28078WAT     H284477   2.015   1.595   6.897
28079WAT      O84478   3.014   0.199   1.047
28079WAT     H184479   2.958   0.141   0.988
28079WAT     H284480   2.958   0.234   1.122
28080WAT      O84481   6.250   9.566   0.372
28080WAT     H184482   6.291   9.484   0.331
28080WAT     H284483   6.150   9.557   0.370
28081WAT      O84484   9.227   4.059   8.953
28081WAT     H184485   9.325   4.052   8.936
28081WAT     H284486   9.205   4.012   9.039
28082WAT      O84487   5.914   5.240   3.140
28082WAT     H184488   5.903   5.294   3.223
28082WAT     H284489   5.841   5.262   3.076
28083WAT      O84490   8.587   2.048   9.567
28083WAT     H184491   8.604   2.096   9.481
28083WAT     H284492   8.511   1.985   9.555
28084WAT      O84493   8.122   8.823   9.744
28084WAT     H184494   8.167   8.851   9.659
28084WAT     H284495   8.090   8.729   9.735
28085WAT      O84496   2.334   1.983   0.164
28085WAT     H184497   2.344   2.058   0.230
28085WAT     H284498   2.266   2.007   0.096
28086WAT      O84499   3.108   7.451   2.637
28086WAT     H184500   3.148   7.513   2.704
28086WAT     H284501   3.009   7.444   2.652
28087WAT      O84502   1.483   4.612   4.424
28087WAT     H184503   1.418   4.628   4.498
28087WAT     H284504   1.506   4.515   4.420
28088WAT      O84505   9.478   0.802   9.859
28088WAT     H184506   9.531   0.808   9.944
28088WAT     H284507   9.437   0.891   9.839
28089WAT      O84508   4.428   3.627   5.403
28089WAT     H184509   4.472   3.670   5.324
28089WAT     H284510   4.365   3.556   5.372
28090WAT      O84511   4.524   5.783   7.133
28090WAT     H184512   4.548   5.783   7.230
28090WAT     H284513   4.429   5.754   7.121
28091WAT      O84514   4.109   4.867   3.935
28091WAT     H184515   4.146   4.889   4.025
28091WAT     H284516   4.019   4.909   3.924
28092WAT      O84517   0.155   9.200   1.175
28092WAT     H184518   0.166   9.151   1.261
28092WAT     H284519   0.069   9.251   1.176
28093WAT      O84520   6.960   6.587   7.490
28093WAT     H184521   6.938   6.529   7.411
28093WAT     H284522   6.978   6.528   7.570
28094WAT      O84523   4.849   3.957   2.733
28094WAT     H184524   4.838   4.045   2.779
28094WAT     H284525   4.928   3.962   2.671
28095WAT      O84526   0.234   5.764   2.040
28095WAT     H184527   0.237   5.817   1.955
28095WAT     H284528   0.148   5.713   2.045
28096WAT      O84529   0.543   3.991   6.213
28096WAT     H184530   0.601   4.042   6.277
28096WAT     H284531   0.586   3.990   6.123
28097WAT      O84532   5.837   4.259   8.371
28097WAT     H184533   5.745   4.234   8.340
28097WAT     H284534   5.880   4.179   8.414
28098WAT      O84535   5.604   6.279   8.837
28098WAT     H184536   5.542   6.349   8.870
28098WAT     H284537   5.659   6.244   8.913
28099WAT      O84538   5.589   1.431   0.509
28099WAT     H184539   5.687   1.436   0.526
28099WAT     H284540   5.558   1.337   0.519
28100WAT      O84541   2.606   9.158   8.174
28100WAT     H184542   2.646   9.066   8.177
28100WAT     H284543   2.606   9.197   8.266
28101WAT      O84544   4.636   8.804   0.911
28101WAT     H184545   4.652   8.886   0.856
28101WAT     H284546   4.619   8.726   0.852
28102WAT      O84547   8.586   2.835   1.930
28102WAT     H184548   8.574   2.852   2.028
28102WAT     H284549   8.647   2.757   1.916
28103WAT      O84550   8.072   8.241   2.766
28103WAT     H184551   8.153   8.278   2.810
28103WAT     H284552   8.087   8.237   2.667
28104WAT      O84553   3.875   0.039   0.275
28104WAT     H184554   3.801   0.106   0.264
28104WAT     H284555   3.841  -0.052   0.250
28105WAT      O84556   2.529   8.495   4.928
28105WAT     H184557   2.460   8.552   4.883
28105WAT     H284558   2.618   8.511   4.885
28106WAT      O84559   6.341   9.090   3.108
28106WAT     H184560   6.401   9.010   3.114
28106WAT     H284561   6.359   9.150   3.186
28107WAT      O84562   8.936   7.819   9.738
28107WAT     H184563   8.900   7.841   9.829
28107WAT     H284564   8.993   7.737   9.745
28108WAT      O84565   0.373   7.494   0.860
28108WAT     H184566   0.343   7.399   0.864
28108WAT     H284567   0.462   7.500   0.816
28109WAT      O84568   6.421   1.916   5.186
28109WAT     H184569   6.442   1.965   5.102
28109WAT     H284570   6.429   1.978   5.264
28110WAT      O84571   8.542   8.850   9.366
28110WAT     H184572   8.628   8.852   9.315
28110WAT     H284573   8.472   8.901   9.316
28111WAT      O84574   3.187   9.411   3.754
28111WAT     H184575   3.163   9.501   3.717
28111WAT     H284576   3.272   9.378   3.711
28112WAT      O84577   3.960   0.767   0.068
28112WAT     H184578   3.967   0.728   0.160
28112WAT     H284579   3.930   0.863   0.075
28113WAT      O84580   3.701   8.553   4.138
28113WAT     H184581   3.695   8.512   4.047
28113WAT     H284582   3.626   8.519   4.194
28114WAT      O84583   0.143   2.599   4.764
28114WAT     H184584   0.231   2.607   4.716
28114WAT     H284585   0.076   2.556   4.703
28115WAT      O84586   8.026   2.020   4.854
28115WAT     H184587   8.084   2.092   4.816
28115WAT     H284588   8.081   1.938   4.871
28116WAT      O84589   1.855   6.699   8.347
28116WAT     H184590   1.756   6.695   8.337
28116WAT     H284591   1.892   6.608   8.365
28117WAT      O84592   8.967   3.442   7.258
28117WAT     H184593   8.977   3.446   7.358
28117WAT     H284594   9.032   3.505   7.216
28118WAT      O84595   2.255   4.446   7.624
28118WAT     H184596   2.222   4.398   7.705
28118WAT     H284597   2.240   4.544   7.635
28119WAT      O84598   0.934   6.174   0.483
28119WAT     H184599   1.024   6.131   0.486
28119WAT     H284600   0.925   6.228   0.399
28120WAT      O84601   9.856   6.685   0.350
28120WAT     H184602   9.899   6.602   0.313
28120WAT     H284603   9.897   6.707   0.439
28121WAT      O84604   3.027   1.092   5.607
28121WAT     H184605   2.976   1.025   5.552
28121WAT     H284606   2.965   1.163   5.640
28122WAT      O84607   9.316   0.666   5.414
28122WAT     H184608   9.357   0.580   5.385
28122WAT     H284609   9.217   0.659   5.412
28123WAT      O84610   2.087   6.440   6.102
28123WAT     H184611   2.055   6.532   6.124
28123WAT     H284612   2.014   6.389   6.056
28124WAT      O84613   5.693   8.414   0.653
28124WAT     H184614   5.673   8.511   0.668
28124WAT     H284615   5.624   8.375   0.592
28125WAT      O84616   1.559   7.412   7.799
28125WAT     H184617   1.627   7.476   7.836
28125WAT     H284618   1.601   7.359   7.726
28126WAT      O84619   1.764   9.400   7.244
28126WAT     H184620   1.692   9.464   7.218
28126WAT     H284621   1.848   9.450   7.265
28127WAT      O84622   2.641   2.920   2.144
28127WAT     H184623   2.626   2.957   2.235
28127WAT     H284624   2.738   2.905   2.129
28128WAT      O84625   2.860   7.857   4.594
28128WAT     H184626   2.897   7.949   4.583
28128WAT     H284627   2.922   7.803   4.651
28129WAT      O84628   1.354   0.631   5.446
28129WAT     H184629   1.337   0.669   5.355
28129WAT     H284630   1.274   0.646   5.504
28130WAT      O84631   1.590   8.180   1.350
28130WAT     H184632   1.553   8.273   1.352
28130WAT     H284633   1.535   8.123   1.290
28131WAT      O84634   3.530   8.508   1.113
28131WAT     H184635   3.584   8.483   1.193
28131WAT     H284636   3.433   8.507   1.137
28132WAT      O84637   1.692   7.100   4.702
28132WAT     H184638   1.679   7.130   4.607
28132WAT     H284639   1.692   7.000   4.705
28133WAT      O84640   3.540   4.308   5.377
28133WAT     H184641   3.473   4.374   5.409
28133WAT     H284642   3.542   4.230   5.440
28134WAT      O84643   6.025   7.115   7.517
28134WAT     H184644   6.102   7.178   7.520
28134WAT     H284645   6.012   7.082   7.423
28135WAT      O84646   4.890   0.213   6.117
28135WAT     H184647   4.954   0.241   6.046
28135WAT     H284648   4.883   0.113   6.118
28136WAT      O84649   6.299   3.672   0.712
28136WAT     H184650   6.236   3.637   0.642
28136WAT     H284651   6.274   3.766   0.735
28137WAT      O84652   9.190   7.212   9.371
28137WAT     H184653   9.262   7.155   9.412
28137WAT     H284654   9.100   7.178   9.400
28138WAT      O84655   8.208   8.300   6.580
28138WAT     H184656   8.181   8.342   6.494
28138WAT     H284657   8.131   8.249   6.618
28139WAT      O84658   9.751   5.704   8.023
28139WAT     H184659   9.719   5.618   8.063
28139WAT     H284660   9.678   5.746   7.970
28140WAT      O84661   8.836   6.943   8.604
28140WAT     H184662   8.746   6.928   8.643
28140WAT     H284663   8.827   6.969   8.508
28141WAT      O84664   3.320   5.542   6.078
28141WAT     H184665   3.338   5.445   6.095
28141WAT     H284666   3.227   5.564   6.108
28142WAT      O84667   2.284   2.307   0.989
28142WAT     H184668   2.383   2.299   0.980
28142WAT     H284669   2.254   2.394   0.948
28143WAT      O84670   1.671   2.238   2.121
28143WAT     H184671   1.658   2.181   2.040
28143WAT     H284672   1.680   2.179   2.202
28144WAT      O84673   7.684   8.515   4.582
28144WAT     H184674   7.642   8.572   4.653
28144WAT     H284675   7.643   8.424   4.583
28145WAT      O84676   4.462   2.717   5.782
28145WAT     H184677   4.496   2.784   5.716
28145WAT     H284678   4.536   2.687   5.841
28146WAT      O84679   6.619   6.397   9.609
28146WAT     H184680   6.582   6.471   9.665
28146WAT     H284681   6.701   6.361   9.652
28147WAT      O84682   0.532   4.957   0.728
28147WAT     H184683   0.457   5.004   0.774
28147WAT     H284684   0.609   5.019   0.718
28148WAT      O84685   1.516   6.730   4.031
28148WAT     H184686   1.611   6.704   4.050
28148WAT     H284687   1.455   6.667   4.079
28149WAT      O84688   1.322   2.847   0.344
28149WAT     H184689   1.361   2.938   0.332
28149WAT     H284690   1.330   2.820   0.440
28150WAT      O84691   0.900   2.923   2.679
28150WAT     H184692   0.984   2.888   2.721
28150WAT     H284693   0.921   2.956   2.587
28151WAT      O84694   2.350   3.893   0.491
28151WAT     H184695   2.288   3.855   0.422
28151WAT     H284696   2.358   3.992   0.479
28152WAT      O84697   5.670   7.010   2.492
28152WAT     H184698   5.753   7.043   2.447
28152WAT     H284699   5.655   6.915   2.467
28153WAT      O84700   9.198   0.651   7.021
28153WAT     H184701   9.131   0.725   7.018
28153WAT     H284702   9.157   0.570   7.062
28154WAT      O84703   4.734   5.682   8.075
28154WAT     H184704   4.689   5.617   8.013
28154WAT     H284705   4.831   5.660   8.082
28155WAT      O84706   3.138   4.239   0.063
28155WAT     H184707   3.163   4.329   0.028
28155WAT     H284708   3.220   4.181   0.065
28156WAT      O84709   1.102   5.940   0.758
28156WAT     H184710   1.137   5.854   0.795
28156WAT     H284711   1.004   5.933   0.745
28157WAT      O84712   5.645   8.562   9.297
28157WAT     H184713   5.739   8.553   9.263
28157WAT     H284714   5.596   8.476   9.280
28158WAT      O84715   1.071   3.694   8.317
28158WAT     H184716   1.094   3.597   8.305
28158WAT     H284717   1.047   3.711   8.412
28159WAT      O84718   1.820   9.273   8.080
28159WAT     H184719   1.868   9.188   8.104
28159WAT     H284720   1.723   9.264   8.103
28160WAT      O84721   9.330   6.337   4.286
28160WAT     H184722   9.378   6.249   4.290
28160WAT     H284723   9.282   6.345   4.199
28161WAT      O84724   2.881   4.028   8.413
28161WAT     H184725   2.846   3.978   8.493
28161WAT     H284726   2.807   4.081   8.373
28162WAT      O84727   8.969   1.112   7.904
28162WAT     H184728   8.905   1.036   7.908
28162WAT     H284729   9.052   1.090   7.956
28163WAT      O84730   7.329   5.560   1.685
28163WAT     H184731   7.283   5.640   1.724
28163WAT     H284732   7.273   5.478   1.701
28164WAT      O84733   9.847   9.425   3.712
28164WAT     H184734   9.769   9.478   3.745
28164WAT     H284735   9.928   9.447   3.767
28165WAT      O84736   7.230   7.478   0.528
28165WAT     H184737   7.244   7.404   0.594
28165WAT     H284738   7.132   7.497   0.521
28166WAT      O84739   9.795   5.885   1.074
28166WAT     H184740   9.836   5.876   0.984
28166WAT     H284741   9.730   5.810   1.088
28167WAT      O84742   9.166   2.677   6.068
28167WAT     H184743   9.155   2.693   5.971
28167WAT     H284744   9.087   2.627   6.103
28168WAT      O84745   6.007   2.020   5.070
28168WAT     H184746   6.045   2.044   5.159
28168WAT     H284747   6.057   2.069   4.998
28169WAT      O84748   1.724   7.299   7.285
28169WAT     H184749   1.665   7.225   7.252
28169WAT     H284750   1.701   7.384   7.236
28170WAT      O84751   0.568   0.183   3.130
28170WAT     H184752   0.493   0.249   3.134
28170WAT     H284753   0.532   0.094   3.102
28171WAT      O84754   3.628   3.605   8.714
28171WAT     H184755   3.577   3.522   8.736
28171WAT     H284756   3.576   3.660   8.648
28172WAT      O84757   3.454   3.909   6.416
28172WAT     H184758   3.474   3.856   6.498
28172WAT     H284759   3.538   3.953   6.384
28173WAT      O84760   8.498   0.756   5.937
28173WAT     H184761   8.410   0.755   5.985
28173WAT     H284762   8.526   0.851   5.921
28174WAT      O84763   0.876   3.071   2.453
28174WAT     H184764   0.887   3.162   2.494
28174WAT     H284765   0.782   3.040   2.466
28175WAT      O84766   5.951   9.813   2.169
28175WAT     H184767   5.930   9.840   2.263
28175WAT     H284768   5.955   9.713   2.163
28176WAT      O84769   0.879   5.918   7.916
28176WAT     H184770   0.901   5.852   7.987
28176WAT     H284771   0.958   5.932   7.856
28177WAT      O84772   7.901   0.428   4.668
28177WAT     H184773   7.951   0.358   4.718
28177WAT     H284774   7.803   0.418   4.686
28178WAT      O84775   9.701   5.180   2.981
28178WAT     H184776   9.696   5.198   2.883
28178WAT     H284777   9.713   5.266   3.030
28179WAT      O84778   4.483   8.146   8.070
28179WAT     H184779   4.520   8.058   8.100
28179WAT     H284780   4.543   8.185   8.000
28180WAT      O84781   6.974   8.143   9.346
28180WAT     H184782   6.915   8.151   9.266
28180WAT     H284783   6.957   8.056   9.392
28181WAT      O84784   4.347   3.517   8.869
28181WAT     H184785   4.395   3.587   8.922
28181WAT     H284786   4.410   3.444   8.845
28182WAT      O84787   8.236   1.082   9.486
28182WAT     H184788   8.294   1.148   9.533
28182WAT     H284789   8.178   1.130   9.420
28183WAT      O84790   8.948   6.538   2.995
28183WAT     H184791   8.914   6.508   2.906
28183WAT     H284792   8.982   6.632   2.988
28184WAT      O84793   0.755   8.765   5.576
28184WAT     H184794   0.724   8.841   5.633
28184WAT     H284795   0.855   8.758   5.582
28185WAT      O84796   0.397   6.449   8.227
28185WAT     H184797   0.360   6.538   8.202
28185WAT     H284798   0.479   6.462   8.282
28186WAT      O84799   6.660   0.254   1.144
28186WAT     H184800   6.595   0.226   1.073
28186WAT     H284801   6.753   0.250   1.107
28187WAT      O84802   8.922   1.754   9.772
28187WAT     H184803   8.841   1.808   9.749
28187WAT     H284804   8.934   1.682   9.703
28188WAT      O84805   6.263   1.628   0.216
28188WAT     H184806   6.221   1.707   0.172
28188WAT     H284807   6.193   1.576   0.265
28189WAT      O84808   7.935   8.142   9.234
28189WAT     H184809   7.866   8.130   9.306
28189WAT     H284810   7.972   8.053   9.208
28190WAT      O84811   3.986   3.541   1.427
28190WAT     H184812   3.940   3.456   1.453
28190WAT     H284813   3.978   3.607   1.502
28191WAT      O84814   7.051   9.372   2.861
28191WAT     H184815   7.148   9.393   2.865
28191WAT     H284816   7.028   9.305   2.933
28192WAT      O84817   5.149   6.982   9.287
28192WAT     H184818   5.214   6.923   9.336
28192WAT     H284819   5.083   7.020   9.352
28193WAT      O84820   6.562   7.766   1.293
28193WAT     H184821   6.571   7.865   1.291
28193WAT     H284822   6.640   7.724   1.247
28194WAT      O84823   9.552   1.820   7.321
28194WAT     H184824   9.471   1.768   7.347
28194WAT     H284825   9.579   1.880   7.397
28195WAT      O84826   6.020   4.308   7.936
28195WAT     H184827   6.009   4.347   8.027
28195WAT     H284828   6.069   4.222   7.942
28196WAT      O84829   1.135   2.862   5.935
28196WAT     H184830   1.079   2.792   5.978
28196WAT     H284831   1.206   2.892   6.000
28197WAT      O84832   1.506   0.960   7.246
28197WAT     H184833   1.431   0.938   7.309
28197WAT     H284834   1.569   1.024   7.290
28198WAT      O84835   3.991   7.008   0.072
28198WAT     H184836   4.011   7.060  -0.011
28198WAT     H284837   4.067   6.946   0.091
28199WAT      O84838   9.437   0.938   8.742
28199WAT     H184839   9.412   0.854   8.693
28199WAT     H284840   9.355   0.993   8.757
28200WAT      O84841   2.106   9.825   9.846
28200WAT     H184842   2.173   9.764   9.804
28200WAT     H284843   2.050   9.774   9.911
28201WAT      O84844   7.990   0.758   3.577
28201WAT     H184845   7.995   0.672   3.525
28201WAT     H284846   7.978   0.738   3.674
28202WAT      O84847   0.898   0.810   2.525
28202WAT     H184848   0.859   0.719   2.513
28202WAT     H284849   0.965   0.828   2.453
28203WAT      O84850   2.256   6.139   6.577
28203WAT     H184851   2.237   6.045   6.551
28203WAT     H284852   2.184   6.172   6.638
28204WAT      O84853   1.787   4.426   1.755
28204WAT     H184854   1.875   4.446   1.799
28204WAT     H284855   1.767   4.329   1.764
28205WAT      O84856   2.506   3.005   7.163
28205WAT     H184857   2.589   3.018   7.218
28205WAT     H284858   2.480   3.092   7.121
28206WAT      O84859   9.478   9.224   1.313
28206WAT     H184860   9.543   9.256   1.382
28206WAT     H284861   9.420   9.300   1.284
28207WAT      O84862   0.035   3.022   4.021
28207WAT     H184863   0.049   3.121   4.023
28207WAT     H284864  -0.031   2.999   3.950
28208WAT      O84865   6.987   7.203   9.399
28208WAT     H184866   6.948   7.275   9.341
28208WAT     H284867   7.017   7.127   9.341
28209WAT      O84868   1.530   4.280   0.236
28209WAT     H184869   1.450   4.285   0.176
28209WAT     H284870   1.502   4.248   0.326
28210WAT      O84871   7.329   7.655   6.035
28210WAT     H184872   7.353   7.566   5.996
28210WAT     H284873   7.388   7.675   6.113
28211WAT      O84874   7.441   4.851   2.096
28211WAT     H184875   7.495   4.780   2.141
28211WAT     H284876   7.471   4.860   2.001
28212WAT      O84877   4.012   0.332   7.222
28212WAT     H184878   4.076   0.261   7.250
28212WAT     H284879   3.926   0.322   7.272
28213WAT      O84880   1.501   3.472   2.259
28213WAT     H184881   1.547   3.383   2.256
28213WAT     H284882   1.532   3.523   2.339
28214WAT      O84883   9.488   9.022   7.119
28214WAT     H184884   9.475   9.084   7.042
28214WAT     H284885   9.469   9.070   7.205
28215WAT      O84886   3.926   5.561   2.704
28215WAT     H184887   3.984   5.514   2.771
28215WAT     H284888   3.831   5.558   2.734
28216WAT      O84889   5.934   5.836   9.334
28216WAT     H184890   5.946   5.935   9.323
28216WAT     H284891   6.022   5.790   9.328
28217WAT      O84892   9.354   2.026   6.997
28217WAT     H184893   9.388   1.932   7.008
28217WAT     H284894   9.254   2.026   6.999
28218WAT      O84895   6.815   5.936   4.163
28218WAT     H184896   6.838   5.847   4.204
28218WAT     H284897   6.823   6.007   4.232
28219WAT      O84898   0.784   6.137   4.305
28219WAT     H184899   0.835   6.168   4.225
28219WAT     H284900   0.827   6.172   4.388
28220WAT      O84901   3.873   4.784   6.052
28220WAT     H184902   3.844   4.871   6.092
28220WAT     H284903   3.971   4.788   6.031
28221WAT      O84904   0.141   7.465   9.662
28221WAT     H184905   0.213   7.524   9.626
28221WAT     H284906   0.091   7.513   9.734
28222WAT      O84907   4.779   5.845   4.111
28222WAT     H184908   4.736   5.890   4.190
28222WAT     H284909   4.710   5.827   4.041
28223WAT      O84910   5.029   4.927   9.094
28223WAT     H184911   5.037   4.832   9.124
28223WAT     H284912   4.970   4.977   9.157
28224WAT      O84913   6.988   3.616   4.837
28224WAT     H184914   7.003   3.644   4.932
28224WAT     H284915   6.907   3.662   4.801
28225WAT      O84916   1.831   1.254   5.909
28225WAT     H184917   1.813   1.282   5.815
28225WAT     H284918   1.929   1.235   5.920
28226WAT      O84919   9.463   5.186   9.708
28226WAT     H184920   9.501   5.094   9.698
28226WAT     H284921   9.444   5.224   9.618
28227WAT      O84922   6.945   6.325   2.688
28227WAT     H184923   6.864   6.318   2.746
28227WAT     H284924   6.934   6.267   2.608
28228WAT      O84925   5.255   6.212   6.560
28228WAT     H184926   5.283   6.257   6.475
28228WAT     H284927   5.319   6.139   6.581
28229WAT      O84928   5.284   6.421   7.882
28229WAT     H184929   5.263   6.425   7.979
28229WAT     H284930   5.236   6.344   7.840
28230WAT      O84931   8.889   3.520   3.621
28230WAT     H184932   8.965   3.566   3.576
28230WAT     H284933   8.802   3.556   3.586
28231WAT      O84934   2.952   8.006   0.464
28231WAT     H184935   2.980   8.102   0.451
28231WAT     H284936   2.869   7.989   0.411
28232WAT      O84937   8.111   9.715   5.437
28232WAT     H184938   8.070   9.776   5.369
28232WAT     H284939   8.075   9.623   5.426
28233WAT      O84940   6.137   2.142   4.285
28233WAT     H184941   6.113   2.149   4.382
28233WAT     H284942   6.056   2.161   4.229
28234WAT      O84943   7.799   4.628   7.583
28234WAT     H184944   7.740   4.558   7.625
28234WAT     H284945   7.895   4.606   7.600
28235WAT      O84946   5.115   4.137   3.505
28235WAT     H184947   5.207   4.098   3.504
28235WAT     H284948   5.067   4.108   3.587
28236WAT      O84949   0.369   3.326   4.003
28236WAT     H184950   0.327   3.325   3.912
28236WAT     H284951   0.309   3.279   4.068
28237WAT      O84952   8.730   2.043   0.820
28237WAT     H184953   8.771   1.999   0.899
28237WAT     H284954   8.631   2.031   0.822
28238WAT      O84955   4.091   4.695   1.447
28238WAT     H184956   4.181   4.733   1.464
28238WAT     H284957   4.042   4.684   1.533
28239WAT      O84958   0.243   0.327   4.922
28239WAT     H184959   0.263   0.384   5.001
28239WAT     H284960   0.193   0.246   4.951
28240WAT      O84961   5.932   3.527   3.775
28240WAT     H184962   5.986   3.609   3.791
28240WAT     H284963   5.925   3.511   3.677
28241WAT      O84964   7.156   8.233   7.841
28241WAT     H184965   7.178   8.209   7.936
28241WAT     H284966   7.059   8.215   7.824
28242WAT      O84967   1.194   4.152   6.202
28242WAT     H184968   1.117   4.180   6.145
28242WAT     H284969   1.261   4.104   6.147
28243WAT      O84970   8.359   0.857   4.137
28243WAT     H184971   8.286   0.876   4.071
28243WAT     H284972   8.420   0.936   4.142
28244WAT      O84973   4.446   8.630   4.003
28244WAT     H184974   4.541   8.632   3.970
28244WAT     H284975   4.439   8.684   4.087
28245WAT      O84976   4.524   3.962   8.440
28245WAT     H184977   4.554   4.050   8.404
28245WAT     H284978   4.426   3.951   8.426
28246WAT      O84979   8.009   8.977   6.449
28246WAT     H184980   8.002   8.903   6.516
28246WAT     H284981   8.081   9.041   6.477
28247WAT      O84982   6.482   6.503   0.931
28247WAT     H184983   6.540   6.551   0.997
28247WAT     H284984   6.537   6.480   0.850
28248WAT      O84985   6.644   0.559   7.703
28248WAT     H184986   6.704   0.483   7.726
28248WAT     H284987   6.691   0.645   7.721
28249WAT      O84988   5.716   0.129   0.051
28249WAT     H184989   5.642   0.166  -0.006
28249WAT     H284990   5.771   0.204   0.087
28250WAT      O84991   7.808   1.067   5.781
28250WAT     H184992   7.755   1.050   5.698
28250WAT     H284993   7.848   1.159   5.776
28251WAT      O84994   9.803   4.015   7.014
28251WAT     H184995   9.794   4.045   7.109
28251WAT     H284996   9.805   4.095   6.954
28252WAT      O84997   1.588   0.873   2.956
28252WAT     H184998   1.622   0.848   3.047
28252WAT     H284999   1.659   0.922   2.906
28253WAT      O85000   1.606   8.769   6.732
28253WAT     H185001   1.621   8.855   6.780
28253WAT     H285002   1.626   8.693   6.794
28254WAT      O85003   2.745   9.832   5.800
28254WAT     H185004   2.798   9.899   5.749
28254WAT     H285005   2.693   9.775   5.737
28255WAT      O85006   2.576   9.759   5.227
28255WAT     H185007   2.514   9.833   5.201
28255WAT     H285008   2.537   9.671   5.200
28256WAT      O85009   8.589   7.983   4.953
28256WAT     H185010   8.510   8.044   4.962
28256WAT     H285011   8.652   7.998   5.030
28257WAT      O85012   3.348   6.616   2.685
28257WAT     H185013   3.391   6.685   2.628
28257WAT     H285014   3.348   6.528   2.636
28258WAT      O85015   4.499   6.061   7.029
28258WAT     H185016   4.517   5.963   7.033
28258WAT     H285017   4.521   6.095   6.937
28259WAT      O85018   3.096   5.751   5.715
28259WAT     H185019   3.174   5.688   5.722
28259WAT     H285020   3.057   5.745   5.623
28260WAT      O85021   5.947   2.324   9.308
28260WAT     H185022   5.946   2.346   9.210
28260WAT     H285023   6.029   2.362   9.350
28261WAT      O85024   6.760   2.932   3.293
28261WAT     H185025   6.721   3.017   3.260
28261WAT     H285026   6.743   2.923   3.391
28262WAT      O85027   9.829   6.339   0.584
28262WAT     H185028   9.794   6.305   0.497
28262WAT     H285029   9.760   6.329   0.655
28263WAT      O85030   2.241   5.833   8.574
28263WAT     H185031   2.161   5.847   8.632
28263WAT     H285032   2.235   5.895   8.495
28264WAT      O85033   7.996   6.156   9.802
28264WAT     H185034   8.062   6.149   9.727
28264WAT     H285035   7.923   6.220   9.778
28265WAT      O85036   6.197   0.074   3.513
28265WAT     H185037   6.165   0.013   3.586
28265WAT     H285038   6.247   0.150   3.553
28266WAT      O85039   5.637   7.402   8.286
28266WAT     H185040   5.639   7.476   8.354
28266WAT     H285041   5.641   7.314   8.333
28267WAT      O85042   7.809   8.430   9.266
28267WAT     H185043   7.863   8.378   9.332
28267WAT     H285044   7.742   8.369   9.222
28268WAT      O85045   0.791   5.108   0.077
28268WAT     H185046   0.834   5.032   0.125
28268WAT     H285047   0.751   5.171   0.143
28269WAT      O85048   8.937   8.245   2.281
28269WAT     H185049   8.849   8.258   2.328
28269WAT     H285050   9.012   8.260   2.345
28270WAT      O85051   7.226   7.979   9.015
28270WAT     H185052   7.250   7.946   8.924
28270WAT     H285053   7.309   7.999   9.066
28271WAT      O85054   8.908   3.105   3.751
28271WAT     H185055   8.835   3.061   3.803
28271WAT     H285056   8.985   3.042   3.742
28272WAT      O85057   2.141   6.886   7.616
28272WAT     H185058   2.125   6.810   7.553
28272WAT     H285059   2.064   6.950   7.610
28273WAT      O85060   0.454   5.987   7.987
28273WAT     H185061   0.451   6.034   8.076
28273WAT     H285062   0.463   5.889   8.001
28274WAT      O85063   5.706   6.002   0.392
28274WAT     H185064   5.610   5.979   0.404
28274WAT     H285065   5.754   5.925   0.349
28275WAT      O85066   1.568   3.591   0.863
28275WAT     H185067   1.580   3.544   0.776
28275WAT     H285068   1.543   3.687   0.846
28276WAT      O85069   1.152   9.373   6.757
28276WAT     H185070   1.239   9.402   6.717
28276WAT     H285071   1.165   9.290   6.810
28277WAT      O85072   1.781   1.705   5.167
28277WAT     H185073   1.865   1.666   5.131
28277WAT     H285074   1.803   1.772   5.238
28278WAT      O85075   5.993   4.556   5.419
28278WAT     H185076   5.903   4.530   5.453
28278WAT     H285077   5.995   4.547   5.319
28279WAT      O85078   5.456   1.877   8.328
28279WAT     H185079   5.455   1.956   8.390
28279WAT     H285080   5.549   1.861   8.297
28280WAT      O85081   1.082   2.186   5.719
28280WAT     H185082   1.106   2.219   5.810
28280WAT     H285083   0.991   2.219   5.694
28281WAT      O85084   0.950   8.340   3.410
28281WAT     H185085   0.941   8.439   3.427
28281WAT     H285086   0.916   8.290   3.489
28282WAT      O85087   1.293   0.618   7.499
28282WAT     H185088   1.313   0.695   7.560
28282WAT     H285089   1.227   0.647   7.430
28283WAT      O85090   5.894   2.499   3.971
28283WAT     H185091   5.993   2.512   3.968
28283WAT     H285092   5.849   2.575   3.925
28284WAT      O85093   7.959   6.274   5.642
28284WAT     H185094   8.015   6.206   5.594
28284WAT     H285095   7.904   6.228   5.712
28285WAT      O85096   4.918   9.650   6.984
28285WAT     H185097   4.994   9.691   7.036
28285WAT     H285098   4.907   9.699   6.898
28286WAT      O85099   7.735   5.473   2.194
28286WAT     H185100   7.640   5.492   2.168
28286WAT     H285101   7.739   5.384   2.240
28287WAT      O85102   5.866   7.811   0.298
28287WAT     H185103   5.890   7.906   0.283
28287WAT     H285104   5.942   7.763   0.340
28288WAT      O85105   0.200   0.532   5.869
28288WAT     H185106   0.148   0.602   5.820
28288WAT     H285107   0.297   0.540   5.848
28289WAT      O85108   7.463   9.716   7.031
28289WAT     H185109   7.405   9.757   7.102
28289WAT     H285110   7.548   9.685   7.073
28290WAT      O85111   9.281   5.495   6.893
28290WAT     H185112   9.291   5.428   6.966
28290WAT     H285113   9.286   5.588   6.931
28291WAT      O85114   2.725   8.889   2.137
28291WAT     H185115   2.727   8.879   2.237
28291WAT     H285116   2.633   8.914   2.108
28292WAT      O85117   0.094   0.864   7.480
28292WAT     H185118   0.041   0.792   7.525
28292WAT     H285119   0.069   0.870   7.384
28293WAT      O85120   8.329   2.435   3.574
28293WAT     H185121   8.366   2.493   3.647
28293WAT     H285122   8.271   2.364   3.615
28294WAT      O85123   6.007   3.736   6.155
28294WAT     H185124   6.029   3.783   6.241
28294WAT     H285125   5.985   3.803   6.085
28295WAT      O85126   7.582   7.516   4.445
28295WAT     H185127   7.560   7.503   4.541
28295WAT     H285128   7.526   7.455   4.389
28296WAT      O85129   1.026   2.773   2.398
28296WAT     H185130   0.926   2.769   2.390
28296WAT     H285131   1.055   2.867   2.412
28297WAT      O85132   6.667   8.941   6.813
28297WAT     H185133   6.601   8.897   6.875
28297WAT     H285134   6.632   8.936   6.720
28298WAT      O85135   0.882   5.912   4.690
28298WAT     H185136   0.837   5.840   4.637
28298WAT     H285137   0.980   5.891   4.697
28299WAT      O85138   3.064   3.285   0.899
28299WAT     H185139   2.966   3.268   0.894
28299WAT     H285140   3.085   3.376   0.864
28300WAT      O85141   7.661   8.972   1.085
28300WAT     H185142   7.669   8.879   1.120
28300WAT     H285143   7.630   8.970   0.990
28301WAT      O85144   0.673   4.013   3.529
28301WAT     H185145   0.588   4.065   3.516
28301WAT     H285146   0.667   3.926   3.480
28302WAT      O85147   1.436   5.105   9.775
28302WAT     H185148   1.536   5.099   9.770
28302WAT     H285149   1.406   5.193   9.737
28303WAT      O85150   9.096   4.015   0.542
28303WAT     H185151   9.029   4.005   0.468
28303WAT     H285152   9.172   4.072   0.512
28304WAT      O85153   9.310   6.364   2.718
28304WAT     H185154   9.253   6.445   2.716
28304WAT     H285155   9.360   6.356   2.632
28305WAT      O85156   2.623   1.755   3.387
28305WAT     H185157   2.589   1.830   3.444
28305WAT     H285158   2.647   1.790   3.297
28306WAT      O85159   9.032   6.168   1.401
28306WAT     H185160   9.105   6.110   1.435
28306WAT     H285161   9.012   6.240   1.467
28307WAT      O85162   6.108   1.763   1.783
28307WAT     H185163   6.024   1.710   1.794
28307WAT     H285164   6.181   1.722   1.839
28308WAT      O85165   1.846   3.286   8.589
28308WAT     H185166   1.849   3.271   8.687
28308WAT     H285167   1.763   3.338   8.565
28309WAT      O85168   6.390   8.600   6.742
28309WAT     H185169   6.404   8.675   6.807
28309WAT     H285170   6.354   8.636   6.656
28310WAT      O85171   0.985   9.707   6.309
28310WAT     H185172   0.932   9.648   6.370
28310WAT     H285173   0.928   9.735   6.232
28311WAT      O85174   5.101   9.636   6.615
28311WAT     H185175   5.046   9.672   6.690
28311WAT     H285176   5.078   9.540   6.600
28312WAT      O85177   7.477   2.038   8.478
28312WAT     H185178   7.548   2.008   8.414
28312WAT     H285179   7.510   2.119   8.527
28313WAT      O85180   0.764   6.267   2.241
28313WAT     H185181   0.791   6.257   2.145
28313WAT     H285182   0.845   6.260   2.300
28314WAT      O85183   9.438   5.723   6.656
28314WAT     H185184   9.360   5.732   6.718
28314WAT     H285185   9.426   5.783   6.578
28315WAT      O85186   4.546   0.476   2.214
28315WAT     H185187   4.539   0.383   2.251
28315WAT     H285188   4.561   0.472   2.116
28316WAT      O85189   0.816   5.501   7.415
28316WAT     H185190   0.896   5.468   7.466
28316WAT     H285191   0.795   5.437   7.341
28317WAT      O85192   3.336   4.930   0.675
28317WAT     H185193   3.315   4.958   0.581
28317WAT     H285194   3.265   4.868   0.708
28318WAT      O85195   9.368   6.253   1.292
28318WAT     H185196   9.443   6.318   1.280
28318WAT     H285197   9.360   6.196   1.210
28319WAT      O85198   7.531   2.948   1.564
28319WAT     H185199   7.550   2.931   1.661
28319WAT     H285200   7.440   2.913   1.541
28320WAT      O85201   2.913   9.027   5.672
28320WAT     H185202   2.892   8.955   5.738
28320WAT     H285203   2.828   9.063   5.634
28321WAT      O85204   9.833   0.447   2.816
28321WAT     H185205   9.815   0.498   2.732
28321WAT     H285206   9.928   0.461   2.844
28322WAT      O85207   1.943   8.950   8.962
28322WAT     H185208   2.022   8.889   8.961
28322WAT     H285209   1.924   8.982   8.869
28323WAT      O85210   4.681   8.229   7.892
28323WAT     H185211   4.758   8.173   7.859
28323WAT     H285212   4.624   8.256   7.815
28324WAT      O85213   3.170   4.833   6.754
28324WAT     H185214   3.205   4.880   6.835
28324WAT     H285215   3.223   4.861   6.674
28325WAT      O85216   1.927   1.498   9.807
28325WAT     H185217   1.954   1.417   9.860
28325WAT     H285218   2.009   1.537   9.763
28326WAT      O85219   2.526   2.043   9.065
28326WAT     H185220   2.522   2.119   9.001
28326WAT     H285221   2.434   2.011   9.085
28327WAT      O85222   0.361   0.310   0.240
28327WAT     H185223   0.427   0.375   0.278
28327WAT     H285224   0.406   0.224   0.219
28328WAT      O85225   4.590   7.793   4.234
28328WAT     H185226   4.551   7.859   4.171
28328WAT     H285227   4.628   7.716   4.182
28329WAT      O85228   5.589   9.678   3.000
28329WAT     H185229   5.654   9.683   2.924
28329WAT     H285230   5.559   9.583   3.013
28330WAT      O85231   5.772   1.172   8.574
28330WAT     H185232   5.805   1.200   8.664
28330WAT     H285233   5.673   1.175   8.572
28331WAT      O85234   9.627   1.497   6.892
28331WAT     H185235   9.687   1.576   6.903
28331WAT     H285236   9.598   1.489   6.797
28332WAT      O85237   5.452   4.486   3.526
28332WAT     H185238   5.421   4.555   3.592
28332WAT     H285239   5.459   4.397   3.572
28333WAT      O85240   6.879   3.291   1.120
28333WAT     H185241   6.799   3.319   1.172
28333WAT     H285242   6.949   3.363   1.125
28334WAT      O85243   3.644   6.158   6.934
28334WAT     H185244   3.680   6.106   7.012
28334WAT     H285245   3.570   6.217   6.964
28335WAT      O85246   1.100   2.468   1.252
28335WAT     H185247   1.035   2.543   1.240
28335WAT     H285248   1.069   2.409   1.327
28336WAT      O85249   5.935   1.366   2.794
28336WAT     H185250   5.983   1.278   2.800
28336WAT     H285251   5.839   1.352   2.815
28337WAT      O85252   9.877   4.872   2.289
28337WAT     H185253   9.819   4.808   2.340
28337WAT     H285254   9.969   4.835   2.281
28338WAT      O85255   0.153   1.374   4.584
28338WAT     H185256   0.131   1.306   4.514
28338WAT     H285257   0.068   1.408   4.625
28339WAT      O85258   2.115   7.988   0.538
28339WAT     H185259   2.046   8.015   0.604
28339WAT     H285260   2.072   7.975   0.448
28340WAT      O85261   9.264   3.531   9.696
28340WAT     H185262   9.345   3.483   9.730
28340WAT     H285263   9.290   3.589   9.619
28341WAT      O85264   6.329   5.894   2.363
28341WAT     H185265   6.361   5.986   2.343
28341WAT     H285266   6.403   5.828   2.344
28342WAT      O85267   0.968   4.827   5.285
28342WAT     H185268   1.009   4.804   5.196
28342WAT     H285269   0.869   4.809   5.281
28343WAT      O85270   7.677   9.312   4.266
28343WAT     H185271   7.695   9.221   4.230
28343WAT     H285272   7.714   9.381   4.204
28344WAT      O85273   2.946   1.901   5.779
28344WAT     H185274   2.945   1.814   5.728
28344WAT     H285275   2.874   1.961   5.743
28345WAT      O85276   9.265   8.112   9.807
28345WAT     H185277   9.312   8.169   9.739
28345WAT     H285278   9.317   8.113   9.892
28346WAT      O85279   8.498   6.017   4.208
28346WAT     H185280   8.583   5.972   4.237
28346WAT     H285281   8.484   6.099   4.263
28347WAT      O85282   2.900   9.330   6.122
28347WAT     H185283   2.813   9.367   6.090
28347WAT     H285284   2.970   9.402   6.121
28348WAT      O85285   1.570   7.024   1.333
28348WAT     H185286   1.640   6.964   1.373
28348WAT     H285287   1.503   6.969   1.283
28349WAT      O85288   4.888   3.687   0.180
28349WAT     H185289   4.862   3.649   0.091
28349WAT     H285290   4.860   3.783   0.185
28350WAT      O85291   8.046   3.123   4.211
28350WAT     H185292   8.023   3.204   4.158
28350WAT     H285293   7.978   3.051   4.194
28351WAT      O85294   5.227   2.318   8.337
28351WAT     H185295   5.247   2.314   8.435
28351WAT     H285296   5.206   2.413   8.311
28352WAT      O85297   5.339   2.560   4.001
28352WAT     H185298   5.247   2.548   3.965
28352WAT     H285299   5.357   2.491   4.071
28353WAT      O85300   0.761   2.115   4.816
28353WAT     H185301   0.725   2.050   4.750
28353WAT     H285302   0.685   2.168   4.856
28354WAT      O85303   5.398   8.797   8.983
28354WAT     H185304   5.304   8.810   9.011
28354WAT     H285305   5.434   8.883   8.944
28355WAT      O85306   5.203   1.046   1.632
28355WAT     H185307   5.127   1.078   1.688
28355WAT     H285308   5.175   1.041   1.536
28356WAT      O85309   3.103   7.722   8.114
28356WAT     H185310   3.193   7.734   8.074
28356WAT     H285311   3.112   7.679   8.204
28357WAT      O85312   2.648   2.899   4.482
28357WAT     H185313   2.714   2.824   4.474
28357WAT     H285314   2.561   2.864   4.516
28358WAT      O85315   8.187   2.621   0.283
28358WAT     H185316   8.157   2.713   0.306
28358WAT     H285317   8.185   2.609   0.183
28359WAT      O85318   0.743   5.693   2.148
28359WAT     H185319   0.704   5.631   2.217
28359WAT     H285320   0.835   5.662   2.123
28360WAT      O85321   6.027   4.744   5.992
28360WAT     H185322   6.118   4.721   6.026
28360WAT     H285323   6.029   4.755   5.893
28361WAT      O85324   5.652   3.540   8.783
28361WAT     H185325   5.598   3.520   8.701
28361WAT     H285326   5.595   3.590   8.848
28362WAT      O85327   8.052   4.889   4.548
28362WAT     H185328   8.026   4.913   4.455
28362WAT     H285329   8.067   4.973   4.601
28363WAT      O85330   1.753   3.738   0.579
28363WAT     H185331   1.683   3.803   0.550
28363WAT     H285332   1.709   3.657   0.619
28364WAT      O85333   5.753   8.498   8.074
28364WAT     H185334   5.805   8.413   8.078
28364WAT     H285335   5.784   8.551   7.995
28365WAT      O85336   4.208   8.241   0.890
28365WAT     H185337   4.233   8.315   0.953
28365WAT     H285338   4.114   8.254   0.859
28366WAT      O85339   2.045   3.650   2.294
28366WAT     H185340   2.136   3.629   2.329
28366WAT     H285341   2.035   3.613   2.202
28367WAT      O85342   0.539   6.014   2.733
28367WAT     H185343   0.613   6.000   2.668
28367WAT     H285344   0.467   5.946   2.716
28368WAT      O85345   1.024   1.651   2.210
28368WAT     H185346   1.082   1.590   2.263
28368WAT     H285347   1.065   1.667   2.120
28369WAT      O85348   0.889   3.958   4.558
28369WAT     H185349   0.980   3.937   4.522
28369WAT     H285350   0.875   4.057   4.555
28370WAT      O85351   3.298   9.070   6.094
28370WAT     H185352   3.254   9.068   6.183
28370WAT     H285353   3.255   9.002   6.034
28371WAT      O85354   4.588   7.121   8.423
28371WAT     H185355   4.533   7.161   8.350
28371WAT     H285356   4.579   7.021   8.420
28372WAT      O85357   2.373   2.620   9.001
28372WAT     H185358   2.400   2.547   8.937
28372WAT     H285359   2.304   2.584   9.064
28373WAT      O85360   9.753   1.592   7.576
28373WAT     H185361   9.750   1.643   7.662
28373WAT     H285362   9.711   1.502   7.589
28374WAT      O85363   3.934   9.318   9.428
28374WAT     H185364   3.989   9.292   9.349
28374WAT     H285365   3.941   9.416   9.443
28375WAT      O85366   1.895   5.715   5.381
28375WAT     H185367   1.975   5.771   5.358
28375WAT     H285368   1.886   5.710   5.481
28376WAT      O85369   8.813   3.296   3.433
28376WAT     H185370   8.775   3.281   3.524
28376WAT     H285371   8.904   3.337   3.441
28377WAT      O85372   2.580   7.281   7.209
28377WAT     H185373   2.567   7.373   7.247
28377WAT     H285374   2.544   7.278   7.116
28378WAT      O85375   5.606   6.357   4.342
28378WAT     H185376   5.602   6.446   4.296
28378WAT     H285377   5.606   6.284   4.273
28379WAT      O85378   1.057   2.411   3.894
28379WAT     H185379   1.039   2.474   3.817
28379WAT     H285380   1.007   2.442   3.974
28380WAT      O85381   4.988   7.387   0.409
28380WAT     H185382   4.920   7.405   0.338
28380WAT     H285383   4.951   7.320   0.474
28381WAT      O85384   9.525   5.572   2.898
28381WAT     H185385   9.609   5.551   2.947
28381WAT     H285386   9.526   5.529   2.808
28382WAT      O85387   5.198   5.211   3.073
28382WAT     H185388   5.199   5.154   3.155
28382WAT     H285389   5.125   5.279   3.080
28383WAT      O85390   9.338   2.489   7.737
28383WAT     H185391   9.273   2.536   7.796
28383WAT     H285392   9.342   2.535   7.648
28384WAT      O85393   5.281   3.110   9.101
28384WAT     H185394   5.351   3.139   9.036
28384WAT     H285395   5.277   3.010   9.103
28385WAT      O85396   0.882   4.281   4.828
28385WAT     H185397   0.921   4.198   4.869
28385WAT     H285398   0.884   4.273   4.728
28386WAT      O85399   8.764   5.163   4.731
28386WAT     H185400   8.800   5.201   4.646
28386WAT     H285401   8.760   5.063   4.723
28387WAT      O85402   9.823   2.454   3.710
28387WAT     H185403   9.890   2.429   3.640
28387WAT     H285404   9.848   2.542   3.751
28388WAT      O85405   9.720   3.289   8.579
28388WAT     H185406   9.636   3.322   8.535
28388WAT     H285407   9.725   3.328   8.671
28389WAT      O85408   9.250   4.453   2.922
28389WAT     H185409   9.339   4.479   2.959
28389WAT     H285410   9.249   4.355   2.902
28390WAT      O85411   1.601   8.150   7.538
28390WAT     H185412   1.598   8.056   7.503
28390WAT     H285413   1.679   8.198   7.497
28391WAT      O85414   2.200   4.643   4.624
28391WAT     H185415   2.244   4.699   4.695
28391WAT     H285416   2.106   4.675   4.610
28392WAT      O85417   1.120   1.039   3.161
28392WAT     H185418   1.161   1.044   3.252
28392WAT     H285419   1.128   1.127   3.115
28393WAT      O85420   6.772   7.556   3.166
28393WAT     H185421   6.730   7.622   3.103
28393WAT     H285422   6.785   7.469   3.119
28394WAT      O85423   7.451   8.535   2.237
28394WAT     H185424   7.368   8.563   2.286
28394WAT     H285425   7.470   8.601   2.165
28395WAT      O85426   0.617   2.012   9.201
28395WAT     H185427   0.675   2.092   9.186
28395WAT     H285428   0.605   1.963   9.114
28396WAT      O85429   3.793   0.094   3.107
28396WAT     H185430   3.858   0.097   3.183
28396WAT     H285431   3.701   0.080   3.143
28397WAT      O85432   4.423   2.431   4.786
28397WAT     H185433   4.469   2.519   4.793
28397WAT     H285434   4.441   2.377   4.868
28398WAT      O85435   1.130   8.719   0.523
28398WAT     H185436   1.172   8.795   0.572
28398WAT     H285437   1.032   8.736   0.511
28399WAT      O85438   8.587   4.586   0.900
28399WAT     H185439   8.669   4.555   0.853
28399WAT     H285440   8.507   4.540   0.862
28400WAT      O85441   5.725   6.193   9.334
28400WAT     H185442   5.736   6.286   9.297
28400WAT     H285443   5.794   6.177   9.404
28401WAT      O85444   1.516   0.587   8.961
28401WAT     H185445   1.550   0.519   9.025
28401WAT     H285446   1.588   0.654   8.942
28402WAT      O85447   7.519   9.489   6.762
28402WAT     H185448   7.501   9.580   6.799
28402WAT     H285449   7.578   9.496   6.683
28403WAT      O85450   1.772   0.541   3.180
28403WAT     H185451   1.736   0.451   3.157
28403WAT     H285452   1.807   0.541   3.274
28404WAT      O85453   4.594   7.553   7.321
28404WAT     H185454   4.603   7.637   7.374
28404WAT     H285455   4.521   7.564   7.253
28405WAT      O85456   9.136   7.720   6.133
28405WAT     H185457   9.162   7.724   6.229
28405WAT     H285458   9.206   7.671   6.082
28406WAT      O85459   4.757   7.574   0.663
28406WAT     H185460   4.696   7.582   0.742
28406WAT     H285461   4.719   7.627   0.587
28407WAT      O85462   9.698   0.009   0.495
28407WAT     H185463   9.700  -0.091   0.498
28407WAT     H285464   9.767   0.046   0.557
28408WAT      O85465   5.234   3.975   0.083
28408WAT     H185466   5.195   3.952   0.172
28408WAT     H285467   5.225   3.897   0.021
28409WAT      O85468   4.901   1.115   4.396
28409WAT     H185469   4.929   1.050   4.467
28409WAT     H285470   4.804   1.103   4.376
28410WAT      O85471   6.763   9.093   3.610
28410WAT     H185472   6.854   9.063   3.584
28410WAT     H285473   6.744   9.066   3.705
28411WAT      O85474   2.653   8.088   1.323
28411WAT     H185475   2.627   8.170   1.374
28411WAT     H285476   2.737   8.106   1.272
28412WAT      O85477   9.754   5.673   7.209
28412WAT     H185478   9.813   5.675   7.290
28412WAT     H285479   9.724   5.766   7.188
28413WAT      O85480   9.662   0.391   9.659
28413WAT     H185481   9.686   0.368   9.565
28413WAT     H285482   9.659   0.490   9.670
28414WAT      O85483   0.146   3.440   7.615
28414WAT     H185484   0.060   3.447   7.565
28414WAT     H285485   0.126   3.425   7.712
28415WAT      O85486   9.207   9.814   6.853
28415WAT     H185487   9.165   9.903   6.834
28415WAT     H285488   9.222   9.765   6.767
28416WAT      O85489   3.269   9.773   0.205
28416WAT     H185490   3.209   9.834   0.256
28416WAT     H285491   3.328   9.723   0.268
28417WAT      O85492   5.736   7.314   3.775
28417WAT     H185493   5.671   7.264   3.832
28417WAT     H285494   5.768   7.254   3.701
28418WAT      O85495   2.032   1.236   7.119
28418WAT     H185496   1.939   1.197   7.117
28418WAT     H285497   2.096   1.170   7.079
28419WAT      O85498   1.574   2.526   1.488
28419WAT     H185499   1.544   2.489   1.576
28419WAT     H285500   1.654   2.584   1.502
28420WAT      O85501   3.011   5.224   0.827
28420WAT     H185502   3.039   5.149   0.887
28420WAT     H285503   3.082   5.241   0.759
28421WAT      O85504   6.637   6.775   8.783
28421WAT     H185505   6.731   6.762   8.752
28421WAT     H285506   6.576   6.717   8.730
28422WAT      O85507   3.863   7.165   6.740
28422WAT     H185508   3.927   7.141   6.813
28422WAT     H285509   3.911   7.164   6.652
28423WAT      O85510   7.719   4.008   9.453
28423WAT     H185511   7.640   3.981   9.399
28423WAT     H285512   7.803   3.996   9.399
28424WAT      O85513   5.577   6.250   0.163
28424WAT     H185514   5.603   6.304   0.083
28424WAT     H285515   5.629   6.281   0.243
28425WAT      O85516   1.921   2.494   4.122
28425WAT     H185517   2.018   2.515   4.132
28425WAT     H285518   1.879   2.487   4.213
28426WAT      O85519   4.675   3.540   4.453
28426WAT     H185520   4.718   3.536   4.543
28426WAT     H285521   4.694   3.456   4.403
28427WAT      O85522   4.723   9.298   7.555
28427WAT     H185523   4.697   9.268   7.647
28427WAT     H285524   4.807   9.251   7.527
28428WAT      O85525   3.286   8.438   1.593
28428WAT     H185526   3.357   8.377   1.558
28428WAT     H285527   3.328   8.511   1.646
28429WAT      O85528   1.195   2.566   5.399
28429WAT     H185529   1.117   2.585   5.457
28429WAT     H285530   1.249   2.649   5.386
28430WAT      O85531   1.570   2.867   9.787
28430WAT     H185532   1.656   2.917   9.792
28430WAT     H285533   1.493   2.929   9.804
28431WAT      O85534   4.688   0.274   9.581
28431WAT     H185535   4.601   0.279   9.629
28431WAT     H285536   4.674   0.294   9.484
28432WAT      O85537   6.564   1.627   1.921
28432WAT     H185538   6.656   1.657   1.945
28432WAT     H285539   6.566   1.580   1.833
28433WAT      O85540   3.163   2.727   6.887
28433WAT     H185541   3.233   2.697   6.952
28433WAT     H285542   3.139   2.652   6.825
28434WAT      O85543   6.437   8.104   9.489
28434WAT     H185544   6.433   8.121   9.587
28434WAT     H285545   6.390   8.177   9.440
28435WAT      O85546   4.641   6.115   7.683
28435WAT     H185547   4.618   6.206   7.648
28435WAT     H285548   4.737   6.113   7.712
28436WAT      O85549   6.488   5.367   1.738
28436WAT     H185550   6.570   5.314   1.760
28436WAT     H285551   6.423   5.360   1.814
28437WAT      O85552   4.197   5.782   0.543
28437WAT     H185553   4.239   5.747   0.459
28437WAT     H285554   4.183   5.706   0.607
28438WAT      O85555   0.461   5.211   7.095
28438WAT     H185556   0.460   5.295   7.150
28438WAT     H285557   0.427   5.232   7.003
28439WAT      O85558   6.589   3.255   1.646
28439WAT     H185559   6.630   3.178   1.695
28439WAT     H285560   6.643   3.338   1.663
28440WAT      O85561   4.316   1.009   3.556
28440WAT     H185562   4.384   0.939   3.573
28440WAT     H285563   4.311   1.028   3.457
28441WAT      O85564   2.038   9.508   3.479
28441WAT     H185565   2.081   9.423   3.510
28441WAT     H285566   2.026   9.569   3.557
28442WAT      O85567   9.706   2.598   7.098
28442WAT     H185568   9.638   2.670   7.088
28442WAT     H285569   9.725   2.557   7.009
28443WAT      O85570   5.499   1.984   5.551
28443WAT     H185571   5.549   1.934   5.621
28443WAT     H285572   5.552   1.986   5.466
28444WAT      O85573   5.593   4.222   7.072
28444WAT     H185574   5.541   4.216   6.987
28444WAT     H285575   5.688   4.194   7.054
28445WAT      O85576   1.983   4.311   3.383
28445WAT     H185577   1.963   4.404   3.414
28445WAT     H285578   1.898   4.266   3.354
28446WAT      O85579   4.714   7.833   7.157
28446WAT     H185580   4.772   7.856   7.080
28446WAT     H285581   4.648   7.907   7.173
28447WAT      O85582   0.965   2.962   4.361
28447WAT     H185583   0.988   2.985   4.267
28447WAT     H285584   0.993   3.036   4.422
28448WAT      O85585   2.059   7.851   1.604
28448WAT     H185586   2.001   7.887   1.678
28448WAT     H285587   2.064   7.917   1.530
28449WAT      O85588   0.959   0.034   3.091
28449WAT     H185589   1.001   0.094   3.159
28449WAT     H285590   0.874  -0.005   3.128
28450WAT      O85591   8.348   6.805   9.814
28450WAT     H185592   8.434   6.853   9.796
28450WAT     H285593   8.362   6.707   9.803
28451WAT      O85594   9.208   3.736   8.705
28451WAT     H185595   9.292   3.684   8.718
28451WAT     H285596   9.134   3.692   8.755
28452WAT      O85597   1.620   1.466   4.305
28452WAT     H185598   1.696   1.531   4.303
28452WAT     H285599   1.539   1.511   4.342
28453WAT      O85600   3.492   5.867   1.127
28453WAT     H185601   3.406   5.877   1.177
28453WAT     H285602   3.491   5.927   1.047
28454WAT      O85603   1.121   2.470   5.159
28454WAT     H185604   1.195   2.419   5.116
28454WAT     H285605   1.149   2.499   5.250
28455WAT      O85606   2.704   4.647   4.113
28455WAT     H185607   2.769   4.572   4.100
28455WAT     H285608   2.678   4.683   4.024
28456WAT      O85609   1.618   0.355   4.336
28456WAT     H185610   1.622   0.262   4.372
28456WAT     H285611   1.526   0.373   4.301
28457WAT      O85612   7.910   7.245   5.513
28457WAT     H185613   7.978   7.173   5.524
28457WAT     H285614   7.868   7.237   5.423
28458WAT      O85615   1.450   4.072   8.238
28458WAT     H185616   1.447   3.972   8.251
28458WAT     H285617   1.544   4.099   8.216
28459WAT      O85618   3.670   2.592   4.341
28459WAT     H185619   3.682   2.493   4.345
28459WAT     H285620   3.636   2.625   4.429
28460WAT      O85621   3.531   3.356   3.471
28460WAT     H185622   3.556   3.262   3.447
28460WAT     H285623   3.460   3.356   3.540
28461WAT      O85624   6.565   8.761   7.033
28461WAT     H185625   6.469   8.752   7.057
28461WAT     H285626   6.610   8.824   7.096
28462WAT      O85627   8.650   0.197   9.412
28462WAT     H185628   8.616   0.115   9.367
28462WAT     H285629   8.626   0.278   9.359
28463WAT      O85630   2.994   6.623   0.337
28463WAT     H185631   3.069   6.644   0.400
28463WAT     H285632   2.952   6.536   0.364
28464WAT      O85633   2.412   3.196   6.314
28464WAT     H185634   2.451   3.104   6.326
28464WAT     H285635   2.425   3.226   6.219
28465WAT      O85636   3.963   3.867   1.984
28465WAT     H185637   3.973   3.818   2.071
28465WAT     H285638   4.050   3.862   1.934
28466WAT      O85639   0.190   7.409   1.728
28466WAT     H185640   0.107   7.459   1.703
28466WAT     H285641   0.173   7.310   1.720
28467WAT      O85642   3.866   2.311   3.364
28467WAT     H185643   3.769   2.291   3.378
28467WAT     H285644   3.903   2.249   3.295
28468WAT      O85645   8.068   4.146   2.065
28468WAT     H185646   8.135   4.217   2.040
28468WAT     H285647   7.982   4.190   2.090
28469WAT      O85648   9.581   3.830   7.288
28469WAT     H185649   9.597   3.913   7.235
28469WAT     H285650   9.509   3.776   7.245
28470WAT      O85651   2.326   8.193   6.089
28470WAT     H185652   2.351   8.274   6.142
28470WAT     H285653   2.347   8.209   5.992
28471WAT      O85654   2.487   5.797   3.472
28471WAT     H185655   2.389   5.805   3.455
28471WAT     H285656   2.524   5.887   3.495
28472WAT      O85657   3.286   5.133   2.083
28472WAT     H185658   3.215   5.167   2.021
28472WAT     H285659   3.257   5.046   2.123
28473WAT      O85660   3.308   3.826   9.305
28473WAT     H185661   3.292   3.919   9.275
28473WAT     H285662   3.240   3.801   9.375
28474WAT      O85663   0.727   3.020   5.288
28474WAT     H185664   0.815   2.996   5.331
28474WAT     H285665   0.686   3.096   5.338
28475WAT      O85666   9.791   8.590   3.938
28475WAT     H185667   9.714   8.651   3.952
28475WAT     H285668   9.788   8.515   4.004
28476WAT      O85669   6.148   1.317   5.216
28476WAT     H185670   6.226   1.264   5.250
28476WAT     H285671   6.093   1.348   5.293
28477WAT      O85672   6.813   9.091   8.318
28477WAT     H185673   6.859   9.128   8.399
28477WAT     H285674   6.721   9.061   8.342
28478WAT      O85675   2.145   0.225   4.810
28478WAT     H185676   2.051   0.253   4.832
28478WAT     H285677   2.146   0.177   4.723
28479WAT      O85678   4.070   9.311   1.279
28479WAT     H185679   3.989   9.282   1.229
28479WAT     H285680   4.104   9.235   1.335
28480WAT      O85681   1.796   0.802   4.356
28480WAT     H185682   1.710   0.807   4.306
28480WAT     H285683   1.805   0.711   4.397
28481WAT      O85684   1.931   0.941   0.400
28481WAT     H185685   1.850   0.929   0.344
28481WAT     H285686   1.927   0.881   0.479
28482WAT      O85687   3.603   6.952   0.641
28482WAT     H185688   3.612   6.897   0.558
28482WAT     H285689   3.557   6.898   0.711
28483WAT      O85690   1.728   1.592   9.618
28483WAT     H185691   1.814   1.574   9.666
28483WAT     H285692   1.682   1.670   9.660
28484WAT      O85693   0.250   4.563   9.058
28484WAT     H185694   0.236   4.660   9.078
28484WAT     H285695   0.267   4.551   8.961
28485WAT      O85696   8.298   1.607   8.170
28485WAT     H185697   8.226   1.658   8.123
28485WAT     H285698   8.258   1.555   8.246
28486WAT      O85699   9.185   8.060   7.262
28486WAT     H185700   9.235   8.147   7.268
28486WAT     H285701   9.087   8.079   7.253
28487WAT      O85702   6.956   4.528   1.251
28487WAT     H185703   7.029   4.521   1.319
28487WAT     H285704   6.872   4.485   1.286
28488WAT      O85705   4.946   0.638   3.090
28488WAT     H185706   4.896   0.562   3.048
28488WAT     H285707   4.940   0.718   3.031
28489WAT      O85708   7.707   8.807   6.679
28489WAT     H185709   7.792   8.780   6.633
28489WAT     H285710   7.656   8.725   6.705
28490WAT      O85711   3.720   5.917   4.385
28490WAT     H185712   3.772   6.002   4.371
28490WAT     H285713   3.779   5.849   4.430
28491WAT      O85714   4.626   9.358   5.298
28491WAT     H185715   4.532   9.366   5.331
28491WAT     H285716   4.686   9.415   5.353
28492WAT      O85717   9.543   3.475   0.983
28492WAT     H185718   9.468   3.426   1.027
28492WAT     H285719   9.515   3.504   0.891
28493WAT      O85720   9.182   3.290   0.198
28493WAT     H185721   9.159   3.384   0.222
28493WAT     H285722   9.119   3.257   0.128
28494WAT      O85723   4.343   8.707   8.466
28494WAT     H185724   4.244   8.701   8.452
28494WAT     H285725   4.385   8.619   8.441
28495WAT      O85726   6.780   5.582   8.541
28495WAT     H185727   6.836   5.647   8.593
28495WAT     H285728   6.778   5.494   8.589
28496WAT      O85729   7.072   6.235   7.710
28496WAT     H185730   7.090   6.193   7.621
28496WAT     H285731   7.158   6.248   7.759
28497WAT      O85732   6.727   9.462   6.421
28497WAT     H185733   6.773   9.512   6.348
28497WAT     H285734   6.749   9.365   6.414
28498WAT      O85735   0.461   2.260   1.679
28498WAT     H185736   0.442   2.195   1.606
28498WAT     H285737   0.389   2.330   1.681
28499WAT      O85738   8.131   4.994   7.574
28499WAT     H185739   8.221   5.024   7.543
28499WAT     H285740   8.140   4.942   7.659
28500WAT      O85741   0.872   8.714   2.959
28500WAT     H185742   0.883   8.802   2.914
28500WAT     H285743   0.810   8.657   2.906
28501WAT      O85744   6.542   1.908   0.989
28501WAT     H185745   6.469   1.928   0.923
28501WAT     H285746   6.597   1.831   0.955
28502WAT      O85747   6.128   0.497   4.243
28502WAT     H185748   6.118   0.492   4.144
28502WAT     H285749   6.175   0.415   4.276
28503WAT      O85750   3.301   4.784   0.014
28503WAT     H185751   3.267   4.857  -0.044
28503WAT     H285752   3.261   4.793   0.106
28504WAT      O85753   6.766   7.263   6.553
28504WAT     H185754   6.772   7.297   6.459
28504WAT     H285755   6.849   7.212   6.576
28505WAT      O85756   0.644   0.335   9.689
28505WAT     H185757   0.582   0.290   9.625
28505WAT     H285758   0.729   0.283   9.696
28506WAT      O85759   0.407   1.579   8.826
28506WAT     H185760   0.501   1.601   8.854
28506WAT     H285761   0.407   1.539   8.735
28507WAT      O85762   6.095   3.495   2.189
28507WAT     H185763   6.152   3.512   2.109
28507WAT     H285764   6.003   3.529   2.172
28508WAT      O85765   7.017   7.656   9.587
28508WAT     H185766   7.087   7.681   9.520
28508WAT     H285767   7.008   7.729   9.655
28509WAT      O85768   0.849   0.712   0.982
28509WAT     H185769   0.942   0.733   1.012
28509WAT     H285770   0.786   0.782   1.018
28510WAT      O85771   3.916   7.143   5.197
28510WAT     H185772   3.959   7.231   5.179
28510WAT     H285773   3.817   7.150   5.180
28511WAT      O85774   6.698   2.002   5.383
28511WAT     H185775   6.624   2.052   5.338
28511WAT     H285776   6.750   2.065   5.441
28512WAT      O85777   8.096   7.704   3.069
28512WAT     H185778   8.033   7.629   3.091
28512WAT     H285779   8.094   7.721   2.971
28513WAT      O85780   1.882   9.609   7.421
28513WAT     H185781   1.828   9.594   7.504
28513WAT     H285782   1.973   9.642   7.446
28514WAT      O85783   4.462   0.027   8.092
28514WAT     H185784   4.389   0.091   8.116
28514WAT     H285785   4.551   0.072   8.102
28515WAT      O85786   7.032   2.893   5.258
28515WAT     H185787   7.010   2.967   5.195
28515WAT     H285788   6.951   2.836   5.272
28516WAT      O85789   9.609   0.135   0.840
28516WAT     H185790   9.664   0.197   0.896
28516WAT     H285791   9.519   0.175   0.825
28517WAT      O85792   5.682   6.101   2.521
28517WAT     H185793   5.713   6.007   2.506
28517WAT     H285794   5.585   6.109   2.499
28518WAT      O85795   9.568   8.784   7.980
28518WAT     H185796   9.644   8.747   8.033
28518WAT     H285797   9.546   8.876   8.011
28519WAT      O85798   1.131   8.178   1.273
28519WAT     H185799   1.128   8.095   1.218
28519WAT     H285800   1.096   8.255   1.219
28520WAT      O85801   6.838   1.929   8.103
28520WAT     H185802   6.913   1.878   8.144
28520WAT     H285803   6.828   2.017   8.150
28521WAT      O85804   9.571   2.382   3.163
28521WAT     H185805   9.632   2.415   3.234
28521WAT     H285806   9.567   2.449   3.089
28522WAT      O85807   4.086   7.092   3.859
28522WAT     H185808   4.087   6.993   3.843
28522WAT     H285809   4.004   7.118   3.909
28523WAT      O85810   8.316   4.179   8.778
28523WAT     H185811   8.324   4.277   8.758
28523WAT     H285812   8.408   4.140   8.789
28524WAT      O85813   2.145   1.618   2.977
28524WAT     H185814   2.151   1.532   2.926
28524WAT     H285815   2.084   1.605   3.056
28525WAT      O85816   8.394   5.624   0.512
28525WAT     H185817   8.436   5.610   0.601
28525WAT     H285818   8.352   5.714   0.508
28526WAT      O85819   5.245   7.962   7.686
28526WAT     H185820   5.154   7.980   7.723
28526WAT     H285821   5.311   8.026   7.727
28527WAT      O85822   9.828   5.585   6.969
28527WAT     H185823   9.838   5.662   6.907
28527WAT     H285824   9.806   5.618   7.061
28528WAT      O85825   9.188   1.315   2.551
28528WAT     H185826   9.165   1.365   2.467
28528WAT     H285827   9.172   1.217   2.537
28529WAT      O85828   2.879   0.899   3.294
28529WAT     H185829   2.877   0.983   3.349
28529WAT     H285830   2.848   0.919   3.202
28530WAT      O85831   4.384   3.516   4.449
28530WAT     H185832   4.323   3.503   4.527
28530WAT     H285833   4.479   3.518   4.482
28531WAT      O85834   1.464   2.434   2.928
28531WAT     H185835   1.446   2.344   2.890
28531WAT     H285836   1.443   2.434   3.025
28532WAT      O85837   4.819   3.130   5.647
28532WAT     H185838   4.744   3.196   5.644
28532WAT     H285839   4.902   3.176   5.678
28533WAT      O85840   1.793   3.478   7.181
28533WAT     H185841   1.798   3.399   7.120
28533WAT     H285842   1.871   3.538   7.164
28534WAT      O85843   3.922   8.247   6.554
28534WAT     H185844   3.935   8.347   6.549
28534WAT     H285845   3.935   8.217   6.648
28535WAT      O85846   5.695   2.381   6.773
28535WAT     H185847   5.726   2.398   6.867
28535WAT     H285848   5.771   2.343   6.720
28536WAT      O85849   8.569   5.259   4.898
28536WAT     H185850   8.570   5.196   4.976
28536WAT     H285851   8.627   5.223   4.825
28537WAT      O85852   9.315   2.063   0.012
28537WAT     H185853   9.316   1.964   0.004
28537WAT     H285854   9.373   2.090   0.089
28538WAT      O85855   5.332   0.617   8.027
28538WAT     H185856   5.407   0.554   8.008
28538WAT     H285857   5.248   0.582   7.986
28539WAT      O85858   4.077   7.834   6.784
28539WAT     H185859   4.047   7.833   6.879
28539WAT     H285860   4.171   7.869   6.779
28540WAT      O85861   5.546   5.803   5.551
28540WAT     H185862   5.473   5.866   5.573
28540WAT     H285863   5.608   5.794   5.629
28541WAT      O85864   9.378   7.575   1.610
28541WAT     H185865   9.413   7.539   1.696
28541WAT     H285866   9.455   7.605   1.553
28542WAT      O85867   6.234   8.669   3.517
28542WAT     H185868   6.217   8.571   3.509
28542WAT     H285869   6.147   8.717   3.529
28543WAT      O85870   8.220   4.500   9.483
28543WAT     H185871   8.181   4.440   9.413
28543WAT     H285872   8.253   4.445   9.560
28544WAT      O85873   8.689   5.034   1.937
28544WAT     H185874   8.602   5.031   1.987
28544WAT     H285875   8.760   4.989   1.991
28545WAT      O85876   2.300   4.817   7.056
28545WAT     H185877   2.210   4.788   7.023
28545WAT     H285878   2.327   4.901   7.009
28546WAT      O85879   5.143   5.662   4.403
28546WAT     H185880   5.051   5.633   4.376
28546WAT     H285881   5.189   5.705   4.325
28547WAT      O85882   8.391   7.735   3.973
28547WAT     H185883   8.472   7.678   3.956
28547WAT     H285884   8.392   7.765   4.069
28548WAT      O85885   7.113   3.320   9.207
28548WAT     H185886   7.165   3.246   9.165
28548WAT     H285887   7.041   3.282   9.265
28549WAT      O85888   1.185   5.987   7.906
28549WAT     H185889   1.171   5.903   7.854
28549WAT     H285890   1.176   6.066   7.846
28550WAT      O85891   9.136   3.127   8.030
28550WAT     H185892   9.180   3.205   8.074
28550WAT     H285893   9.206   3.068   7.989
28551WAT      O85894   1.770   7.556   7.864
28551WAT     H185895   1.782   7.490   7.938
28551WAT     H285896   1.809   7.644   7.890
28552WAT      O85897   0.191   5.160   1.648
28552WAT     H185898   0.171   5.083   1.708
28552WAT     H285899   0.289   5.160   1.626
28553WAT      O85900   8.194   8.889   9.099
28553WAT     H185901   8.236   8.945   9.172
28553WAT     H285902   8.098   8.913   9.090
28554WAT      O85903   6.413   3.691   7.715
28554WAT     H185904   6.453   3.767   7.664
28554WAT     H285905   6.411   3.610   7.657
28555WAT      O85906   0.386   5.144   7.528
28555WAT     H185907   0.462   5.086   7.498
28555WAT     H285908   0.305   5.087   7.544
28556WAT      O85909   8.128   7.308   6.386
28556WAT     H185910   8.164   7.313   6.479
28556WAT     H285911   8.028   7.310   6.388
28557WAT      O85912   4.456   9.647   7.667
28557WAT     H185913   4.401   9.634   7.584
28557WAT     H285914   4.544   9.601   7.657
28558WAT      O85915   5.823   0.066   1.965
28558WAT     H185916   5.876   0.037   2.044
28558WAT     H285917   5.790  -0.015   1.915
28559WAT      O85918   6.822   5.772   5.908
28559WAT     H185919   6.840   5.778   5.810
28559WAT     H285920   6.724   5.781   5.925
28560WAT      O85921   5.709   2.878   7.290
28560WAT     H185922   5.760   2.800   7.325
28560WAT     H285923   5.769   2.936   7.234
28561WAT      O85924   8.549   6.791   0.293
28561WAT     H185925   8.460   6.755   0.264
28561WAT     H285926   8.571   6.756   0.384
28562WAT      O85927   3.321   0.326   2.753
28562WAT     H185928   3.328   0.239   2.704
28562WAT     H285929   3.384   0.393   2.714
28563WAT      O85930   8.068   0.988   0.427
28563WAT     H185931   8.036   0.931   0.503
28563WAT     H285932   8.081   0.931   0.346
28564WAT      O85933   6.618   0.425   2.471
28564WAT     H185934   6.561   0.479   2.532
28564WAT     H285935   6.700   0.393   2.520
28565WAT      O85936   3.351   6.999   1.675
28565WAT     H185937   3.449   6.987   1.662
28565WAT     H285938   3.334   7.082   1.729
28566WAT      O85939   8.529   8.344   3.868
28566WAT     H185940   8.621   8.383   3.876
28566WAT     H285941   8.513   8.317   3.773
28567WAT      O85942   0.881   6.186   6.021
28567WAT     H185943   0.832   6.110   6.062
28567WAT     H285944   0.971   6.154   5.988
28568WAT      O85945   8.358   5.821   4.824
28568WAT     H185946   8.393   5.802   4.915
28568WAT     H285947   8.372   5.741   4.765
28569WAT      O85948   6.965   2.364   1.162
28569WAT     H185949   6.907   2.301   1.213
28569WAT     H285950   6.933   2.369   1.068
28570WAT      O85951   9.394   3.702   6.142
28570WAT     H185952   9.332   3.707   6.064
28570WAT     H285953   9.433   3.792   6.159
28571WAT      O85954   8.127   7.838   2.581
28571WAT     H185955   8.157   7.933   2.591
28571WAT     H285956   8.044   7.836   2.524
28572WAT      O85957   1.233   0.706   5.203
28572WAT     H185958   1.135   0.702   5.223
28572WAT     H285959   1.257   0.634   5.138
28573WAT      O85960   2.545   2.526   6.138
28573WAT     H185961   2.582   2.537   6.230
28573WAT     H285962   2.617   2.542   6.071
28574WAT      O85963   0.655   3.503   4.868
28574WAT     H185964   0.589   3.555   4.923
28574WAT     H285965   0.651   3.534   4.773
28575WAT      O85966   1.682   5.687   7.712
28575WAT     H185967   1.719   5.604   7.754
28575WAT     H285968   1.738   5.712   7.632
28576WAT      O85969   2.072   8.244   0.905
28576WAT     H185970   1.983   8.200   0.920
28576WAT     H285971   2.072   8.287   0.815
28577WAT      O85972   5.464   4.987   1.340
28577WAT     H185973   5.386   4.929   1.363
28577WAT     H285974   5.548   4.948   1.380
28578WAT      O85975   4.929   4.647   0.179
28578WAT     H185976   4.935   4.725   0.116
28578WAT     H285977   5.010   4.647   0.238
28579WAT      O85978   0.557   4.044   2.323
28579WAT     H185979   0.520   3.951   2.332
28579WAT     H285980   0.625   4.059   2.394
28580WAT      O85981   9.210   6.630   2.741
28580WAT     H185982   9.206   6.691   2.820
28580WAT     H285983   9.221   6.684   2.658
28581WAT      O85984   7.433   3.404   1.537
28581WAT     H185985   7.492   3.415   1.617
28581WAT     H285986   7.480   3.441   1.456
28582WAT      O85987   0.574   5.342   6.455
28582WAT     H185988   0.483   5.382   6.468
28582WAT     H285989   0.642   5.415   6.453
28583WAT      O85990   5.350   8.093   1.411
28583WAT     H185991   5.365   8.191   1.422
28583WAT     H285992   5.388   8.044   1.489
28584WAT      O85993   4.971   3.691   6.660
28584WAT     H185994   4.997   3.740   6.743
28584WAT     H285995   4.995   3.745   6.580
28585WAT      O85996   4.982   0.525   1.802
28585WAT     H185997   5.009   0.443   1.752
28585WAT     H285998   5.056   0.553   1.863
28586WAT      O85999   0.393   4.527   6.548
28586WAT     H186000   0.480   4.562   6.584
28586WAT     H286001   0.321   4.546   6.614
28587WAT      O86002   7.914   8.197   6.315
28587WAT     H186003   7.873   8.185   6.405
28587WAT     H286004   7.847   8.238   6.253
28588WAT      O86005   7.179   4.609   3.361
28588WAT     H186006   7.095   4.577   3.319
28588WAT     H286007   7.222   4.534   3.411
28589WAT      O86008   2.396   9.272   3.686
28589WAT     H186009   2.399   9.181   3.727
28589WAT     H286010   2.474   9.326   3.717
28590WAT      O86011   6.299   4.447   5.369
28590WAT     H186012   6.215   4.502   5.369
28590WAT     H286013   6.276   4.350   5.360
28591WAT      O86014   0.968   8.239   3.835
28591WAT     H186015   0.976   8.146   3.874
28591WAT     H286016   0.911   8.236   3.753
28592WAT      O86017   3.875   4.076   2.591
28592WAT     H186018   3.864   4.022   2.508
28592WAT     H286019   3.880   4.015   2.671
28593WAT      O86020   1.659   8.556   6.028
28593WAT     H186021   1.695   8.464   6.047
28593WAT     H286022   1.616   8.593   6.109
28594WAT      O86023   5.167   2.661   3.639
28594WAT     H186024   5.234   2.608   3.589
28594WAT     H286025   5.086   2.606   3.656
28595WAT      O86026   5.908   5.198   5.783
28595WAT     H186027   5.926   5.262   5.708
28595WAT     H286028   5.986   5.199   5.846
28596WAT      O86029   2.600   8.677   8.153
28596WAT     H186030   2.506   8.661   8.123
28596WAT     H286031   2.627   8.605   8.217
28597WAT      O86032   9.502   3.945   3.880
28597WAT     H186033   9.524   3.932   3.784
28597WAT     H286034   9.580   3.987   3.927
28598WAT      O86035   4.923   5.308   1.974
28598WAT     H186036   4.861   5.350   2.041
28598WAT     H286037   5.006   5.277   2.020
28599WAT      O86038   9.135   0.792   3.521
28599WAT     H186039   9.215   0.821   3.469
28599WAT     H286040   9.121   0.853   3.599
28600WAT      O86041   0.731   8.258   4.185
28600WAT     H186042   0.774   8.330   4.130
28600WAT     H286043   0.789   8.238   4.265
28601WAT      O86044   1.057   7.468   9.430
28601WAT     H186045   1.120   7.400   9.392
28601WAT     H286046   1.033   7.534   9.360
28602WAT      O86047   7.029   2.865   2.581
28602WAT     H186048   7.013   2.951   2.534
28602WAT     H286049   7.099   2.877   2.651
28603WAT      O86050   9.679   2.881   1.947
28603WAT     H186051   9.589   2.911   1.977
28603WAT     H286052   9.714   2.945   1.879
28604WAT      O86053   9.620   1.057   2.091
28604WAT     H186054   9.573   0.983   2.042
28604WAT     H286055   9.675   1.110   2.026
28605WAT      O86056   7.051   2.224   4.113
28605WAT     H186057   7.023   2.133   4.082
28605WAT     H286058   6.969   2.280   4.128
28606WAT      O86059   4.302   4.742   7.870
28606WAT     H186060   4.384   4.730   7.926
28606WAT     H286061   4.253   4.655   7.864
28607WAT      O86062   6.984   1.770   4.071
28607WAT     H186063   6.946   1.725   3.990
28607WAT     H286064   7.070   1.726   4.095
28608WAT      O86065   2.047   0.847   5.242
28608WAT     H186066   2.049   0.911   5.165
28608WAT     H286067   1.977   0.876   5.307
28609WAT      O86068   6.377   7.174   3.517
28609WAT     H186069   6.427   7.216   3.593
28609WAT     H286070   6.379   7.235   3.438
28610WAT      O86071   4.059   5.445   2.898
28610WAT     H186072   4.014   5.359   2.920
28610WAT     H286073   4.064   5.502   2.980
28611WAT      O86074   7.535   3.557   3.504
28611WAT     H186075   7.491   3.550   3.594
28611WAT     H286076   7.469   3.595   3.438
28612WAT      O86077   5.716   4.663   3.481
28612WAT     H186078   5.650   4.609   3.533
28612WAT     H286079   5.732   4.619   3.392
28613WAT      O86080   1.800   0.152   9.085
28613WAT     H186081   1.859   0.195   9.017
28613WAT     H286082   1.740   0.086   9.040
28614WAT      O86083   3.562   5.808   1.454
28614WAT     H186084   3.497   5.854   1.514
28614WAT     H286085   3.515   5.737   1.401
28615WAT      O86086   9.437   1.534   4.381
28615WAT     H186087   9.501   1.458   4.369
28615WAT     H286088   9.418   1.547   4.478
28616WAT      O86089   5.714   2.819   1.004
28616WAT     H186090   5.626   2.827   0.958
28616WAT     H286091   5.721   2.729   1.047
28617WAT      O86092   6.315   5.866   5.516
28617WAT     H186093   6.315   5.826   5.425
28617WAT     H286094   6.354   5.958   5.512
28618WAT      O86095   7.070   3.942   5.084
28618WAT     H186096   7.092   3.973   4.991
28618WAT     H286097   7.105   3.849   5.097
28619WAT      O86098   7.399   6.991   9.002
28619WAT     H186099   7.442   6.929   8.936
28619WAT     H286100   7.300   6.979   8.999
28620WAT      O86101   3.231   4.020   5.542
28620WAT     H186102   3.195   4.088   5.479
28620WAT     H286103   3.197   3.929   5.516
28621WAT      O86104   8.895   3.731   7.521
28621WAT     H186105   8.828   3.796   7.558
28621WAT     H286106   8.893   3.736   7.421
28622WAT      O86107   3.056   7.174   2.525
28622WAT     H186108   3.123   7.105   2.553
28622WAT     H286109   3.073   7.259   2.575
28623WAT      O86110   9.384   1.788   7.838
28623WAT     H186111   9.342   1.830   7.919
28623WAT     H286112   9.326   1.805   7.758
28624WAT      O86113   1.140   2.944   1.531
28624WAT     H186114   1.129   3.039   1.558
28624WAT     H286115   1.105   2.931   1.439
28625WAT      O86116   8.268   2.609   4.714
28625WAT     H186117   8.178   2.597   4.672
28625WAT     H286118   8.330   2.538   4.680
28626WAT      O86119   7.085   9.412   4.980
28626WAT     H186120   7.119   9.372   5.065
28626WAT     H286121   6.987   9.430   4.988
28627WAT      O86122   4.388   5.168   8.982
28627WAT     H186123   4.461   5.129   9.037
28627WAT     H286124   4.388   5.125   8.892
28628WAT      O86125   0.547   4.228   1.439
28628WAT     H186126   0.496   4.247   1.523
28628WAT     H286127   0.547   4.130   1.421
28629WAT      O86128   8.210   3.425   4.549
28629WAT     H186129   8.143   3.493   4.521
28629WAT     H286130   8.301   3.452   4.517
28630WAT      O86131   6.055   9.636   1.955
28630WAT     H186132   6.134   9.674   2.004
28630WAT     H286133   5.992   9.595   2.021
28631WAT      O86134   3.968   4.108   8.036
28631WAT     H186135   3.996   4.012   8.030
28631WAT     H286136   4.047   4.167   8.018
28632WAT      O86137   6.678   4.111   8.010
28632WAT     H186138   6.765   4.105   7.960
28632WAT     H286139   6.691   4.165   8.093
28633WAT      O86140   6.716   7.195   5.643
28633WAT     H186141   6.722   7.294   5.635
28633WAT     H286142   6.767   7.165   5.724
28634WAT      O86143   1.978   7.710   3.687
28634WAT     H186144   1.966   7.795   3.738
28634WAT     H286145   1.897   7.694   3.630
28635WAT      O86146   1.737   2.001   2.971
28635WAT     H186147   1.750   2.096   2.942
28635WAT     H286148   1.750   1.941   2.892
28636WAT      O86149   0.077   9.411   2.477
28636WAT     H186150  -0.003   9.371   2.521
28636WAT     H286151   0.144   9.437   2.547
28637WAT      O86152   1.751   7.808   0.517
28637WAT     H186153   1.821   7.776   0.454
28637WAT     H286154   1.732   7.904   0.499
28638WAT      O86155   0.039   4.268   9.455
28638WAT     H186156   0.115   4.223   9.502
28638WAT     H286157   0.069   4.300   9.364
28639WAT      O86158   5.250   8.474   5.398
28639WAT     H186159   5.152   8.489   5.412
28639WAT     H286160   5.279   8.515   5.312
28640WAT      O86161   0.791   2.356   6.194
28640WAT     H186162   0.830   2.407   6.117
28640WAT     H286163   0.693   2.373   6.199
28641WAT      O86164   7.052   3.545   5.646
28641WAT     H186165   6.954   3.566   5.643
28641WAT     H286166   7.073   3.496   5.731
28642WAT      O86167   4.481   5.281   1.367
28642WAT     H186168   4.540   5.205   1.395
28642WAT     H286169   4.396   5.278   1.419
28643WAT      O86170   7.122   9.425   3.388
28643WAT     H186171   7.125   9.523   3.367
28643WAT     H286172   7.192   9.378   3.335
28644WAT      O86173   4.847   2.575   1.591
28644WAT     H186174   4.792   2.656   1.572
28644WAT     H286175   4.828   2.504   1.523
28645WAT      O86176   0.506   4.729   3.041
28645WAT     H186177   0.554   4.814   3.017
28645WAT     H286178   0.420   4.724   2.990
28646WAT      O86179   8.157   8.333   3.928
28646WAT     H186180   8.166   8.238   3.898
28646WAT     H286181   8.135   8.391   3.849
28647WAT      O86182   0.223   2.300   4.042
28647WAT     H186183   0.201   2.332   3.950
28647WAT     H286184   0.247   2.203   4.040
28648WAT      O86185   1.450   5.872   4.395
28648WAT     H186186   1.510   5.940   4.354
28648WAT     H286187   1.377   5.848   4.331
28649WAT      O86188   1.636   0.578   5.469
28649WAT     H186189   1.540   0.602   5.482
28649WAT     H286190   1.642   0.497   5.410
28650WAT      O86191   1.056   6.796   6.756
28650WAT     H186192   0.977   6.805   6.816
28650WAT     H286193   1.113   6.720   6.787
28651WAT      O86194   9.350   3.360   1.350
28651WAT     H186195   9.342   3.347   1.448
28651WAT     H286196   9.287   3.298   1.303
28652WAT      O86197   0.142   1.872   7.845
28652WAT     H186198   0.109   1.932   7.918
28652WAT     H286199   0.169   1.928   7.766
28653WAT      O86200   3.056   2.565   3.375
28653WAT     H186201   2.957   2.558   3.388
28653WAT     H286202   3.086   2.494   3.311
28654WAT      O86203   7.311   1.145   7.235
28654WAT     H186204   7.284   1.219   7.296
28654WAT     H286205   7.341   1.067   7.290
28655WAT      O86206   9.301   3.011   6.508
28655WAT     H186207   9.267   3.076   6.575
28655WAT     H286208   9.341   2.932   6.555
28656WAT      O86209   2.379   3.518   5.010
28656WAT     H186210   2.306   3.571   5.052
28656WAT     H286211   2.450   3.579   4.975
28657WAT      O86212   9.311   8.603   9.340
28657WAT     H186213   9.233   8.613   9.278
28657WAT     H286214   9.358   8.517   9.321
28658WAT      O86215   1.499   3.909   2.728
28658WAT     H186216   1.485   4.007   2.742
28658WAT     H286217   1.582   3.894   2.675
28659WAT      O86218   1.216   8.906   0.892
28659WAT     H186219   1.303   8.894   0.938
28659WAT     H286220   1.182   8.818   0.859
28660WAT      O86221   9.830   1.385   8.013
28660WAT     H186222   9.841   1.374   7.915
28660WAT     H286223   9.842   1.481   8.038
28661WAT      O86224   3.817   2.706   1.233
28661WAT     H186225   3.818   2.702   1.333
28661WAT     H286226   3.848   2.618   1.196
28662WAT      O86227   4.278   2.581   9.798
28662WAT     H186228   4.202   2.582   9.862
28662WAT     H286229   4.244   2.579   9.705
28663WAT      O86230   6.146   1.887   0.972
28663WAT     H186231   6.206   1.966   0.961
28663WAT     H286232   6.056   1.918   1.003
28664WAT      O86233   5.736   1.304   7.452
28664WAT     H186234   5.740   1.363   7.532
28664WAT     H286235   5.823   1.307   7.404
28665WAT      O86236   3.539   6.540   0.447
28665WAT     H186237   3.506   6.458   0.493
28665WAT     H286238   3.620   6.518   0.393
28666WAT      O86239   8.564   2.260   3.609
28666WAT     H186240   8.622   2.311   3.672
28666WAT     H286241   8.494   2.321   3.571
28667WAT      O86242   5.916   0.230   2.720
28667WAT     H186243   5.994   0.245   2.781
28667WAT     H286244   5.928   0.283   2.636
28668WAT      O86245   2.783   5.554   4.690
28668WAT     H186246   2.809   5.464   4.655
28668WAT     H286247   2.863   5.597   4.732
28669WAT      O86248   0.896   7.400   8.368
28669WAT     H186249   0.801   7.403   8.399
28669WAT     H286250   0.904   7.449   8.282
28670WAT      O86251   0.199   3.715   2.380
28670WAT     H186252   0.101   3.730   2.398
28670WAT     H286253   0.249   3.800   2.392
28671WAT      O86254   9.097   0.271   5.717
28671WAT     H186255   9.155   0.200   5.757
28671WAT     H286256   9.141   0.308   5.635
28672WAT      O86257   0.480   7.265   2.094
28672WAT     H186258   0.565   7.307   2.125
28672WAT     H286259   0.451   7.195   2.159
28673WAT      O86260   3.038   9.338   2.490
28673WAT     H186261   3.136   9.338   2.474
28673WAT     H286262   3.004   9.244   2.490
28674WAT      O86263   1.114   4.824   1.299
28674WAT     H186264   1.015   4.816   1.288
28674WAT     H286265   1.146   4.907   1.254
28675WAT      O86266   4.691   0.349   7.886
28675WAT     H186267   4.732   0.321   7.800
28675WAT     H286268   4.599   0.385   7.869
28676WAT      O86269   8.522   6.472   8.762
28676WAT     H186270   8.558   6.391   8.716
28676WAT     H286271   8.425   6.483   8.741
28677WAT      O86272   2.290   0.568   9.589
28677WAT     H186273   2.383   0.576   9.623
28677WAT     H286274   2.226   0.599   9.659
28678WAT      O86275   1.743   3.536   9.879
28678WAT     H186276   1.643   3.541   9.876
28678WAT     H286277   1.779   3.551   9.787
28679WAT      O86278   9.751   9.548   7.584
28679WAT     H186279   9.673   9.609   7.601
28679WAT     H286280   9.751   9.520   7.488
28680WAT      O86281   4.503   2.349   1.576
28680WAT     H186282   4.417   2.300   1.562
28680WAT     H286283   4.483   2.445   1.597
28681WAT      O86284   9.236   1.599   6.075
28681WAT     H186285   9.255   1.525   6.138
28681WAT     H286286   9.309   1.667   6.079
28682WAT      O86287   1.995   5.118   2.112
28682WAT     H186288   2.090   5.128   2.142
28682WAT     H286289   1.944   5.201   2.135
28683WAT      O86290   2.576   5.578   9.539
28683WAT     H186291   2.495   5.533   9.578
28683WAT     H286292   2.577   5.565   9.440
28684WAT      O86293   2.934   4.794   0.396
28684WAT     H186294   2.959   4.713   0.449
28684WAT     H286295   2.908   4.766   0.303
28685WAT      O86296   4.821   1.538   9.302
28685WAT     H186297   4.755   1.609   9.329
28685WAT     H286298   4.772   1.454   9.281
28686WAT      O86299   1.591   0.542   2.143
28686WAT     H186300   1.525   0.583   2.081
28686WAT     H286301   1.544   0.481   2.207
28687WAT      O86302   7.054   9.627   8.544
28687WAT     H186303   7.118   9.559   8.579
28687WAT     H286304   7.104   9.709   8.516
28688WAT      O86305   3.759   7.946   5.587
28688WAT     H186306   3.818   7.999   5.647
28688WAT     H286307   3.790   7.954   5.493
28689WAT      O86308   8.754   7.079   4.582
28689WAT     H186309   8.659   7.110   4.572
28689WAT     H286310   8.778   7.021   4.505
28690WAT      O86311   4.031   5.598   6.475
28690WAT     H186312   4.037   5.591   6.375
28690WAT     H286313   4.122   5.583   6.514
28691WAT      O86314   8.128   0.161   8.598
28691WAT     H186315   8.179   0.081   8.629
28691WAT     H286316   8.133   0.167   8.498
28692WAT      O86317   9.103   0.584   4.118
28692WAT     H186318   9.009   0.559   4.142
28692WAT     H286319   9.107   0.607   4.021
28693WAT      O86320   3.296   3.523   3.881
28693WAT     H186321   3.271   3.619   3.870
28693WAT     H286322   3.213   3.468   3.884
28694WAT      O86323   7.211   1.520   5.530
28694WAT     H186324   7.115   1.538   5.511
28694WAT     H286325   7.236   1.430   5.493
28695WAT      O86326   6.788   0.877   6.935
28695WAT     H186327   6.766   0.946   6.866
28695WAT     H286328   6.836   0.921   7.011
28696WAT      O86329   5.477   1.109   8.830
28696WAT     H186330   5.467   1.165   8.747
28696WAT     H286331   5.396   1.051   8.841
28697WAT      O86332   3.897   6.319   5.312
28697WAT     H186333   3.855   6.364   5.391
28697WAT     H286334   3.832   6.317   5.236
28698WAT      O86335   0.230   4.157   7.525
28698WAT     H186336   0.307   4.102   7.558
28698WAT     H286337   0.168   4.178   7.600
28699WAT      O86338   6.623   9.022   5.445
28699WAT     H186339   6.694   9.059   5.386
28699WAT     H286340   6.666   8.976   5.523
28700WAT      O86341   7.188   5.546   9.736
28700WAT     H186342   7.258   5.616   9.722
28700WAT     H286343   7.131   5.538   9.654
28701WAT      O86344   0.007   5.827   4.348
28701WAT     H186345  -0.074   5.830   4.289
28701WAT     H286346   0.027   5.918   4.382
28702WAT      O86347   3.940   2.478   5.619
28702WAT     H186348   3.882   2.431   5.552
28702WAT     H286349   3.903   2.465   5.711
28703WAT      O86350   5.124   3.287   8.656
28703WAT     H186351   5.072   3.369   8.681
28703WAT     H286352   5.079   3.242   8.578
28704WAT      O86353   8.963   9.693   5.789
28704WAT     H186354   8.886   9.707   5.728
28704WAT     H286355   8.945   9.738   5.876
28705WAT      O86356   7.796   6.865   1.982
28705WAT     H186357   7.808   6.876   2.080
28705WAT     H286358   7.870   6.912   1.933
28706WAT      O86359   3.792   4.817   1.776
28706WAT     H186360   3.881   4.791   1.741
28706WAT     H286361   3.720   4.767   1.727
28707WAT      O86362   5.040   8.952   4.612
28707WAT     H186363   5.123   8.900   4.636
28707WAT     H286364   4.998   8.911   4.531
28708WAT      O86365   7.462   6.987   7.597
28708WAT     H186366   7.419   6.898   7.609
28708WAT     H286367   7.396   7.052   7.561
28709WAT      O86368   6.249   6.137   3.221
28709WAT     H186369   6.347   6.129   3.203
28709WAT     H286370   6.200   6.071   3.164
28710WAT      O86371   1.639   2.127   3.956
28710WAT     H186372   1.682   2.066   3.890
28710WAT     H286373   1.540   2.132   3.938
28711WAT      O86374   9.385   6.862   8.040
28711WAT     H186375   9.343   6.772   8.054
28711WAT     H286376   9.328   6.917   7.979
28712WAT      O86377   1.335   4.967   4.778
28712WAT     H186378   1.387   5.051   4.771
28712WAT     H286379   1.258   4.980   4.841
28713WAT      O86380   6.456   7.034   1.893
28713WAT     H186381   6.504   7.051   1.807
28713WAT     H286382   6.523   7.016   1.966
28714WAT      O86383   9.269   4.876   6.680
28714WAT     H186384   9.356   4.872   6.729
28714WAT     H286385   9.214   4.952   6.716
28715WAT      O86386   9.011   8.120   2.679
28715WAT     H186387   9.070   8.101   2.600
28715WAT     H286388   9.060   8.098   2.763
28716WAT      O86389   2.902   1.246   7.588
28716WAT     H186390   2.827   1.239   7.654
28716WAT     H286391   2.870   1.296   7.508
28717WAT      O86392   1.387   3.259   0.664
28717WAT     H186393   1.400   3.218   0.754
28717WAT     H286394   1.314   3.211   0.616
28718WAT      O86395   6.723   9.733   5.514
28718WAT     H186396   6.667   9.668   5.462
28718WAT     H286397   6.719   9.709   5.611
28719WAT      O86398   1.964   1.519   8.898
28719WAT     H186399   1.950   1.455   8.822
28719WAT     H286400   1.882   1.519   8.956
28720WAT      O86401   7.782   1.698   8.848
28720WAT     H186402   7.724   1.661   8.921
28720WAT     H286403   7.725   1.746   8.781
28721WAT      O86404   7.895   5.474   0.036
28721WAT     H186405   7.946   5.461   0.121
28721WAT     H286406   7.854   5.388   0.008
28722WAT      O86407   5.518   5.821   9.315
28722WAT     H186408   5.583   5.749   9.338
28722WAT     H286409   5.425   5.784   9.317
28723WAT      O86410   6.485   0.935   8.516
28723WAT     H186411   6.524   0.880   8.589
28723WAT     H286412   6.557   0.992   8.475
28724WAT      O86413   2.061   9.145   6.633
28724WAT     H186414   1.991   9.089   6.678
28724WAT     H286415   2.017   9.222   6.586
28725WAT      O86416   7.647   5.140   7.493
28725WAT     H186417   7.685   5.048   7.503
28725WAT     H286418   7.567   5.137   7.434
28726WAT      O86419   6.446   7.672   3.421
28726WAT     H186420   6.401   7.680   3.510
28726WAT     H286421   6.537   7.632   3.433
28727WAT      O86422   4.747   4.636   5.464
28727WAT     H186423   4.760   4.707   5.394
28727WAT     H286424   4.649   4.614   5.471
28728WAT      O86425   3.095   5.327   0.144
28728WAT     H186426   3.038   5.377   0.079
28728WAT     H286427   3.155   5.264   0.095
28729WAT      O86428   5.239   0.299   4.285
28729WAT     H186429   5.216   0.393   4.308
28729WAT     H286430   5.336   0.292   4.264
28730WAT      O86431   9.560   7.767   2.483
28730WAT     H186432   9.558   7.768   2.383
28730WAT     H286433   9.625   7.835   2.516
28731WAT      O86434   3.254   4.165   8.179
28731WAT     H186435   3.221   4.255   8.207
28731WAT     H286436   3.334   4.140   8.234
28732WAT      O86437   3.100   8.227   0.440
28732WAT     H186438   3.077   8.321   0.466
28732WAT     H286439   3.176   8.229   0.375
28733WAT      O86440   3.047   4.454   5.204
28733WAT     H186441   3.137   4.468   5.161
28733WAT     H286442   3.059   4.439   5.302
28734WAT      O86443   3.404   6.247   8.622
28734WAT     H186444   3.336   6.317   8.600
28734WAT     H286445   3.406   6.179   8.548
28735WAT      O86446   1.062   6.989   9.006
28735WAT     H186447   1.011   6.951   8.929
28735WAT     H286448   1.140   7.042   8.973
28736WAT      O86449   2.757   3.000   7.867
28736WAT     H186450   2.669   2.978   7.909
28736WAT     H286451   2.743   3.037   7.775
28737WAT      O86452   8.014   9.365   7.661
28737WAT     H186453   8.092   9.382   7.721
28737WAT     H286454   7.961   9.449   7.651
28738WAT      O86455   1.327   0.037   6.481
28738WAT     H186456   1.304  -0.025   6.406
28738WAT     H286457   1.375  -0.013   6.553
28739WAT      O86458   6.029   4.273   1.938
28739WAT     H186459   6.027   4.308   2.032
28739WAT     H286460   6.122   4.277   1.903
28740WAT      O86461   1.863   0.646   6.520
28740WAT     H186462   1.949   0.619   6.562
28740WAT     H286463   1.852   0.599   6.432
28741WAT      O86464   1.088   4.716   7.657
28741WAT     H186465   1.078   4.758   7.567
28741WAT     H286466   1.028   4.762   7.723
28742WAT      O86467   4.223   4.750   2.561
28742WAT     H186468   4.273   4.677   2.513
28742WAT     H286469   4.133   4.716   2.588
28743WAT      O86470   7.717   3.553   4.944
28743WAT     H186471   7.797   3.493   4.948
28743WAT     H286472   7.698   3.576   4.849
28744WAT      O86473   6.448   4.553   2.094
28744WAT     H186474   6.359   4.508   2.102
28744WAT     H286475   6.506   4.500   2.033
28745WAT      O86476   9.347   9.435   4.729
28745WAT     H186477   9.280   9.418   4.658
28745WAT     H286478   9.302   9.470   4.811
28746WAT      O86479   4.898   7.811   5.169
28746WAT     H186480   4.952   7.736   5.131
28746WAT     H286481   4.952   7.895   5.168
28747WAT      O86482   2.104   4.841   8.541
28747WAT     H186483   2.100   4.853   8.640
28747WAT     H286484   2.054   4.915   8.497
28748WAT      O86485   6.277   9.671   2.149
28748WAT     H186486   6.274   9.766   2.178
28748WAT     H286487   6.258   9.611   2.227
28749WAT      O86488   0.059   1.355   2.664
28749WAT     H186489  -0.031   1.398   2.671
28749WAT     H286490   0.130   1.426   2.663
28750WAT      O86491   4.485   8.375   6.569
28750WAT     H186492   4.529   8.462   6.592
28750WAT     H286493   4.483   8.364   6.469
28751WAT      O86494   5.524   0.085   0.225
28751WAT     H186495   5.604   0.080   0.165
28751WAT     H286496   5.473  -0.001   0.218
28752WAT      O86497   1.828   0.125   5.116
28752WAT     H186498   1.758   0.112   5.046
28752WAT     H286499   1.789   0.106   5.206
28753WAT      O86500   5.305   8.004   5.913
28753WAT     H186501   5.278   8.084   5.968
28753WAT     H286502   5.274   8.016   5.819
28754WAT      O86503   7.972   2.231   6.293
28754WAT     H186504   7.907   2.298   6.257
28754WAT     H286505   8.042   2.213   6.223
28755WAT      O86506   6.993   9.386   1.777
28755WAT     H186507   6.944   9.339   1.704
28755WAT     H286508   6.950   9.476   1.793
28756WAT      O86509   8.071   5.169   8.804
28756WAT     H186510   8.110   5.188   8.714
28756WAT     H286511   8.120   5.222   8.874
28757WAT      O86512   0.411   4.629   0.040
28757WAT     H186513   0.366   4.597  -0.043
28757WAT     H286514   0.353   4.697   0.085
28758WAT      O86515   6.777   9.175   7.514
28758WAT     H186516   6.707   9.236   7.552
28758WAT     H286517   6.747   9.080   7.523
28759WAT      O86518   5.907   4.718   7.424
28759WAT     H186519   5.947   4.648   7.365
28759WAT     H286520   5.949   4.714   7.515
28760WAT      O86521   5.128   9.186   9.657
28760WAT     H186522   5.161   9.164   9.565
28760WAT     H286523   5.030   9.205   9.653
28761WAT      O86524   6.636   3.174   8.894
28761WAT     H186525   6.579   3.231   8.835
28761WAT     H286526   6.579   3.111   8.945
28762WAT      O86527   6.849   7.769   0.470
28762WAT     H186528   6.851   7.768   0.370
28762WAT     H286529   6.931   7.814   0.504
28763WAT      O86530   9.423   0.281   9.368
28763WAT     H186531   9.404   0.325   9.281
28763WAT     H286532   9.338   0.246   9.407
28764WAT      O86533   4.182   2.267   3.411
28764WAT     H186534   4.120   2.219   3.473
28764WAT     H286535   4.259   2.207   3.388
28765WAT      O86536   0.454   7.644   7.247
28765WAT     H186537   0.399   7.687   7.318
28765WAT     H286538   0.551   7.650   7.272
28766WAT      O86539   0.873   7.194   0.629
28766WAT     H186540   0.918   7.194   0.718
28766WAT     H286541   0.774   7.183   0.641
28767WAT      O86542   0.533   1.250   3.843
28767WAT     H186543   0.598   1.235   3.769
28767WAT     H286544   0.513   1.164   3.890
28768WAT      O86545   2.655   9.080   4.704
28768WAT     H186546   2.584   9.126   4.651
28768WAT     H286547   2.660   8.984   4.677
28769WAT      O86548   2.601   6.075   7.544
28769WAT     H186549   2.693   6.038   7.557
28769WAT     H286550   2.571   6.057   7.450
28770WAT      O86551   7.496   8.936   3.992
28770WAT     H186552   7.477   9.021   3.943
28770WAT     H286553   7.589   8.940   4.029
28771WAT      O86554   0.045   6.824   2.758
28771WAT     H186555   0.105   6.755   2.799
28771WAT     H286556   0.036   6.807   2.660
28772WAT      O86557   0.989   0.532   6.031
28772WAT     H186558   1.049   0.489   6.099
28772WAT     H286559   0.896   0.536   6.068
28773WAT      O86560   9.159   8.810   3.431
28773WAT     H186561   9.147   8.891   3.373
28773WAT     H286562   9.132   8.728   3.381
28774WAT      O86563   5.114   5.762   9.589
28774WAT     H186564   5.093   5.855   9.557
28774WAT     H286565   5.032   5.705   9.581
28775WAT      O86566   7.649   9.071   2.707
28775WAT     H186567   7.604   9.137   2.647
28775WAT     H286568   7.632   8.978   2.673
28776WAT      O86569   8.389   2.450   7.162
28776WAT     H186570   8.348   2.362   7.140
28776WAT     H286571   8.485   2.451   7.132
28777WAT      O86572   2.835   2.826   6.467
28777WAT     H186573   2.741   2.790   6.468
28777WAT     H286574   2.849   2.878   6.382
28778WAT      O86575   8.770   3.054   1.958
28778WAT     H186576   8.708   3.011   1.891
28778WAT     H286577   8.757   3.153   1.956
28779WAT      O86578   3.382   0.428   5.186
28779WAT     H186579   3.336   0.474   5.110
28779WAT     H286580   3.354   0.470   5.272
28780WAT      O86581   0.006   4.781   2.732
28780WAT     H186582   0.006   4.880   2.715
28780WAT     H286583   0.046   4.734   2.653
28781WAT      O86584   5.408   8.923   9.490
28781WAT     H186585   5.348   8.999   9.466
28781WAT     H286586   5.412   8.858   9.414
28782WAT      O86587   9.675   9.766   6.163
28782WAT     H186588   9.591   9.749   6.112
28782WAT     H286589   9.653   9.772   6.261
28783WAT      O86590   0.025   3.461   1.862
28783WAT     H186591   0.042   3.556   1.837
28783WAT     H286592   0.090   3.402   1.815
28784WAT      O86593   4.655   4.791   4.925
28784WAT     H186594   4.639   4.692   4.917
28784WAT     H286595   4.572   4.840   4.899
28785WAT      O86596   1.436   9.132   8.969
28785WAT     H186597   1.526   9.174   8.973
28785WAT     H286598   1.372   9.185   9.025
28786WAT      O86599   8.543   5.544   9.132
28786WAT     H186600   8.535   5.644   9.142
28786WAT     H286601   8.637   5.520   9.110
28787WAT      O86602   4.146   0.839   0.522
28787WAT     H186603   4.108   0.920   0.567
28787WAT     H286604   4.149   0.855   0.423
28788WAT      O86605   8.985   1.226   6.235
28788WAT     H186606   9.066   1.285   6.237
28788WAT     H286607   8.994   1.156   6.307
28789WAT      O86608   5.474   7.629   2.268
28789WAT     H186609   5.469   7.631   2.368
28789WAT     H286610   5.381   7.631   2.230
28790WAT      O86611   6.572   6.825   8.373
28790WAT     H186612   6.670   6.807   8.370
28790WAT     H286613   6.544   6.873   8.290
28791WAT      O86614   0.959   3.700   7.826
28791WAT     H186615   0.968   3.643   7.744
28791WAT     H286616   0.864   3.700   7.857
28792WAT      O86617   1.390   7.139   3.371
28792WAT     H186618   1.458   7.167   3.303
28792WAT     H286619   1.335   7.064   3.335
28793WAT      O86620   2.605   7.857   4.115
28793WAT     H186621   2.699   7.888   4.132
28793WAT     H286622   2.587   7.774   4.168
28794WAT      O86623   1.608   7.777   1.939
28794WAT     H186624   1.654   7.842   2.000
28794WAT     H286625   1.569   7.827   1.861
28795WAT      O86626   9.021   3.685   2.763
28795WAT     H186627   8.975   3.609   2.718
28795WAT     H286628   9.015   3.767   2.705
28796WAT      O86629   0.017   0.629   9.828
28796WAT     H186630   0.029   0.723   9.859
28796WAT     H286631   0.093   0.573   9.860
28797WAT      O86632   3.917   7.746   2.075
28797WAT     H186633   3.819   7.735   2.094
28797WAT     H286634   3.959   7.799   2.148
28798WAT      O86635   4.705   4.478   1.867
28798WAT     H186636   4.742   4.521   1.950
28798WAT     H286637   4.747   4.388   1.854
28799WAT      O86638   2.753   4.524   7.697
28799WAT     H186639   2.714   4.582   7.769
28799WAT     H286640   2.680   4.489   7.639
28800WAT      O86641   3.328   7.485   1.379
28800WAT     H186642   3.413   7.456   1.335
28800WAT     H286643   3.338   7.479   1.478
28801WAT      O86644   8.662   8.171   1.455
28801WAT     H186645   8.584   8.200   1.510
28801WAT     H286646   8.726   8.247   1.443
28802WAT      O86647   8.717   7.908   9.444
28802WAT     H186648   8.754   7.869   9.360
28802WAT     H286649   8.687   8.001   9.427
28803WAT      O86650   6.034   0.291   6.785
28803WAT     H186651   5.946   0.303   6.832
28803WAT     H286652   6.023   0.309   6.688
28804WAT      O86653   7.923   6.131   5.215
28804WAT     H186654   7.933   6.064   5.141
28804WAT     H286655   8.010   6.142   5.262
28805WAT      O86656   5.667   9.307   1.734
28805WAT     H186657   5.750   9.359   1.754
28805WAT     H286658   5.685   9.209   1.749
28806WAT      O86659   8.262   0.532   3.013
28806WAT     H186660   8.258   0.631   3.029
28806WAT     H286661   8.358   0.505   3.002
28807WAT      O86662   2.327   5.983   4.368
28807WAT     H186663   2.414   5.986   4.318
28807WAT     H286664   2.345   5.970   4.465
28808WAT      O86665   7.452   2.524   9.707
28808WAT     H186666   7.421   2.453   9.644
28808WAT     H286667   7.433   2.614   9.667
28809WAT      O86668   2.531   5.710   3.751
28809WAT     H186669   2.628   5.687   3.751
28809WAT     H286670   2.505   5.745   3.661
28810WAT      O86671   4.420   2.392   0.941
28810WAT     H186672   4.464   2.390   0.851
28810WAT     H286673   4.360   2.313   0.951
28811WAT      O86674   3.114   6.266   2.657
28811WAT     H186675   3.112   6.181   2.708
28811WAT     H286676   3.027   6.314   2.670
28812WAT      O86677   9.096   0.673   0.751
28812WAT     H186678   9.089   0.758   0.699
28812WAT     H286679   9.122   0.599   0.690
28813WAT      O86680   8.002   4.391   8.496
28813WAT     H186681   8.059   4.435   8.566
28813WAT     H286682   7.947   4.319   8.539
28814WAT      O86683   5.851   2.428   3.570
28814WAT     H186684   5.874   2.376   3.488
28814WAT     H286685   5.826   2.521   3.544
28815WAT      O86686   3.850   5.127   0.025
28815WAT     H186687   3.762   5.092  -0.005
28815WAT     H286688   3.836   5.212   0.078
28816WAT      O86689   6.120   8.567   0.264
28816WAT     H186690   6.170   8.617   0.193
28816WAT     H286691   6.158   8.591   0.354
28817WAT      O86692   0.572   7.663   0.181
28817WAT     H186693   0.498   7.727   0.198
28817WAT     H286694   0.549   7.574   0.222
28818WAT      O86695   3.422   0.061   6.197
28818WAT     H186696   3.427   0.139   6.260
28818WAT     H286697   3.350  -0.002   6.226
28819WAT      O86698   3.635   3.704   2.097
28819WAT     H186699   3.600   3.768   2.029
28819WAT     H286700   3.733   3.720   2.111
28820WAT      O86701   9.618   4.717   1.103
28820WAT     H186702   9.626   4.708   1.004
28820WAT     H286703   9.554   4.791   1.124
28821WAT      O86704   9.623   6.197   7.096
28821WAT     H186705   9.686   6.274   7.097
28821WAT     H286706   9.570   6.198   7.011
28822WAT      O86707   9.639   8.295   0.561
28822WAT     H186708   9.554   8.315   0.608
28822WAT     H286709   9.689   8.380   0.544
28823WAT      O86710   7.808   4.675   9.411
28823WAT     H186711   7.863   4.592   9.398
28823WAT     H286712   7.811   4.701   9.508
28824WAT      O86713   4.467   2.943   4.825
28824WAT     H186714   4.539   2.946   4.756
28824WAT     H286715   4.418   3.031   4.826
28825WAT      O86716   3.745   3.961   5.683
28825WAT     H186717   3.839   3.995   5.682
28825WAT     H286718   3.742   3.869   5.642
28826WAT      O86719   4.398   2.497   7.627
28826WAT     H186720   4.359   2.529   7.713
28826WAT     H286721   4.418   2.576   7.568
28827WAT      O86722   1.605   4.701   0.069
28827WAT     H186723   1.616   4.661   0.160
28827WAT     H286724   1.623   4.631  -0.000
28828WAT      O86725   9.600   7.922   1.757
28828WAT     H186726   9.529   7.914   1.687
28828WAT     H286727   9.561   7.965   1.839
28829WAT      O86728   5.720   5.581   2.963
28829WAT     H186729   5.778   5.655   2.997
28829WAT     H286730   5.745   5.495   3.008
28830WAT      O86731   2.045   5.543   1.796
28830WAT     H186732   2.072   5.615   1.732
28830WAT     H286733   2.088   5.457   1.771
28831WAT      O86734   5.245   9.138   4.457
28831WAT     H186735   5.260   9.069   4.529
28831WAT     H286736   5.228   9.091   4.370
28832WAT      O86737   4.847   2.581   7.774
28832WAT     H186738   4.787   2.540   7.705
28832WAT     H286739   4.798   2.655   7.820
28833WAT      O86740   8.284   2.990   0.436
28833WAT     H186741   8.331   2.902   0.448
28833WAT     H286742   8.351   3.064   0.433
28834WAT      O86743   0.632   4.461   1.298
28834WAT     H186744   0.705   4.436   1.234
28834WAT     H286745   0.589   4.378   1.334
28835WAT      O86746   2.781   9.698   6.020
28835WAT     H186747   2.773   9.732   5.926
28835WAT     H286748   2.772   9.774   6.084
28836WAT      O86749   2.919   5.451   7.138
28836WAT     H186750   2.875   5.430   7.051
28836WAT     H286751   2.911   5.548   7.158
28837WAT      O86752   4.218   2.195   5.904
28837WAT     H186753   4.279   2.238   5.971
28837WAT     H286754   4.239   2.229   5.813
28838WAT      O86755   4.078   7.539   6.453
28838WAT     H186756   3.983   7.566   6.471
28838WAT     H286757   4.105   7.469   6.519
28839WAT      O86758   4.959   6.900   7.386
28839WAT     H186759   5.008   6.880   7.470
28839WAT     H286760   4.878   6.955   7.406
28840WAT      O86761   6.849   6.640   9.859
28840WAT     H186762   6.810   6.624   9.950
28840WAT     H286763   6.778   6.671   9.797
28841WAT      O86764   6.203   2.528   1.289
28841WAT     H186765   6.218   2.473   1.371
28841WAT     H286766   6.196   2.468   1.209
28842WAT      O86767   5.093   3.467   8.394
28842WAT     H186768   5.092   3.367   8.403
28842WAT     H286769   5.159   3.494   8.324
28843WAT      O86770   3.954   7.087   6.474
28843WAT     H186771   4.008   7.003   6.467
28843WAT     H286772   3.971   7.144   6.394
28844WAT      O86773   3.649   5.703   6.621
28844WAT     H186774   3.635   5.788   6.570
28844WAT     H286775   3.601   5.628   6.575
28845WAT      O86776   4.010   2.223   7.787
28845WAT     H186777   3.923   2.218   7.837
28845WAT     H286778   4.055   2.310   7.807
28846WAT      O86779   1.774   9.841   0.836
28846WAT     H186780   1.752   9.876   0.745
28846WAT     H286781   1.689   9.814   0.882
28847WAT      O86782   4.077   9.271   8.248
28847WAT     H186783   4.046   9.176   8.245
28847WAT     H286784   4.177   9.273   8.251
28848WAT      O86785   1.387   9.600   9.010
28848WAT     H186786   1.317   9.567   8.947
28848WAT     H286787   1.371   9.562   9.101
28849WAT      O86788   8.007   0.044   5.960
28849WAT     H186789   7.916   0.003   5.953
28849WAT     H286790   8.003   0.124   6.019
28850WAT      O86791   8.352   5.867   6.115
28850WAT     H186792   8.311   5.780   6.142
28850WAT     H286793   8.342   5.933   6.190
28851WAT      O86794   7.456   4.647   4.809
28851WAT     H186795   7.512   4.577   4.854
28851WAT     H286796   7.492   4.665   4.718
28852WAT      O86797   7.634   8.174   2.561
28852WAT     H186798   7.669   8.126   2.480
28852WAT     H286799   7.672   8.267   2.564
28853WAT      O86800   3.797   5.537   0.026
28853WAT     H186801   3.735   5.464   0.056
28853WAT     H286802   3.852   5.567   0.104
28854WAT      O86803   5.205   9.689   2.843
28854WAT     H186804   5.109   9.712   2.826
28854WAT     H286805   5.210   9.596   2.880
28855WAT      O86806   1.524   4.078   4.533
28855WAT     H186807   1.557   4.081   4.439
28855WAT     H286808   1.593   4.036   4.591
28856WAT      O86809   6.766   0.850   3.364
28856WAT     H186810   6.711   0.899   3.431
28856WAT     H286811   6.861   0.879   3.370
28857WAT      O86812   9.825   2.998   7.393
28857WAT     H186813   9.835   2.989   7.492
28857WAT     H286814   9.830   2.907   7.351
28858WAT      O86815   6.620   6.677   0.655
28858WAT     H186816   6.699   6.642   0.705
28858WAT     H286817   6.650   6.743   0.585
28859WAT      O86818   6.202   8.398   3.523
28859WAT     H186819   6.299   8.374   3.521
28859WAT     H286820   6.151   8.325   3.569
28860WAT      O86821   1.282   2.197   3.127
28860WAT     H186822   1.221   2.180   3.204
28860WAT     H286823   1.244   2.155   3.044
28861WAT      O86824   8.803   7.058   0.014
28861WAT     H186825   8.848   7.145  -0.005
28861WAT     H286826   8.706   7.064  -0.012
28862WAT      O86827   6.244   9.408   7.667
28862WAT     H186828   6.232   9.327   7.725
28862WAT     H286829   6.283   9.482   7.722
28863WAT      O86830   9.644   5.005   5.705
28863WAT     H186831   9.695   5.010   5.790
28863WAT     H286832   9.706   4.981   5.630
28864WAT      O86833   4.721   1.560   8.234
28864WAT     H186834   4.701   1.463   8.243
28864WAT     H286835   4.662   1.600   8.164
28865WAT      O86836   6.558   2.018   8.889
28865WAT     H186837   6.530   1.924   8.909
28865WAT     H286838   6.570   2.028   8.790
28866WAT      O86839   1.198   6.615   1.027
28866WAT     H186840   1.188   6.535   0.968
28866WAT     H286841   1.194   6.698   0.971
28867WAT      O86842   5.287   9.402   3.790
28867WAT     H186843   5.375   9.450   3.793
28867WAT     H286844   5.225   9.450   3.728
28868WAT      O86845   7.270   8.607   5.085
28868WAT     H186846   7.340   8.647   5.145
28868WAT     H286847   7.191   8.669   5.081
28869WAT      O86848   0.761   5.756   6.503
28869WAT     H186849   0.814   5.827   6.457
28869WAT     H286850   0.799   5.738   6.593
28870WAT      O86851   1.138   0.944   1.873
28870WAT     H186852   1.117   0.847   1.867
28870WAT     H286853   1.155   0.981   1.782
28871WAT      O86854   0.179   2.110   8.304
28871WAT     H186855   0.114   2.115   8.381
28871WAT     H286856   0.208   2.202   8.279
28872WAT      O86857   0.716   5.978   6.095
28872WAT     H186858   0.787   5.909   6.105
28872WAT     H286859   0.638   5.938   6.046
28873WAT      O86860   5.380   1.443   6.018
28873WAT     H186861   5.396   1.345   6.032
28873WAT     H286862   5.453   1.481   5.961
28874WAT      O86863   5.325   8.071   3.951
28874WAT     H186864   5.396   8.046   3.885
28874WAT     H286865   5.287   7.989   3.993
28875WAT      O86866   9.150   0.350   2.513
28875WAT     H186867   9.084   0.289   2.557
28875WAT     H286868   9.127   0.360   2.416
28876WAT      O86869   7.876   8.586   0.041
28876WAT     H186870   7.932   8.504   0.029
28876WAT     H286871   7.870   8.608   0.138
28877WAT      O86872   2.343   1.290   8.958
28877WAT     H186873   2.307   1.284   9.051
28877WAT     H286874   2.384   1.380   8.944
28878WAT      O86875   5.834   2.273   4.565
28878WAT     H186876   5.804   2.212   4.638
28878WAT     H286877   5.934   2.270   4.558
28879WAT      O86878   1.808   4.572   4.621
28879WAT     H186879   1.758   4.524   4.548
28879WAT     H286880   1.743   4.599   4.692
28880WAT      O86881   0.278   1.354   4.850
28880WAT     H186882   0.330   1.284   4.899
28880WAT     H286883   0.241   1.314   4.765
28881WAT      O86884   3.050   1.847   6.216
28881WAT     H186885   3.005   1.936   6.217
28881WAT     H286886   3.032   1.799   6.302
28882WAT      O86887   5.323   1.763   2.844
28882WAT     H186888   5.361   1.847   2.883
28882WAT     H286889   5.231   1.748   2.881
28883WAT      O86890   0.110   3.662   4.761
28883WAT     H186891   0.072   3.640   4.851
28883WAT     H286892   0.194   3.609   4.746
28884WAT      O86893   9.573   8.555   7.802
28884WAT     H186894   9.609   8.567   7.710
28884WAT     H286895   9.587   8.638   7.855
28885WAT      O86896   8.613   6.924   2.211
28885WAT     H186897   8.649   7.017   2.212
28885WAT     H286898   8.514   6.926   2.196
28886WAT      O86899   1.165   4.729   3.196
28886WAT     H186900   1.086   4.781   3.163
28886WAT     H286901   1.138   4.674   3.276
28887WAT      O86902   8.581   0.420   0.083
28887WAT     H186903   8.560   0.511   0.047
28887WAT     H286904   8.535   0.408   0.171
28888WAT      O86905   9.230   5.809   0.320
28888WAT     H186906   9.206   5.879   0.253
28888WAT     H286907   9.193   5.720   0.289
28889WAT      O86908   5.352   0.745   3.113
28889WAT     H186909   5.440   0.793   3.116
28889WAT     H286910   5.281   0.806   3.078
28890WAT      O86911   9.396   0.357   1.318
28890WAT     H186912   9.307   0.319   1.344
28890WAT     H286913   9.412   0.343   1.221
28891WAT      O86914   7.184   5.661   3.779
28891WAT     H186915   7.259   5.728   3.773
28891WAT     H286916   7.160   5.629   3.688
28892WAT      O86917   5.591   3.206   8.709
28892WAT     H186918   5.594   3.137   8.636
28892WAT     H286919   5.506   3.258   8.702
28893WAT      O86920   6.381   1.205   2.789
28893WAT     H186921   6.465   1.239   2.746
28893WAT     H286922   6.350   1.271   2.858
28894WAT      O86923   5.593   3.374   4.665
28894WAT     H186924   5.655   3.427   4.723
28894WAT     H286925   5.546   3.436   4.602
28895WAT      O86926   6.404   0.657   9.780
28895WAT     H186927   6.352   0.738   9.754
28895WAT     H286928   6.475   0.640   9.712
28896WAT      O86929   1.515   4.353   4.425
28896WAT     H186930   1.491   4.298   4.505
28896WAT     H286931   1.556   4.294   4.355
28897WAT      O86932   1.654   5.945   9.740
28897WAT     H186933   1.616   5.941   9.648
28897WAT     H286934   1.649   5.854   9.782
28898WAT      O86935   5.076   1.038   2.851
28898WAT     H186936   5.014   1.003   2.781
28898WAT     H286937   5.028   1.105   2.907
28899WAT      O86938   7.032   2.605   7.810
28899WAT     H186939   6.964   2.613   7.883
28899WAT     H286940   7.098   2.679   7.818
28900WAT      O86941   5.526   8.641   8.105
28900WAT     H186942   5.492   8.650   8.199
28900WAT     H286943   5.610   8.587   8.105
28901WAT      O86944   0.435   1.537   8.275
28901WAT     H186945   0.422   1.443   8.243
28901WAT     H286946   0.372   1.598   8.225
28902WAT      O86947   0.758   4.587   5.649
28902WAT     H186948   0.693   4.662   5.640
28902WAT     H286949   0.802   4.570   5.562
28903WAT      O86950   5.483   8.829   8.536
28903WAT     H186951   5.548   8.845   8.461
28903WAT     H286952   5.531   8.838   8.624
28904WAT      O86953   3.807   5.079   3.635
28904WAT     H186954   3.713   5.092   3.602
28904WAT     H286955   3.868   5.069   3.557
28905WAT      O86956   5.280   0.717   7.153
28905WAT     H186957   5.370   0.757   7.140
28905WAT     H286958   5.258   0.715   7.251
28906WAT      O86959   5.765   4.739   4.712
28906WAT     H186960   5.820   4.822   4.709
28906WAT     H286961   5.725   4.728   4.802
28907WAT      O86962   0.331   7.928   4.933
28907WAT     H186963   0.261   7.861   4.959
28907WAT     H286964   0.304   8.018   4.966
28908WAT      O86965   5.469   6.135   3.487
28908WAT     H186966   5.478   6.205   3.558
28908WAT     H286967   5.552   6.132   3.431
28909WAT      O86968   0.707   8.582   1.064
28909WAT     H186969   0.622   8.533   1.081
28909WAT     H286970   0.736   8.629   1.148
28910WAT      O86971   2.985   0.058   6.894
28910WAT     H186972   2.936   0.019   6.816
28910WAT     H286973   3.015   0.151   6.873
28911WAT      O86974   4.350   4.424   6.231
28911WAT     H186975   4.418   4.361   6.269
28911WAT     H286976   4.271   4.372   6.198
28912WAT      O86977   4.133   6.552   4.694
28912WAT     H186978   4.056   6.525   4.637
28912WAT     H286979   4.139   6.652   4.696
28913WAT      O86980   7.298   0.538   6.751
28913WAT     H186981   7.222   0.515   6.690
28913WAT     H286982   7.279   0.625   6.797
28914WAT      O86983   6.983   0.879   8.306
28914WAT     H186984   6.900   0.913   8.351
28914WAT     H286985   6.992   0.781   8.322
28915WAT      O86986   7.420   4.163   2.144
28915WAT     H186987   7.344   4.197   2.200
28915WAT     H286988   7.506   4.179   2.193
28916WAT      O86989   7.930   4.103   6.232
28916WAT     H186990   7.940   4.124   6.134
28916WAT     H286991   7.842   4.137   6.264
28917WAT      O86992   6.577   6.613   8.566
28917WAT     H186993   6.594   6.673   8.487
28917WAT     H286994   6.508   6.545   8.542
28918WAT      O86995   4.184   3.608   9.761
28918WAT     H186996   4.251   3.534   9.754
28918WAT     H286997   4.117   3.585   9.832
28919WAT      O86998   2.133   0.895   6.433
28919WAT     H186999   2.118   0.861   6.526
28919WAT     H287000   2.162   0.990   6.436
28920WAT      O87001   7.094   6.801   6.003
28920WAT     H187002   7.017   6.770   5.947
28920WAT     H287003   7.139   6.878   5.957
28921WAT      O87004   5.799   2.791   5.273
28921WAT     H187005   5.816   2.701   5.232
28921WAT     H287006   5.851   2.799   5.359
28922WAT      O87007   6.847   1.879   6.211
28922WAT     H187008   6.766   1.823   6.222
28922WAT     H287009   6.922   1.841   6.266
28923WAT      O87010   5.601   4.430   1.385
28923WAT     H187011   5.687   4.462   1.345
28923WAT     H287012   5.540   4.400   1.311
28924WAT      O87013   4.039   5.600   3.110
28924WAT     H187014   4.078   5.556   3.191
28924WAT     H287015   3.955   5.648   3.134
28925WAT      O87016   4.000   1.928   1.462
28925WAT     H187017   3.915   1.978   1.480
28925WAT     H287018   3.979   1.832   1.445
28926WAT      O87019   1.880   0.305   4.568
28926WAT     H187020   1.898   0.320   4.665
28926WAT     H287021   1.967   0.296   4.519
28927WAT      O87022   4.501   5.351   7.093
28927WAT     H187023   4.475   5.257   7.072
28927WAT     H287024   4.584   5.375   7.041
28928WAT      O87025   6.170   0.659   2.121
28928WAT     H187026   6.137   0.652   2.215
28928WAT     H287027   6.241   0.590   2.105
28929WAT      O87028   2.329   0.541   8.064
28929WAT     H187029   2.320   0.622   8.122
28929WAT     H287030   2.245   0.529   8.010
28930WAT      O87031   9.670   4.012   8.934
28930WAT     H187032   9.765   3.989   8.915
28930WAT     H287033   9.657   4.111   8.920
28931WAT      O87034   7.746   0.961   1.792
28931WAT     H187035   7.800   0.937   1.711
28931WAT     H287036   7.798   1.027   1.848
28932WAT      O87037   7.535   8.584   1.679
28932WAT     H187038   7.523   8.573   1.581
28932WAT     H287039   7.551   8.680   1.701
28933WAT      O87040   1.233   8.464   2.005
28933WAT     H187041   1.301   8.397   2.033
28933WAT     H287042   1.165   8.476   2.078
28934WAT      O87043   3.104   3.851   9.505
28934WAT     H187044   3.067   3.915   9.572
28934WAT     H287045   3.136   3.768   9.551
28935WAT      O87046   3.695   3.761   9.297
28935WAT     H187047   3.678   3.689   9.364
28935WAT     H287048   3.717   3.719   9.208
28936WAT      O87049   4.733   0.503   4.703
28936WAT     H187050   4.795   0.564   4.654
28936WAT     H287051   4.642   0.545   4.709
28937WAT      O87052   7.151   1.862   6.124
28937WAT     H187053   7.186   1.948   6.087
28937WAT     H287054   7.051   1.862   6.122
28938WAT      O87055   1.286   8.537   5.148
28938WAT     H187056   1.244   8.561   5.236
28938WAT     H287057   1.376   8.579   5.141
28939WAT      O87058   6.376   7.856   9.410
28939WAT     H187059   6.433   7.793   9.462
28939WAT     H287060   6.396   7.950   9.437
28940WAT      O87061   2.156   2.983   8.698
28940WAT     H187062   2.120   2.913   8.637
28940WAT     H287063   2.133   2.959   8.793
28941WAT      O87064   9.493   1.655   5.084
28941WAT     H187065   9.413   1.626   5.136
28941WAT     H287066   9.487   1.753   5.065
28942WAT      O87067   0.417   8.029   7.232
28942WAT     H187068   0.432   8.005   7.328
28942WAT     H287069   0.325   8.066   7.221
28943WAT      O87070   5.298   4.870   0.172
28943WAT     H187071   5.367   4.835   0.110
28943WAT     H287072   5.231   4.925   0.122
28944WAT      O87073   1.278   9.302   3.655
28944WAT     H187074   1.304   9.287   3.751
28944WAT     H287075   1.284   9.399   3.634
28945WAT      O87076   5.395   1.888   1.917
28945WAT     H187077   5.301   1.887   1.882
28945WAT     H287078   5.408   1.811   1.980
28946WAT      O87079   4.957   4.286   7.405
28946WAT     H187080   4.973   4.343   7.485
28946WAT     H287081   4.963   4.189   7.430
28947WAT      O87082   9.411   9.012   1.869
28947WAT     H187083   9.349   9.088   1.889
28947WAT     H287084   9.494   9.047   1.827
28948WAT      O87085   6.268   0.442   9.062
28948WAT     H187086   6.263   0.389   9.146
28948WAT     H287087   6.344   0.409   9.006
28949WAT      O87088   8.684   3.102   4.076
28949WAT     H187089   8.648   3.035   4.140
28949WAT     H287090   8.748   3.162   4.124
28950WAT      O87091   3.444   7.684   5.295
28950WAT     H187092   3.503   7.605   5.313
28950WAT     H287093   3.496   7.755   5.247
28951WAT      O87094   1.812   7.306   1.857
28951WAT     H187095   1.828   7.398   1.819
28951WAT     H287096   1.901   7.262   1.875
28952WAT      O87097   4.356   8.567   0.178
28952WAT     H187098   4.258   8.570   0.198
28952WAT     H287099   4.375   8.617   0.094
28953WAT      O87100   6.236   0.743   2.813
28953WAT     H187101   6.260   0.746   2.910
28953WAT     H287102   6.233   0.837   2.777
28954WAT      O87103   9.279   4.528   6.996
28954WAT     H187104   9.349   4.541   7.066
28954WAT     H287105   9.322   4.506   6.908
28955WAT      O87106   5.190   7.145   0.736
28955WAT     H187107   5.268   7.085   0.757
28955WAT     H287108   5.112   7.089   0.709
28956WAT      O87109   4.224   0.371   4.186
28956WAT     H187110   4.246   0.465   4.161
28956WAT     H287111   4.143   0.341   4.136
28957WAT      O87112   4.975   3.189   2.262
28957WAT     H187113   4.971   3.111   2.200
28957WAT     H287114   5.054   3.246   2.239
28958WAT      O87115   0.294   5.398   6.433
28958WAT     H187116   0.322   5.361   6.344
28958WAT     H287117   0.225   5.470   6.419
28959WAT      O87118   4.108   8.938   5.015
28959WAT     H187119   4.034   8.874   4.995
28959WAT     H287120   4.172   8.896   5.080
28960WAT      O87121   3.536   8.185   6.328
28960WAT     H187122   3.465   8.243   6.367
28960WAT     H287123   3.590   8.238   6.263
28961WAT      O87124   7.212   7.822   1.122
28961WAT     H187125   7.261   7.736   1.109
28961WAT     H287126   7.202   7.869   1.034
28962WAT      O87127   7.013   3.544   1.491
28962WAT     H187128   7.085   3.480   1.464
28962WAT     H287129   6.996   3.608   1.416
28963WAT      O87130   5.475   4.538   2.656
28963WAT     H187131   5.458   4.442   2.682
28963WAT     H287132   5.545   4.541   2.586
28964WAT      O87133   1.969   6.571   5.260
28964WAT     H187134   2.021   6.656   5.262
28964WAT     H287135   1.892   6.577   5.324
28965WAT      O87136   8.464   9.517   0.692
28965WAT     H187137   8.370   9.550   0.684
28965WAT     H287138   8.526   9.582   0.649
28966WAT      O87139   6.677   0.385   5.702
28966WAT     H187140   6.669   0.375   5.603
28966WAT     H287141   6.618   0.318   5.747
28967WAT      O87142   0.071   5.240   1.413
28967WAT     H187143   0.020   5.155   1.407
28967WAT     H287144   0.140   5.233   1.485
28968WAT      O87145   4.877   1.938   8.035
28968WAT     H187146   4.866   1.977   8.127
28968WAT     H287147   4.806   1.975   7.975
28969WAT      O87148   0.861   0.683   9.260
28969WAT     H187149   0.943   0.740   9.257
28969WAT     H287150   0.881   0.595   9.216
28970WAT      O87151   8.457   6.020   4.639
28970WAT     H187152   8.416   6.105   4.609
28970WAT     H287153   8.393   5.969   4.696
28971WAT      O87154   5.787   6.109   7.081
28971WAT     H187155   5.874   6.138   7.122
28971WAT     H287156   5.805   6.053   7.000
28972WAT      O87157   7.020   3.499   3.152
28972WAT     H187158   6.943   3.444   3.119
28972WAT     H287159   7.106   3.454   3.126
28973WAT      O87160   4.223   9.808   0.186
28973WAT     H187161   4.272   9.816   0.273
28973WAT     H287162   4.172   9.893   0.170
28974WAT      O87163   5.230   5.767   1.609
28974WAT     H187164   5.219   5.769   1.510
28974WAT     H287165   5.217   5.673   1.643
28975WAT      O87166   5.079   6.031   6.497
28975WAT     H187167   5.117   6.112   6.542
28975WAT     H287168   5.142   5.954   6.507
28976WAT      O87169   5.634   8.955   9.647
28976WAT     H187170   5.708   8.929   9.586
28976WAT     H287171   5.546   8.948   9.599
28977WAT      O87172   4.850   3.402   9.422
28977WAT     H187173   4.793   3.470   9.376
28977WAT     H287174   4.925   3.448   9.469
28978WAT      O87175   2.768   2.187   2.508
28978WAT     H187176   2.732   2.202   2.601
28978WAT     H287177   2.700   2.136   2.455
28979WAT      O87178   2.955   8.788   1.848
28979WAT     H187179   2.899   8.709   1.823
28979WAT     H287180   3.043   8.757   1.884
28980WAT      O87181   7.455   6.025   5.269
28980WAT     H187182   7.542   6.053   5.311
28980WAT     H287183   7.432   5.933   5.301
28981WAT      O87184   8.159   8.496   1.820
28981WAT     H187185   8.247   8.451   1.805
28981WAT     H287186   8.159   8.586   1.775
28982WAT      O87187   5.190   2.614   8.293
28982WAT     H187188   5.121   2.635   8.223
28982WAT     H287189   5.280   2.603   8.249
28983WAT      O87190   3.835   6.625   8.830
28983WAT     H187191   3.932   6.608   8.845
28983WAT     H287192   3.818   6.635   8.732
28984WAT      O87193   3.469   8.194   3.405
28984WAT     H187194   3.379   8.180   3.446
28984WAT     H287195   3.537   8.209   3.476
28985WAT      O87196   4.973   0.134   8.005
28985WAT     H187197   4.874   0.150   8.009
28985WAT     H287198   5.012   0.189   7.931
28986WAT      O87199   8.407   2.430   1.955
28986WAT     H187200   8.413   2.330   1.957
28986WAT     H287201   8.374   2.459   1.865
28987WAT      O87202   3.052   7.350   6.757
28987WAT     H187203   2.969   7.378   6.804
28987WAT     H287204   3.129   7.407   6.787
28988WAT      O87205   6.924   3.119   4.484
28988WAT     H187206   7.021   3.112   4.505
28988WAT     H287207   6.884   3.028   4.478
28989WAT      O87208   5.436   9.499   7.980
28989WAT     H187209   5.412   9.539   8.069
28989WAT     H287210   5.516   9.547   7.942
28990WAT      O87211   6.304   2.933   8.759
28990WAT     H187212   6.305   2.835   8.740
28990WAT     H287213   6.311   2.984   8.673
28991WAT      O87214   0.804   8.285   1.803
28991WAT     H187215   0.747   8.362   1.831
28991WAT     H287216   0.843   8.242   1.885
28992WAT      O87217   0.151   9.056   9.592
28992WAT     H187218   0.186   9.106   9.513
28992WAT     H287219   0.212   8.979   9.613
28993WAT      O87220   3.008   6.520   9.610
28993WAT     H187221   2.950   6.472   9.544
28993WAT     H287222   2.985   6.491   9.703
28994WAT      O87223   7.022   3.204   3.877
28994WAT     H187224   6.972   3.237   3.957
28994WAT     H287225   6.966   3.217   3.795
28995WAT      O87226   2.242   8.349   9.031
28995WAT     H187227   2.147   8.358   9.002
28995WAT     H287228   2.302   8.341   8.951
28996WAT      O87229   9.115   5.805   8.322
28996WAT     H187230   9.143   5.714   8.292
28996WAT     H287231   9.074   5.855   8.246
28997WAT      O87232   5.143   1.382   5.422
28997WAT     H187233   5.118   1.348   5.331
28997WAT     H287234   5.060   1.400   5.475
28998WAT      O87235   0.134   9.124   2.533
28998WAT     H187236   0.101   9.218   2.520
28998WAT     H287237   0.076   9.061   2.483
28999WAT      O87238   1.100   8.704   7.613
28999WAT     H187239   1.082   8.607   7.631
28999WAT     H287240   1.088   8.724   7.516
29000WAT      O87241   2.338   0.063   7.316
29000WAT     H187242   2.326   0.144   7.374
29000WAT     H287243   2.418   0.076   7.256
29001WAT      O87244   3.966   1.643   5.618
29001WAT     H187245   3.995   1.681   5.530
29001WAT     H287246   3.896   1.702   5.659
29002WAT      O87247   9.413   5.933   1.982
29002WAT     H187248   9.468   5.850   1.971
29002WAT     H287249   9.361   5.950   1.898
29003WAT      O87250   6.271   3.269   6.969
29003WAT     H187251   6.315   3.333   6.905
29003WAT     H287252   6.193   3.226   6.923
29004WAT      O87253   3.817   0.173   0.678
29004WAT     H187254   3.843   0.266   0.649
29004WAT     H287255   3.895   0.112   0.668
29005WAT      O87256   1.671   5.206   8.859
29005WAT     H187257   1.668   5.108   8.838
29005WAT     H287258   1.648   5.258   8.777
29006WAT      O87259   9.638   7.939   6.231
29006WAT     H187260   9.563   7.925   6.295
29006WAT     H287261   9.680   8.028   6.248
29007WAT      O87262   8.162   5.269   9.594
29007WAT     H187263   8.173   5.357   9.641
29007WAT     H287264   8.246   5.216   9.601
29008WAT      O87265   0.282   3.582   8.757
29008WAT     H187266   0.233   3.630   8.684
29008WAT     H287267   0.249   3.488   8.763
29009WAT      O87268   4.249   3.959   3.500
29009WAT     H187269   4.237   3.862   3.477
29009WAT     H287270   4.162   4.007   3.492
29010WAT      O87271   1.776   8.900   0.984
29010WAT     H187272   1.748   8.987   1.024
29010WAT     H287273   1.694   8.845   0.966
29011WAT      O87274   1.255   3.072   8.454
29011WAT     H187275   1.302   3.009   8.393
29011WAT     H287276   1.292   3.164   8.442
29012WAT      O87277   0.930   0.576   4.357
29012WAT     H187278   0.923   0.651   4.292
29012WAT     H287279   1.015   0.585   4.410
29013WAT      O87280   1.078   1.819   2.470
29013WAT     H187281   1.086   1.720   2.477
29013WAT     H287282   1.123   1.850   2.386
29014WAT      O87283   0.761   0.712   8.108
29014WAT     H187284   0.842   0.748   8.155
29014WAT     H287285   0.683   0.712   8.170
29015WAT      O87286   1.849   0.393   2.356
29015WAT     H187287   1.856   0.436   2.266
29015WAT     H287288   1.904   0.309   2.357
29016WAT      O87289   2.958   8.283   9.661
29016WAT     H187290   2.907   8.209   9.617
29016WAT     H287291   3.006   8.247   9.741
29017WAT      O87292   2.185   3.482   3.768
29017WAT     H187293   2.172   3.571   3.812
29017WAT     H287294   2.276   3.478   3.728
29018WAT      O87295   1.269   7.242   8.394
29018WAT     H187296   1.214   7.179   8.448
29018WAT     H287297   1.363   7.208   8.388
29019WAT      O87298   8.256   9.146   4.579
29019WAT     H187299   8.338   9.111   4.535
29019WAT     H287300   8.177   9.132   4.519
29020WAT      O87301   4.787   2.613   2.927
29020WAT     H187302   4.847   2.647   2.999
29020WAT     H287303   4.712   2.678   2.912
29021WAT      O87304   2.586   6.911   5.822
29021WAT     H187305   2.610   6.936   5.915
29021WAT     H287306   2.490   6.933   5.805
29022WAT      O87307   5.793   2.072   4.801
29022WAT     H187308   5.884   2.112   4.790
29022WAT     H287309   5.728   2.144   4.826
29023WAT      O87310   0.333   4.013   3.147
29023WAT     H187311   0.349   3.927   3.195
29023WAT     H287312   0.415   4.038   3.096
29024WAT      O87313   3.507   2.992   9.829
29024WAT     H187314   3.462   3.050   9.897
29024WAT     H287315   3.440   2.965   9.759
29025WAT      O87316   7.679   3.151   5.158
29025WAT     H187317   7.646   3.204   5.080
29025WAT     H287318   7.769   3.184   5.185
29026WAT      O87319   1.369   1.700   4.012
29026WAT     H187320   1.358   1.775   4.076
29026WAT     H287321   1.325   1.723   3.925
29027WAT      O87322   3.524   8.705   5.939
29027WAT     H187323   3.599   8.769   5.921
29027WAT     H287324   3.491   8.666   5.853
29028WAT      O87325   4.968   3.896   1.763
29028WAT     H187326   5.019   3.981   1.776
29028WAT     H287327   4.947   3.885   1.666
29029WAT      O87328   6.149   1.573   7.980
29029WAT     H187329   6.117   1.480   7.964
29029WAT     H287330   6.248   1.577   7.964
29030WAT      O87331   0.326   2.798   1.375
29030WAT     H187332   0.252   2.765   1.434
29030WAT     H287333   0.414   2.768   1.412
29031WAT      O87334   7.930   5.083   6.359
29031WAT     H187335   7.875   5.098   6.441
29031WAT     H287336   7.946   4.985   6.347
29032WAT      O87337   3.300   0.138   1.797
29032WAT     H187338   3.395   0.156   1.771
29032WAT     H287339   3.245   0.220   1.781
29033WAT      O87340   3.885   3.018   9.093
29033WAT     H187341   3.882   3.062   9.004
29033WAT     H287342   3.797   3.029   9.139
29034WAT      O87343   7.065   6.028   1.599
29034WAT     H187344   7.094   5.957   1.663
29034WAT     H287345   7.136   6.043   1.531
29035WAT      O87346   2.871   8.436   1.154
29035WAT     H187347   2.881   8.349   1.105
29035WAT     H287348   2.905   8.510   1.096
29036WAT      O87349   0.554   9.162   1.334
29036WAT     H187350   0.637   9.151   1.279
29036WAT     H287351   0.502   9.076   1.333
29037WAT      O87352   0.335   0.644   2.727
29037WAT     H187353   0.385   0.642   2.641
29037WAT     H287354   0.238   0.660   2.710
29038WAT      O87355   1.154   1.061   1.625
29038WAT     H187356   1.175   1.150   1.583
29038WAT     H287357   1.093   1.010   1.565
29039WAT      O87358   5.295   2.436   6.086
29039WAT     H187359   5.343   2.363   6.134
29039WAT     H287360   5.232   2.481   6.149
29040WAT      O87361   8.702   8.822   7.705
29040WAT     H187362   8.802   8.822   7.699
29040WAT     H287363   8.670   8.730   7.724
29041WAT      O87364   3.828   0.181   1.834
29041WAT     H187365   3.744   0.148   1.878
29041WAT     H287366   3.906   0.129   1.867
29042WAT      O87367   3.030   6.483   5.331
29042WAT     H187368   3.010   6.391   5.298
29042WAT     H287369   2.963   6.547   5.293
29043WAT      O87370   5.360   7.044   6.660
29043WAT     H187371   5.293   7.066   6.589
29043WAT     H287372   5.452   7.054   6.623
29044WAT      O87373   0.575   2.195   8.941
29044WAT     H187374   0.516   2.123   8.905
29044WAT     H287375   0.539   2.226   9.030
29045WAT      O87376   9.810   8.800   1.306
29045WAT     H187377   9.827   8.890   1.345
29045WAT     H287378   9.812   8.806   1.206
29046WAT      O87379   6.039   4.394   2.222
29046WAT     H187380   6.118   4.336   2.238
29046WAT     H287381   6.026   4.455   2.300
29047WAT      O87382   4.305   6.434   1.087
29047WAT     H187383   4.295   6.345   1.132
29047WAT     H287384   4.357   6.422   1.002
29048WAT      O87385   7.056   1.858   2.744
29048WAT     H187386   7.143   1.882   2.787
29048WAT     H287387   7.037   1.761   2.760
29049WAT      O87388   6.154   7.145   1.440
29049WAT     H187389   6.077   7.082   1.431
29049WAT     H287390   6.184   7.146   1.536
29050WAT      O87391   5.255   7.453   0.114
29050WAT     H187392   5.219   7.545   0.107
29050WAT     H287393   5.233   7.414   0.203
29051WAT      O87394   1.147   7.839   3.659
29051WAT     H187395   1.182   7.839   3.753
29051WAT     H287396   1.183   7.919   3.610
29052WAT      O87397   7.152   6.168   2.208
29052WAT     H187398   7.064   6.122   2.205
29052WAT     H287399   7.172   6.196   2.302
29053WAT      O87400   2.469   9.222   6.845
29053WAT     H187401   2.447   9.219   6.942
29053WAT     H287402   2.415   9.152   6.797
29054WAT      O87403   5.847   6.220   5.818
29054WAT     H187404   5.893   6.286   5.759
29054WAT     H287405   5.852   6.129   5.777
29055WAT      O87406   9.309   8.362   3.881
29055WAT     H187407   9.225   8.394   3.924
29055WAT     H287408   9.294   8.346   3.784
29056WAT      O87409   1.462   8.427   4.623
29056WAT     H187410   1.481   8.507   4.679
29056WAT     H287411   1.505   8.346   4.664
29057WAT      O87412   2.369   5.926   5.101
29057WAT     H187413   2.307   5.851   5.079
29057WAT     H287414   2.316   6.006   5.130
29058WAT      O87415   7.425   3.426   7.843
29058WAT     H187416   7.420   3.516   7.801
29058WAT     H287417   7.489   3.428   7.920
29059WAT      O87418   1.214   2.089   7.647
29059WAT     H187419   1.250   1.996   7.643
29059WAT     H287420   1.132   2.095   7.591
29060WAT      O87421   7.734   3.683   2.601
29060WAT     H187422   7.731   3.715   2.507
29060WAT     H287423   7.680   3.745   2.659
29061WAT      O87424   4.309   1.744   2.152
29061WAT     H187425   4.304   1.663   2.211
29061WAT     H287426   4.402   1.754   2.117
29062WAT      O87427   0.924   5.745   8.995
29062WAT     H187428   0.913   5.843   9.012
29062WAT     H287429   0.897   5.725   8.901
29063WAT      O87430   7.625   7.230   3.234
29063WAT     H187431   7.583   7.207   3.146
29063WAT     H287432   7.606   7.325   3.257
29064WAT      O87433   3.902   5.548   6.906
29064WAT     H187434   3.890   5.593   6.817
29064WAT     H287435   3.959   5.467   6.894
29065WAT      O87436   7.640   3.953   0.047
29065WAT     H187437   7.692   3.969  -0.037
29065WAT     H287438   7.577   3.876   0.033
29066WAT      O87439   3.908   7.244   8.489
29066WAT     H187440   3.981   7.311   8.477
29066WAT     H287441   3.944   7.152   8.474
29067WAT      O87442   2.829   2.542   6.339
29067WAT     H187443   2.873   2.629   6.361
29067WAT     H287444   2.787   2.504   6.421
29068WAT      O87445   8.928   1.410   1.265
29068WAT     H187446   8.987   1.475   1.311
29068WAT     H287447   8.842   1.401   1.316
29069WAT      O87448   8.665   7.201   2.188
29069WAT     H187449   8.755   7.240   2.167
29069WAT     H287450   8.601   7.225   2.115
29070WAT      O87451   5.960   7.587   5.006
29070WAT     H187452   5.988   7.574   5.101
29070WAT     H287453   5.980   7.504   4.954
29071WAT      O87454   2.126   0.817   8.090
29071WAT     H187455   2.190   0.821   8.167
29071WAT     H287456   2.061   0.742   8.104
29072WAT      O87457   2.222   7.036   9.398
29072WAT     H187458   2.155   7.021   9.326
29072WAT     H287459   2.306   7.074   9.358
29073WAT      O87460   2.448   9.240   5.997
29073WAT     H187461   2.518   9.179   6.032
29073WAT     H287462   2.366   9.187   5.973
29074WAT      O87463   2.595   0.469   0.772
29074WAT     H187464   2.630   0.484   0.680
29074WAT     H287465   2.495   0.464   0.770
29075WAT      O87466   4.148   4.352   9.644
29075WAT     H187467   4.095   4.368   9.727
29075WAT     H287468   4.159   4.254   9.630
29076WAT      O87469   3.677   5.876   8.689
29076WAT     H187470   3.638   5.839   8.773
29076WAT     H287471   3.604   5.896   8.624
29077WAT      O87472   8.534   7.526   8.000
29077WAT     H187473   8.501   7.457   7.936
29077WAT     H287474   8.542   7.614   7.954
29078WAT      O87475   7.109   3.170   0.824
29078WAT     H187476   7.159   3.158   0.910
29078WAT     H287477   7.054   3.253   0.829
29079WAT      O87478   5.190   7.928   0.665
29079WAT     H187479   5.148   7.983   0.737
29079WAT     H287480   5.142   7.841   0.658
29080WAT      O87481   9.334   6.057   4.880
29080WAT     H187482   9.405   6.063   4.950
29080WAT     H287483   9.276   5.978   4.897
29081WAT      O87484   0.868   2.329   5.108
29081WAT     H187485   0.832   2.400   5.047
29081WAT     H287486   0.966   2.345   5.124
29082WAT      O87487   1.447   1.009   1.658
29082WAT     H187488   1.471   1.028   1.563
29082WAT     H287489   1.355   0.971   1.662
29083WAT      O87490   3.894   7.864   1.172
29083WAT     H187491   3.931   7.785   1.124
29083WAT     H287492   3.913   7.856   1.269
29084WAT      O87493   0.603   3.548   8.812
29084WAT     H187494   0.649   3.557   8.724
29084WAT     H287495   0.506   3.525   8.797
29085WAT      O87496   7.359   1.377   0.741
29085WAT     H187497   7.353   1.448   0.671
29085WAT     H287498   7.454   1.345   0.748
29086WAT      O87499   6.557   1.728   4.682
29086WAT     H187500   6.533   1.744   4.778
29086WAT     H287501   6.644   1.680   4.677
29087WAT      O87502   0.142   9.381   3.904
29087WAT     H187503   0.144   9.361   4.002
29087WAT     H287504   0.223   9.434   3.879
29088WAT      O87505   6.243   0.192   3.957
29088WAT     H187506   6.330   0.146   3.972
29088WAT     H287507   6.169   0.125   3.953
29089WAT      O87508   8.726   3.850   6.526
29089WAT     H187509   8.686   3.942   6.527
29089WAT     H287510   8.787   3.840   6.604
29090WAT      O87511   1.103   0.090   3.805
29090WAT     H187512   1.151   0.145   3.736
29090WAT     H287513   1.156   0.089   3.890
29091WAT      O87514   4.224   2.835   5.792
29091WAT     H187515   4.177   2.783   5.721
29091WAT     H287516   4.313   2.793   5.811
29092WAT      O87517   6.029   5.189   1.560
29092WAT     H187518   6.024   5.100   1.515
29092WAT     H287519   5.941   5.236   1.551
29093WAT      O87520   2.120   2.291   8.444
29093WAT     H187521   2.070   2.360   8.392
29093WAT     H287522   2.056   2.222   8.478
29094WAT      O87523   6.230   1.033   8.636
29094WAT     H187524   6.260   1.043   8.731
29094WAT     H287525   6.305   0.998   8.580
29095WAT      O87526   2.400   5.691   1.423
29095WAT     H187527   2.325   5.630   1.398
29095WAT     H287528   2.477   5.677   1.361
29096WAT      O87529   6.243   6.656   9.602
29096WAT     H187530   6.304   6.578   9.588
29096WAT     H287531   6.185   6.639   9.682
29097WAT      O87532   8.017   7.745   9.211
29097WAT     H187533   8.060   7.824   9.254
29097WAT     H287534   8.088   7.678   9.186
29098WAT      O87535   7.107   1.074   3.935
29098WAT     H187536   7.021   1.125   3.927
29098WAT     H287537   7.181   1.136   3.961
29099WAT      O87538   9.838   8.142   0.163
29099WAT     H187539   9.846   8.043   0.154
29099WAT     H287540   9.918   8.178   0.211
29100WAT      O87541   8.003   0.371   0.242
29100WAT     H187542   8.013   0.452   0.300
29100WAT     H287543   8.035   0.290   0.293
29101WAT      O87544   9.365   8.738   4.172
29101WAT     H187545   9.427   8.705   4.242
29101WAT     H287546   9.321   8.822   4.204
29102WAT      O87547   0.283   3.768   8.174
29102WAT     H187548   0.311   3.843   8.114
29102WAT     H287549   0.237   3.806   8.255
29103WAT      O87550   8.763   0.903   4.728
29103WAT     H187551   8.728   0.896   4.821
29103WAT     H287552   8.753   0.997   4.696
29104WAT      O87553   9.429   5.591   6.277
29104WAT     H187554   9.461   5.558   6.188
29104WAT     H287555   9.330   5.576   6.285
29105WAT      O87556   8.965   7.606   9.264
29105WAT     H187557   8.981   7.631   9.359
29105WAT     H287558   8.976   7.507   9.253
29106WAT      O87559   3.611   2.658   5.995
29106WAT     H187560   3.701   2.622   5.970
29106WAT     H287561   3.544   2.631   5.925
29107WAT      O87562   3.671   6.854   1.177
29107WAT     H187563   3.588   6.803   1.200
29107WAT     H287564   3.658   6.950   1.200
29108WAT      O87565   1.469   9.492   5.653
29108WAT     H187566   1.557   9.454   5.621
29108WAT     H287567   1.475   9.512   5.750
29109WAT      O87568   5.734   3.223   6.431
29109WAT     H187569   5.807   3.188   6.490
29109WAT     H287570   5.738   3.177   6.342
29110WAT      O87571   1.840   4.890   1.053
29110WAT     H187572   1.862   4.987   1.060
29110WAT     H287573   1.869   4.855   0.964
29111WAT      O87574   2.459   9.579   2.652
29111WAT     H187575   2.502   9.549   2.567
29111WAT     H287576   2.414   9.502   2.696
29112WAT      O87577   8.204   0.072   9.449
29112WAT     H187578   8.259   0.030   9.378
29112WAT     H287579   8.186   0.168   9.425
29113WAT      O87580   3.173   7.098   7.819
29113WAT     H187581   3.099   7.116   7.754
29113WAT     H287582   3.253   7.063   7.770
29114WAT      O87583   9.148   4.019   9.844
29114WAT     H187584   9.160   3.928   9.884
29114WAT     H287585   9.184   4.019   9.751
29115WAT      O87586   7.121   9.672   9.489
29115WAT     H187587   7.073   9.710   9.410
29115WAT     H287588   7.099   9.574   9.498
29116WAT      O87589   4.361   2.049   8.719
29116WAT     H187590   4.329   2.025   8.627
29116WAT     H287591   4.429   1.982   8.748
29117WAT      O87592   8.438   0.694   9.312
29117WAT     H187593   8.380   0.669   9.390
29117WAT     H287594   8.455   0.792   9.313
29118WAT      O87595   7.516   2.380   3.907
29118WAT     H187596   7.456   2.392   3.987
29118WAT     H287597   7.473   2.318   3.842
29119WAT      O87598   1.995   5.868   4.926
29119WAT     H187599   2.022   5.937   4.859
29119WAT     H287600   1.917   5.903   4.978
29120WAT      O87601   9.552   9.123   0.280
29120WAT     H187602   9.490   9.174   0.338
29120WAT     H287603   9.502   9.051   0.232
29121WAT      O87604   4.776   8.520   3.704
29121WAT     H187605   4.833   8.445   3.738
29121WAT     H287606   4.720   8.488   3.628
29122WAT      O87607   2.334   2.316   8.611
29122WAT     H187608   2.255   2.342   8.556
29122WAT     H287609   2.304   2.286   8.701
29123WAT      O87610   4.001   7.011   3.399
29123WAT     H187611   3.958   7.099   3.419
29123WAT     H287612   3.944   6.937   3.436
29124WAT      O87613   9.161   3.795   9.522
29124WAT     H187614   9.192   3.724   9.458
29124WAT     H287615   9.104   3.754   9.593
29125WAT      O87616   8.923   8.293   6.607
29125WAT     H187617   8.943   8.246   6.522
29125WAT     H287618   8.894   8.227   6.676
29126WAT      O87619   8.971   8.842   7.909
29126WAT     H187620   8.979   8.819   8.006
29126WAT     H287621   8.915   8.924   7.898
29127WAT      O87622   7.990   4.331   7.476
29127WAT     H187623   8.018   4.255   7.418
29127WAT     H287624   8.011   4.418   7.431
29128WAT      O87625   5.475   8.146   0.084
29128WAT     H187626   5.415   8.067   0.075
29128WAT     H287627   5.453   8.195   0.169
29129WAT      O87628   4.387   6.665   4.392
29129WAT     H187629   4.419   6.570   4.389
29129WAT     H287630   4.431   6.717   4.319
29130WAT      O87631   2.075   0.386   3.208
29130WAT     H187632   2.062   0.351   3.116
29130WAT     H287633   2.142   0.460   3.207
29131WAT      O87634   4.789   7.587   6.624
29131WAT     H187635   4.744   7.530   6.555
29131WAT     H287636   4.760   7.557   6.715
29132WAT      O87637   3.734   1.483   6.242
29132WAT     H187638   3.701   1.558   6.185
29132WAT     H287639   3.817   1.444   6.202
29133WAT      O87640   5.728   5.240   5.476
29133WAT     H187641   5.716   5.278   5.385
29133WAT     H287642   5.714   5.311   5.545
29134WAT      O87643   3.703   5.538   8.387
29134WAT     H187644   3.731   5.570   8.477
29134WAT     H287645   3.771   5.475   8.351
29135WAT      O87646   4.496   8.609   0.765
29135WAT     H187647   4.404   8.608   0.803
29135WAT     H287648   4.494   8.653   0.675
29136WAT      O87649   8.123   1.814   5.888
29136WAT     H187650   8.183   1.893   5.896
29136WAT     H287651   8.053   1.831   5.818
29137WAT      O87652   2.779   2.902   0.120
29137WAT     H187653   2.839   2.874   0.046
29137WAT     H287654   2.767   3.002   0.118
29138WAT      O87655   8.704   2.946   8.782
29138WAT     H187656   8.756   2.861   8.776
29138WAT     H287657   8.644   2.944   8.861
29139WAT      O87658   3.455   6.789   2.511
29139WAT     H187659   3.430   6.787   2.414
29139WAT     H287660   3.543   6.834   2.521
29140WAT      O87661   1.572   1.134   1.142
29140WAT     H187662   1.535   1.110   1.232
29140WAT     H287663   1.507   1.106   1.071
29141WAT      O87664   3.676   8.642   3.654
29141WAT     H187665   3.642   8.563   3.706
29141WAT     H287666   3.668   8.725   3.709
29142WAT      O87667   9.654   1.070   1.226
29142WAT     H187668   9.740   1.076   1.176
29142WAT     H287669   9.585   1.026   1.169
29143WAT      O87670   5.791   0.168   0.459
29143WAT     H187671   5.871   0.188   0.515
29143WAT     H287672   5.809   0.089   0.401
29144WAT      O87673   3.121   8.604   3.917
29144WAT     H187674   3.067   8.528   3.882
29144WAT     H287675   3.196   8.624   3.854
29145WAT      O87676   9.292   3.850   3.325
29145WAT     H187677   9.365   3.911   3.353
29145WAT     H287678   9.257   3.801   3.404
29146WAT      O87679   8.159   7.942   7.093
29146WAT     H187680   8.149   8.042   7.098
29146WAT     H287681   8.121   7.901   7.175
29147WAT      O87682   5.191   5.423   2.560
29147WAT     H187683   5.237   5.338   2.587
29147WAT     H287684   5.113   5.402   2.501
29148WAT      O87685   6.502   0.282   0.068
29148WAT     H187686   6.516   0.373   0.108
29148WAT     H287687   6.574   0.265  -0.000
29149WAT      O87688   5.554   7.108   1.950
29149WAT     H187689   5.574   7.156   1.865
29149WAT     H287690   5.496   7.029   1.931
29150WAT      O87691   8.395   8.328   2.226
29150WAT     H187692   8.488   8.349   2.256
29150WAT     H287693   8.370   8.236   2.256
29151WAT      O87694   6.534   3.987   0.145
29151WAT     H187695   6.442   4.011   0.117
29151WAT     H287696   6.566   4.051   0.215
29152WAT      O87697   7.848   1.664   5.891
29152WAT     H187698   7.797   1.596   5.838
29152WAT     H287699   7.846   1.752   5.844
29153WAT      O87700   8.236   5.924   3.085
29153WAT     H187701   8.233   5.896   3.182
29153WAT     H287702   8.325   5.966   3.066
29154WAT      O87703   3.961   4.719   9.044
29154WAT     H187704   4.036   4.781   9.023
29154WAT     H287705   3.969   4.687   9.139
29155WAT      O87706   8.430   4.298   0.160
29155WAT     H187707   8.418   4.255   0.071
29155WAT     H287708   8.387   4.388   0.161
29156WAT      O87709   5.387   5.531   4.496
29156WAT     H187710   5.307   5.574   4.454
29156WAT     H287711   5.470   5.581   4.470
29157WAT      O87712   2.922   9.067   6.216
29157WAT     H187713   3.015   9.076   6.251
29157WAT     H287714   2.893   9.153   6.175
29158WAT      O87715   8.057   5.327   2.355
29158WAT     H187716   8.099   5.402   2.304
29158WAT     H287717   8.106   5.242   2.335
29159WAT      O87718   3.405   9.359   3.586
29159WAT     H187719   3.473   9.426   3.614
29159WAT     H287720   3.362   9.389   3.500
29160WAT      O87721   8.698   3.294   4.623
29160WAT     H187722   8.787   3.322   4.590
29160WAT     H287723   8.700   3.197   4.648
29161WAT      O87724   1.704   1.122   3.865
29161WAT     H187725   1.740   1.167   3.784
29161WAT     H287726   1.778   1.111   3.932
29162WAT      O87727   5.213   7.849   5.391
29162WAT     H187728   5.223   7.896   5.479
29162WAT     H287729   5.203   7.751   5.406
29163WAT      O87730   2.054   1.699   9.307
29163WAT     H187731   2.137   1.695   9.252
29163WAT     H287732   2.068   1.761   9.384
29164WAT      O87733   9.697   9.055   8.433
29164WAT     H187734   9.774   9.071   8.370
29164WAT     H287735   9.643   9.139   8.442
29165WAT      O87736   4.186   2.919   1.248
29165WAT     H187737   4.206   2.900   1.344
29165WAT     H287738   4.086   2.922   1.235
29166WAT      O87739   2.745   1.399   4.933
29166WAT     H187740   2.832   1.361   4.965
29166WAT     H287741   2.752   1.418   4.835
29167WAT      O87742   7.811   1.766   0.201
29167WAT     H187743   7.820   1.844   0.140
29167WAT     H287744   7.882   1.699   0.181
29168WAT      O87745   9.832   3.665   2.508
29168WAT     H187746   9.756   3.693   2.450
29168WAT     H287747   9.813   3.575   2.547
29169WAT      O87748   3.738   1.879   0.420
29169WAT     H187749   3.716   1.913   0.328
29169WAT     H287750   3.831   1.841   0.420
29170WAT      O87751   6.388   1.146   5.797
29170WAT     H187752   6.371   1.084   5.874
29170WAT     H287753   6.329   1.122   5.720
29171WAT      O87754   3.151   3.762   5.829
29171WAT     H187755   3.105   3.851   5.827
29171WAT     H287756   3.179   3.737   5.737
29172WAT      O87757   5.289   3.244   7.827
29172WAT     H187758   5.378   3.269   7.788
29172WAT     H287759   5.219   3.252   7.757
29173WAT      O87760   3.270   9.069   2.896
29173WAT     H187761   3.258   9.061   2.995
29173WAT     H287762   3.238   9.158   2.865
29174WAT      O87763   6.523   7.538   9.226
29174WAT     H187764   6.500   7.441   9.223
29174WAT     H287765   6.507   7.573   9.319
29175WAT      O87766   0.168   7.661   0.821
29175WAT     H187767   0.258   7.626   0.846
29175WAT     H287768   0.100   7.633   0.889
29176WAT      O87769   7.766   5.831   7.178
29176WAT     H187770   7.804   5.767   7.110
29176WAT     H287771   7.721   5.907   7.131
29177WAT      O87772   4.758   7.184   4.230
29177WAT     H187773   4.856   7.192   4.247
29177WAT     H287774   4.709   7.253   4.283
29178WAT      O87775   1.708   3.280   2.398
29178WAT     H187776   1.643   3.220   2.446
29178WAT     H287777   1.783   3.305   2.460
29179WAT      O87778   6.958   9.464   8.913
29179WAT     H187779   6.940   9.549   8.863
29179WAT     H287780   6.879   9.403   8.905
29180WAT      O87781   1.099   6.442   2.254
29180WAT     H187782   1.055   6.512   2.310
29180WAT     H287783   1.063   6.352   2.277
29181WAT      O87784   4.951   7.815   6.515
29181WAT     H187785   4.888   7.753   6.562
29181WAT     H287786   4.933   7.909   6.544
29182WAT      O87787   0.415   2.483   5.260
29182WAT     H187788   0.459   2.393   5.266
29182WAT     H287789   0.448   2.541   5.334
29183WAT      O87790   6.607   7.102   8.230
29183WAT     H187791   6.574   7.137   8.142
29183WAT     H287792   6.686   7.156   8.259
29184WAT      O87793   0.417   5.569   8.208
29184WAT     H187794   0.467   5.571   8.295
29184WAT     H287795   0.388   5.475   8.190
29185WAT      O87796   5.877   8.471   5.309
29185WAT     H187797   5.968   8.495   5.276
29185WAT     H287798   5.808   8.517   5.253
29186WAT      O87799   0.023   3.046   3.665
29186WAT     H187800  -0.035   3.006   3.735
29186WAT     H287801  -0.001   3.009   3.575
29187WAT      O87802   2.515   5.810   5.320
29187WAT     H187803   2.559   5.721   5.307
29187WAT     H287804   2.460   5.833   5.240
29188WAT      O87805   6.754   4.580   6.598
29188WAT     H187806   6.848   4.560   6.626
29188WAT     H287807   6.722   4.509   6.536
29189WAT      O87808   4.475   3.036   5.834
29189WAT     H187809   4.511   3.128   5.819
29189WAT     H287810   4.454   3.023   5.931
29190WAT      O87811   8.307   7.539   6.336
29190WAT     H187812   8.250   7.494   6.268
29190WAT     H287813   8.250   7.595   6.396
29191WAT      O87814   3.479   3.225   2.627
29191WAT     H187815   3.407   3.242   2.561
29191WAT     H287816   3.512   3.312   2.664
29192WAT      O87817   1.333   9.610   0.492
29192WAT     H187818   1.347   9.546   0.416
29192WAT     H287819   1.394   9.689   0.481
29193WAT      O87820   8.626   1.149   9.479
29193WAT     H187821   8.639   1.230   9.421
29193WAT     H287822   8.564   1.172   9.554
29194WAT      O87823   6.978   2.513   5.506
29194WAT     H187824   6.914   2.453   5.554
29194WAT     H287825   7.038   2.557   5.573
29195WAT      O87826   8.880   8.427   4.302
29195WAT     H187827   8.796   8.409   4.353
29195WAT     H287828   8.916   8.342   4.265
29196WAT      O87829   8.595   9.515   0.938
29196WAT     H187830   8.527   9.529   0.866
29196WAT     H287831   8.548   9.504   1.026
29197WAT      O87832   5.302   9.085   2.173
29197WAT     H187833   5.348   9.060   2.258
29197WAT     H287834   5.357   9.055   2.095
29198WAT      O87835   1.420   2.943   2.365
29198WAT     H187836   1.475   2.969   2.286
29198WAT     H287837   1.418   3.019   2.431
29199WAT      O87838   6.992   8.446   7.018
29199WAT     H187839   7.016   8.521   7.081
29199WAT     H287840   6.929   8.383   7.064
29200WAT      O87841   1.283   6.850   9.167
29200WAT     H187842   1.222   6.886   9.096
29200WAT     H287843   1.241   6.771   9.210
29201WAT      O87844   6.062   5.648   0.145
29201WAT     H187845   6.027   5.560   0.112
29201WAT     H287846   6.140   5.676   0.090
29202WAT      O87847   5.269   4.595   7.057
29202WAT     H187848   5.326   4.602   6.975
29202WAT     H287849   5.233   4.685   7.081
29203WAT      O87850   0.669   5.915   9.299
29203WAT     H187851   0.765   5.892   9.318
29203WAT     H287852   0.652   5.905   9.201
29204WAT      O87853   8.379   4.899   2.363
29204WAT     H187854   8.344   4.881   2.454
29204WAT     H287855   8.479   4.909   2.367
29205WAT      O87856   1.099   5.973   2.601
29205WAT     H187857   1.005   5.970   2.567
29205WAT     H287858   1.098   5.969   2.701
29206WAT      O87859   2.906   2.441   1.259
29206WAT     H187860   2.882   2.351   1.222
29206WAT     H287861   2.944   2.498   1.186
29207WAT      O87862   7.745   4.477   6.254
29207WAT     H187863   7.739   4.417   6.174
29207WAT     H287864   7.686   4.442   6.326
29208WAT      O87865   4.350   6.821   7.943
29208WAT     H187866   4.311   6.818   7.851
29208WAT     H287867   4.432   6.879   7.942
29209WAT      O87868   9.590   2.790   9.383
29209WAT     H187869   9.629   2.776   9.474
29209WAT     H287870   9.614   2.713   9.324
29210WAT      O87871   8.477   5.885   7.724
29210WAT     H187872   8.479   5.918   7.630
29210WAT     H287873   8.534   5.943   7.782
29211WAT      O87874   1.734   4.121   6.368
29211WAT     H187875   1.791   4.132   6.286
29211WAT     H287876   1.704   4.026   6.375
29212WAT      O87877   5.381   5.336   3.811
29212WAT     H187878   5.330   5.392   3.875
29212WAT     H287879   5.339   5.245   3.805
29213WAT      O87880   4.306   3.972   6.546
29213WAT     H187881   4.351   4.040   6.488
29213WAT     H287882   4.292   4.010   6.637
29214WAT      O87883   3.673   3.216   1.977
29214WAT     H187884   3.724   3.243   2.059
29214WAT     H287885   3.713   3.261   1.897
29215WAT      O87886   4.674   9.233   0.172
29215WAT     H187887   4.658   9.324   0.134
29215WAT     H287888   4.744   9.186   0.118
29216WAT      O87889   1.898   0.469   3.410
29216WAT     H187890   1.862   0.406   3.479
29216WAT     H287891   1.967   0.422   3.355
29217WAT      O87892   8.359   3.810   7.578
29217WAT     H187893   8.399   3.883   7.633
29217WAT     H287894   8.362   3.724   7.630
29218WAT      O87895   4.452   7.772   4.727
29218WAT     H187896   4.359   7.765   4.763
29218WAT     H287897   4.450   7.801   4.632
29219WAT      O87898   9.588   3.015   5.284
29219WAT     H187899   9.497   3.027   5.324
29219WAT     H287900   9.581   3.010   5.185
29220WAT      O87901   6.353   6.880   6.448
29220WAT     H187902   6.399   6.796   6.420
29220WAT     H287903   6.298   6.915   6.371
29221WAT      O87904   6.458   7.554   6.760
29221WAT     H187905   6.460   7.612   6.842
29221WAT     H287906   6.514   7.473   6.775
29222WAT      O87907   4.648   9.812   0.060
29222WAT     H187908   4.745   9.837   0.065
29222WAT     H287909   4.592   9.887   0.095
29223WAT      O87910   6.170   4.612   8.273
29223WAT     H187911   6.265   4.587   8.254
29223WAT     H287912   6.162   4.648   8.366
29224WAT      O87913   0.255   1.548   2.681
29224WAT     H187914   0.273   1.643   2.655
29224WAT     H287915   0.318   1.520   2.753
29225WAT      O87916   8.343   0.410   7.570
29225WAT     H187917   8.416   0.456   7.619
29225WAT     H287918   8.324   0.321   7.613
29226WAT      O87919   2.804   7.842   6.439
29226WAT     H187920   2.786   7.862   6.535
29226WAT     H287921   2.897   7.870   6.416
29227WAT      O87922   0.220   1.319   0.056
29227WAT     H187923   0.133   1.269   0.057
29227WAT     H287924   0.287   1.269   0.111
29228WAT      O87925   4.237   0.431   3.345
29228WAT     H187926   4.323   0.386   3.368
29228WAT     H287927   4.254   0.529   3.330
29229WAT      O87928   2.711   3.037   7.594
29229WAT     H187929   2.723   3.037   7.495
29229WAT     H287930   2.707   3.131   7.628
29230WAT      O87931   8.867   4.163   0.374
29230WAT     H187932   8.941   4.211   0.327
29230WAT     H287933   8.780   4.187   0.331
29231WAT      O87934   0.866   9.134   5.664
29231WAT     H187935   0.910   9.081   5.591
29231WAT     H287936   0.842   9.224   5.630
29232WAT      O87937   8.654   9.494   2.699
29232WAT     H187938   8.608   9.463   2.782
29232WAT     H287939   8.745   9.530   2.723
29233WAT      O87940   1.924   4.079   1.509
29233WAT     H187941   1.874   3.996   1.532
29233WAT     H287942   2.014   4.077   1.552
29234WAT      O87943   4.413   5.447   8.735
29234WAT     H187944   4.456   5.526   8.692
29234WAT     H287945   4.444   5.441   8.830
29235WAT      O87946   0.234   1.721   9.648
29235WAT     H187947   0.271   1.681   9.731
29235WAT     H287948   0.268   1.671   9.568
29236WAT      O87949   9.606   9.225   2.433
29236WAT     H187950   9.685   9.231   2.495
29236WAT     H287951   9.522   9.226   2.487
29237WAT      O87952   7.045   6.995   8.580
29237WAT     H187953   6.958   6.999   8.532
29237WAT     H287954   7.078   7.087   8.598
29238WAT      O87955   1.708   1.997   1.029
29238WAT     H187956   1.784   2.062   1.024
29238WAT     H287957   1.718   1.929   0.956
29239WAT      O87958   0.628   5.310   3.620
29239WAT     H187959   0.598   5.401   3.592
29239WAT     H287960   0.631   5.249   3.540
29240WAT      O87961   0.350   5.625   9.592
29240WAT     H187962   0.285   5.697   9.615
29240WAT     H287963   0.401   5.651   9.510
29241WAT      O87964   4.207   7.345   6.580
29241WAT     H187965   4.218   7.401   6.663
29241WAT     H287966   4.293   7.343   6.530
29242WAT      O87967   1.348   2.296   2.336
29242WAT     H187968   1.252   2.320   2.343
29242WAT     H287969   1.360   2.199   2.358
29243WAT      O87970   0.741   1.101   6.354
29243WAT     H187971   0.648   1.109   6.318
29243WAT     H287972   0.776   1.192   6.376
29244WAT      O87973   4.933   2.258   3.506
29244WAT     H187974   4.869   2.276   3.431
29244WAT     H287975   4.929   2.161   3.531
29245WAT      O87976   8.894   6.428   0.221
29245WAT     H187977   8.844   6.512   0.239
29245WAT     H287978   8.847   6.377   0.149
29246WAT      O87979   2.678   2.223   2.767
29246WAT     H187980   2.578   2.222   2.764
29246WAT     H287981   2.710   2.307   2.810
29247WAT      O87982   5.476   0.089   4.129
29247WAT     H187983   5.475   0.176   4.179
29247WAT     H287984   5.563   0.080   4.081
29248WAT      O87985   6.447   7.237   9.275
29248WAT     H187986   6.371   7.288   9.316
29248WAT     H287987   6.515   7.216   9.345
29249WAT      O87988   5.750   0.273   4.679
29249WAT     H187989   5.669   0.224   4.646
29249WAT     H287990   5.816   0.207   4.716
29250WAT      O87991   7.465   8.891   9.419
29250WAT     H187992   7.441   8.824   9.349
29250WAT     H287993   7.469   8.846   9.508
29251WAT      O87994   7.831   9.107   2.259
29251WAT     H187995   7.918   9.059   2.244
29251WAT     H287996   7.759   9.040   2.278
29252WAT      O87997   6.066   4.609   9.281
29252WAT     H187998   6.000   4.683   9.279
29252WAT     H287999   6.159   4.646   9.279
29253WAT      O88000   3.517   4.068   6.889
29253WAT     H188001   3.586   4.127   6.848
29253WAT     H288002   3.523   4.074   6.989
29254WAT      O88003   0.641   5.190   4.401
29254WAT     H188004   0.608   5.096   4.412
29254WAT     H288005   0.675   5.224   4.489
29255WAT      O88006   6.363   2.408   3.473
29255WAT     H188007   6.313   2.494   3.486
29255WAT     H288008   6.456   2.428   3.441
29256WAT      O88009   9.159   5.194   5.082
29256WAT     H188010   9.064   5.172   5.060
29256WAT     H288011   9.216   5.176   5.002
29257WAT      O88012   5.992   8.931   3.888
29257WAT     H188013   6.064   8.871   3.924
29257WAT     H288014   6.032   8.993   3.821
29258WAT      O88015   6.799   2.401   5.669
29258WAT     H188016   6.723   2.465   5.676
29258WAT     H288017   6.795   2.337   5.746
29259WAT      O88018   1.965   4.820   4.272
29259WAT     H188019   2.019   4.829   4.356
29259WAT     H288020   1.938   4.724   4.260
29260WAT      O88021   7.448   2.468   3.515
29260WAT     H188022   7.406   2.396   3.459
29260WAT     H288023   7.533   2.434   3.554
29261WAT      O88024   5.373   9.297   6.690
29261WAT     H188025   5.434   9.291   6.610
29261WAT     H288026   5.308   9.222   6.688
29262WAT      O88027   2.248   9.292   7.801
29262WAT     H188028   2.296   9.266   7.885
29262WAT     H288029   2.316   9.319   7.732
29263WAT      O88030   0.859   1.895   6.615
29263WAT     H188031   0.806   1.895   6.530
29263WAT     H288032   0.863   1.802   6.652
29264WAT      O88033   8.857   7.654   6.146
29264WAT     H188034   8.948   7.697   6.149
29264WAT     H288035   8.862   7.570   6.092
29265WAT      O88036   6.562   8.224   8.836
29265WAT     H188037   6.583   8.274   8.920
29265WAT     H288038   6.513   8.140   8.859
29266WAT      O88039   0.964   0.702   0.726
29266WAT     H188040   0.926   0.713   0.818
29266WAT     H288041   1.015   0.616   0.721
29267WAT      O88042   4.788   9.028   0.801
29267WAT     H188043   4.815   9.071   0.715
29267WAT     H288044   4.791   9.095   0.875
29268WAT      O88045   9.605   4.512   8.033
29268WAT     H188046   9.645   4.533   8.123
29268WAT     H288047   9.661   4.554   7.962
29269WAT      O88048   7.933   3.267   5.216
29269WAT     H188049   7.932   3.288   5.314
29269WAT     H288050   8.025   3.238   5.190
29270WAT      O88051   8.918   7.280   4.484
29270WAT     H188052   9.011   7.255   4.455
29270WAT     H288053   8.875   7.201   4.527
29271WAT      O88054   4.772   3.621   3.561
29271WAT     H188055   4.812   3.529   3.556
29271WAT     H288056   4.675   3.614   3.586
29272WAT      O88057   7.268   6.136   8.554
29272WAT     H188058   7.312   6.160   8.641
29272WAT     H288059   7.211   6.211   8.523
29273WAT      O88060   6.669   9.437   4.161
29273WAT     H188061   6.731   9.501   4.116
29273WAT     H288062   6.721   9.359   4.196
29274WAT      O88063   4.976   1.456   0.657
29274WAT     H188064   4.888   1.412   0.640
29274WAT     H288065   4.993   1.460   0.756
29275WAT      O88066   4.448   2.099   5.538
29275WAT     H188067   4.518   2.140   5.597
29275WAT     H288068   4.484   2.014   5.499
29276WAT      O88069   7.013   1.739   6.398
29276WAT     H188070   6.999   1.641   6.384
29276WAT     H288071   7.106   1.754   6.433
29277WAT      O88072   0.310   8.926   6.264
29277WAT     H188073   0.348   8.977   6.187
29277WAT     H288074   0.295   8.831   6.236
29278WAT      O88075   7.281   5.289   3.416
29278WAT     H188076   7.258   5.332   3.503
29278WAT     H288077   7.216   5.317   3.346
29279WAT      O88078   3.567   0.401   1.165
29279WAT     H188079   3.544   0.495   1.140
29279WAT     H288080   3.501   0.338   1.123
29280WAT      O88081   3.946   6.741   8.292
29280WAT     H188082   3.847   6.730   8.284
29280WAT     H288083   3.990   6.651   8.289
29281WAT      O88084   7.481   0.474   3.006
29281WAT     H188085   7.540   0.476   3.087
29281WAT     H288086   7.389   0.502   3.032
29282WAT      O88087   2.636   9.039   3.987
29282WAT     H188088   2.649   9.133   4.019
29282WAT     H288089   2.560   9.037   3.921
29283WAT      O88090   9.129   8.294   5.706
29283WAT     H188091   9.137   8.392   5.689
29283WAT     H288092   9.035   8.273   5.732
29284WAT      O88093   6.928   8.005   7.511
29284WAT     H188094   6.910   8.096   7.548
29284WAT     H288095   6.902   7.936   7.579
29285WAT      O88096   5.719   9.184   6.812
29285WAT     H188097   5.748   9.093   6.841
29285WAT     H288098   5.667   9.227   6.886
29286WAT      O88099   6.688   5.836   4.919
29286WAT     H188100   6.774   5.839   4.868
29286WAT     H288101   6.665   5.741   4.940
29287WAT      O88102   3.427   1.888   6.966
29287WAT     H188103   3.429   1.963   6.900
29287WAT     H288104   3.347   1.831   6.950
29288WAT      O88105   2.777   9.766   1.110
29288WAT     H188106   2.784   9.728   1.203
29288WAT     H288107   2.736   9.857   1.115
29289WAT      O88108   5.090   7.730   4.218
29289WAT     H188109   5.053   7.766   4.303
29289WAT     H288110   5.048   7.641   4.199
29290WAT      O88111   0.320   4.479   2.208
29290WAT     H188112   0.293   4.564   2.164
29290WAT     H288113   0.313   4.404   2.143
29291WAT      O88114   6.688   6.263   6.789
29291WAT     H188115   6.661   6.169   6.769
29291WAT     H288116   6.677   6.281   6.887
29292WAT      O88117   0.680   1.653   8.180
29292WAT     H188118   0.714   1.578   8.123
29292WAT     H288119   0.588   1.631   8.212
29293WAT      O88120   2.006   6.404   7.955
29293WAT     H188121   2.014   6.328   8.019
29293WAT     H288122   1.910   6.433   7.950
29294WAT      O88123   3.783   2.943   7.090
29294WAT     H188124   3.745   2.852   7.071
29294WAT     H288125   3.875   2.933   7.127
29295WAT      O88126   7.467   9.841   3.429
29295WAT     H188127   7.455   9.931   3.388
29295WAT     H288128   7.419   9.772   3.373
29296WAT      O88129   4.485   1.560   1.060
29296WAT     H188130   4.568   1.595   1.016
29296WAT     H288131   4.438   1.498   0.998
29297WAT      O88132   2.183   5.216   3.320
29297WAT     H188133   2.175   5.175   3.411
29297WAT     H288134   2.231   5.153   3.259
29298WAT      O88135   7.189   9.425   0.663
29298WAT     H188136   7.134   9.505   0.688
29298WAT     H288137   7.258   9.409   0.733
29299WAT      O88138   2.024   3.162   1.032
29299WAT     H188139   2.008   3.251   0.989
29299WAT     H288140   2.113   3.163   1.079
29300WAT      O88141   0.244   7.984   9.424
29300WAT     H188142   0.239   7.962   9.327
29300WAT     H288143   0.171   7.935   9.473
29301WAT      O88144   8.127   8.742   5.086
29301WAT     H188145   8.032   8.764   5.106
29301WAT     H288146   8.182   8.826   5.085
29302WAT      O88147   4.770   2.587   6.774
29302WAT     H188148   4.860   2.583   6.819
29302WAT     H288149   4.733   2.494   6.767
29303WAT      O88150   0.643   3.641   4.613
29303WAT     H188151   0.678   3.618   4.522
29303WAT     H288152   0.629   3.740   4.618
29304WAT      O88153   3.227   5.357   0.688
29304WAT     H188154   3.295   5.284   0.687
29304WAT     H288155   3.273   5.445   0.700
29305WAT      O88156   4.397   9.742   9.865
29305WAT     H188157   4.494   9.755   9.887
29305WAT     H288158   4.342   9.771   9.943
29306WAT      O88159   2.450   0.130   0.785
29306WAT     H188160   2.411   0.045   0.750
29306WAT     H288161   2.387   0.173   0.849
29307WAT      O88162   4.241   5.838   1.500
29307WAT     H188163   4.239   5.770   1.572
29307WAT     H288164   4.331   5.840   1.457
29308WAT      O88165   0.821   3.515   1.818
29308WAT     H188166   0.847   3.468   1.903
29308WAT     H288167   0.827   3.451   1.741
29309WAT      O88168   1.372   3.774   8.538
29309WAT     H188169   1.386   3.872   8.525
29309WAT     H288170   1.311   3.759   8.615
29310WAT      O88171   5.257   0.313   2.832
29310WAT     H188172   5.348   0.315   2.789
29310WAT     H288173   5.266   0.276   2.925
29311WAT      O88174   2.102   5.797   3.657
29311WAT     H188175   2.007   5.770   3.641
29311WAT     H288176   2.138   5.746   3.735
29312WAT      O88177   3.907   5.199   8.506
29312WAT     H188178   3.918   5.177   8.409
29312WAT     H288179   3.993   5.233   8.542
29313WAT      O88180   7.752   5.355   1.749
29313WAT     H188181   7.802   5.300   1.816
29313WAT     H288182   7.817   5.409   1.696
29314WAT      O88183   9.403   9.803   3.823
29314WAT     H188184   9.396   9.758   3.912
29314WAT     H288185   9.360   9.745   3.753
29315WAT      O88186   3.640   2.740   6.253
29315WAT     H188187   3.677   2.830   6.231
29315WAT     H288188   3.605   2.697   6.170
29316WAT      O88189   8.050   3.988   9.076
29316WAT     H188190   8.037   3.991   8.977
29316WAT     H288191   8.148   3.988   9.097
29317WAT      O88192   7.194   7.476   3.318
29317WAT     H188193   7.206   7.381   3.346
29317WAT     H288194   7.132   7.480   3.240
29318WAT      O88195   2.132   4.350   6.922
29318WAT     H188196   2.147   4.330   6.825
29318WAT     H288197   2.057   4.293   6.956
29319WAT      O88198   5.529   9.814   0.471
29319WAT     H188199   5.551   9.719   0.447
29319WAT     H288200   5.541   9.872   0.391
29320WAT      O88201   3.297   0.730   6.710
29320WAT     H188202   3.235   0.802   6.679
29320WAT     H288203   3.331   0.679   6.632
29321WAT      O88204   6.853   5.523   3.433
29321WAT     H188205   6.818   5.608   3.473
29321WAT     H288206   6.879   5.460   3.506
29322WAT      O88207   4.202   4.277   9.245
29322WAT     H188208   4.194   4.358   9.303
29322WAT     H288209   4.145   4.288   9.163
29323WAT      O88210   4.102   5.392   1.002
29323WAT     H188211   4.114   5.361   1.096
29323WAT     H288212   4.007   5.381   0.975
29324WAT      O88213   9.293   9.465   1.300
29324WAT     H188214   9.305   9.439   1.396
29324WAT     H288215   9.310   9.562   1.288
29325WAT      O88216   3.580   6.453   4.714
29325WAT     H188217   3.569   6.418   4.620
29325WAT     H288218   3.490   6.469   4.754
29326WAT      O88219   7.048   7.444   4.682
29326WAT     H188220   7.091   7.472   4.596
29326WAT     H288221   7.115   7.396   4.739
29327WAT      O88222   2.913   9.090   2.436
29327WAT     H188223   2.935   9.124   2.345
29327WAT     H288224   2.993   9.044   2.475
29328WAT      O88225   9.139   1.292   5.703
29328WAT     H188226   9.091   1.232   5.768
29328WAT     H288227   9.168   1.375   5.749
29329WAT      O88228   3.871   3.978   1.549
29329WAT     H188229   3.814   3.946   1.474
29329WAT     H288230   3.839   4.068   1.579
29330WAT      O88231   8.597   7.580   9.065
29330WAT     H188232   8.629   7.526   9.142
29330WAT     H288233   8.609   7.528   8.980
29331WAT      O88234   6.709   7.647   6.945
29331WAT     H188235   6.737   7.741   6.966
29331WAT     H288236   6.773   7.606   6.880
29332WAT      O88237   4.511   5.657   4.980
29332WAT     H188238   4.565   5.715   4.919
29332WAT     H288239   4.502   5.702   5.069
29333WAT      O88240   2.443   5.615   7.379
29333WAT     H188241   2.478   5.677   7.309
29333WAT     H288242   2.469   5.648   7.469
29334WAT      O88243   8.031   4.850   0.335
29334WAT     H188244   8.036   4.786   0.258
29334WAT     H288245   7.936   4.857   0.366
29335WAT      O88246   6.607   1.859   5.981
29335WAT     H188247   6.635   1.955   5.975
29335WAT     H288248   6.635   1.822   6.070
29336WAT      O88249   7.522   6.708   6.555
29336WAT     H188250   7.594   6.775   6.535
29336WAT     H288251   7.553   6.644   6.624
29337WAT      O88252   1.671   9.251   2.680
29337WAT     H188253   1.747   9.315   2.669
29337WAT     H288254   1.600   9.294   2.736
29338WAT      O88255   6.477   2.324   9.841
29338WAT     H188256   6.488   2.342   9.938
29338WAT     H288257   6.544   2.378   9.789
29339WAT      O88258   3.448   4.404   1.917
29339WAT     H188259   3.531   4.444   1.955
29339WAT     H288260   3.469   4.360   1.830
29340WAT      O88261   6.602   2.834   9.059
29340WAT     H188262   6.690   2.810   9.099
29340WAT     H288263   6.528   2.803   9.119
29341WAT      O88264   9.656   3.984   2.293
29341WAT     H188265   9.659   3.884   2.289
29341WAT     H288266   9.736   4.021   2.246
29342WAT      O88267   8.164   2.773   2.090
29342WAT     H188268   8.072   2.741   2.069
29342WAT     H288269   8.214   2.788   2.005
29343WAT      O88270   8.050   1.197   7.087
29343WAT     H188271   8.044   1.226   7.182
29343WAT     H288272   8.101   1.266   7.034
29344WAT      O88273   9.263   5.546   8.277
29344WAT     H188274   9.294   5.451   8.277
29344WAT     H288275   9.332   5.604   8.234
29345WAT      O88276   5.756   2.159   9.462
29345WAT     H188277   5.802   2.193   9.381
29345WAT     H288278   5.822   2.115   9.523
29346WAT      O88279   9.831   7.658   5.195
29346WAT     H188280   9.851   7.626   5.288
29346WAT     H288281   9.773   7.739   5.199
29347WAT      O88282   2.713   0.445   9.454
29347WAT     H188283   2.781   0.434   9.382
29347WAT     H288284   2.665   0.532   9.442
29348WAT      O88285   3.755   8.574   0.918
29348WAT     H188286   3.670   8.542   0.959
29348WAT     H288287   3.832   8.529   0.963
29349WAT      O88288   1.686   2.892   4.118
29349WAT     H188289   1.649   2.830   4.187
29349WAT     H288290   1.715   2.838   4.038
29350WAT      O88291   1.828   1.701   1.658
29350WAT     H188292   1.804   1.701   1.561
29350WAT     H288293   1.898   1.632   1.675
29351WAT      O88294   3.521   5.807   3.192
29351WAT     H188295   3.496   5.784   3.098
29351WAT     H288296   3.552   5.902   3.196
29352WAT      O88297   2.441   7.774   3.905
29352WAT     H188298   2.497   7.812   3.979
29352WAT     H288299   2.401   7.849   3.852
29353WAT      O88300   7.342   7.363   0.302
29353WAT     H188301   7.267   7.306   0.268
29353WAT     H288302   7.307   7.424   0.373
29354WAT      O88303   9.328   5.681   2.407
29354WAT     H188304   9.418   5.694   2.447
29354WAT     H288305   9.316   5.744   2.330
29355WAT      O88306   9.342   9.091   9.017
29355WAT     H188307   9.304   9.086   9.109
29355WAT     H288308   9.301   9.021   8.960
29356WAT      O88309   0.777   8.811   7.125
29356WAT     H188310   0.851   8.874   7.150
29356WAT     H288311   0.810   8.745   7.059
29357WAT      O88312   6.153   2.842   7.951
29357WAT     H188313   6.170   2.890   8.037
29357WAT     H288314   6.163   2.743   7.966
29358WAT      O88315   1.229   3.079   6.615
29358WAT     H188316   1.140   3.050   6.581
29358WAT     H288317   1.300   3.051   6.550
29359WAT      O88318   4.360   4.915   7.317
29359WAT     H188319   4.339   4.827   7.360
29359WAT     H288320   4.313   4.922   7.229
29360WAT      O88321   0.566   4.797   5.618
29360WAT     H188322   0.545   4.776   5.522
29360WAT     H288323   0.481   4.801   5.670
29361WAT      O88324   0.989   7.679   9.270
29361WAT     H188325   0.978   7.742   9.193
29361WAT     H288326   0.901   7.670   9.318
29362WAT      O88327   4.436   1.026   0.785
29362WAT     H188328   4.379   1.078   0.850
29362WAT     H288329   4.426   0.928   0.803
29363WAT      O88330   2.141   5.018   5.431
29363WAT     H188331   2.129   4.927   5.391
29363WAT     H288332   2.230   5.023   5.477
29364WAT      O88333   9.468   8.693   6.336
29364WAT     H188334   9.423   8.663   6.252
29364WAT     H288335   9.495   8.789   6.328
29365WAT      O88336   7.040   0.063   0.351
29365WAT     H188337   6.942   0.077   0.360
29365WAT     H288338   7.058  -0.032   0.326
29366WAT      O88339   3.579   0.809   8.605
29366WAT     H188340   3.549   0.754   8.526
29366WAT     H288341   3.503   0.866   8.636
29367WAT      O88342   6.687   8.224   2.656
29367WAT     H188343   6.596   8.263   2.651
29367WAT     H288344   6.711   8.183   2.568
29368WAT      O88345   2.861   3.955   1.539
29368WAT     H188346   2.848   3.857   1.551
29368WAT     H288347   2.784   3.993   1.488
29369WAT      O88348   5.384   3.410   5.702
29369WAT     H188349   5.381   3.469   5.621
29369WAT     H288350   5.311   3.437   5.765
29370WAT      O88351   6.731   0.259   3.515
29370WAT     H188352   6.809   0.249   3.452
29370WAT     H288353   6.671   0.332   3.481
29371WAT      O88354   3.463   3.229   9.578
29371WAT     H188355   3.536   3.237   9.645
29371WAT     H288356   3.501   3.231   9.486
29372WAT      O88357   8.546   9.232   2.637
29372WAT     H188358   8.602   9.315   2.640
29372WAT     H288359   8.589   9.161   2.692
29373WAT      O88360   3.952   2.000   0.055
29373WAT     H188361   3.998   2.088   0.059
29373WAT     H288362   3.915   1.985  -0.037
29374WAT      O88363   0.115   4.060   0.488
29374WAT     H188364   0.211   4.089   0.490
29374WAT     H288365   0.059   4.133   0.449
29375WAT      O88366   3.477   4.506   7.724
29375WAT     H188367   3.434   4.486   7.812
29375WAT     H288368   3.568   4.546   7.739
29376WAT      O88369   5.754   5.542   0.707
29376WAT     H188370   5.786   5.599   0.632
29376WAT     H288371   5.655   5.529   0.700
29377WAT      O88372   7.926   0.492   4.423
29377WAT     H188373   7.952   0.587   4.408
29377WAT     H288374   7.902   0.479   4.520
29378WAT      O88375   9.220   2.838   6.853
29378WAT     H188376   9.217   2.930   6.894
29378WAT     H288377   9.176   2.773   6.914
29379WAT      O88378   9.050   9.770   3.445
29379WAT     H188379   9.044   9.743   3.541
29379WAT     H288380   8.981   9.840   3.426
29380WAT      O88381   4.187   1.336   1.915
29380WAT     H188382   4.118   1.367   1.980
29380WAT     H288383   4.221   1.246   1.943
29381WAT      O88384   8.531   2.908   6.789
29381WAT     H188385   8.621   2.946   6.809
29381WAT     H288386   8.511   2.835   6.853
29382WAT      O88387   6.675   8.533   6.948
29382WAT     H188388   6.643   8.609   7.004
29382WAT     H288389   6.747   8.483   6.996
29383WAT      O88390   0.433   9.030   3.742
29383WAT     H188391   0.425   8.942   3.696
29383WAT     H288392   0.529   9.057   3.747
29384WAT      O88393   1.348   7.496   0.914
29384WAT     H188394   1.415   7.422   0.914
29384WAT     H288395   1.365   7.557   0.836
29385WAT      O88396   1.223   7.580   2.440
29385WAT     H188397   1.179   7.492   2.423
29385WAT     H288398   1.154   7.648   2.464
29386WAT      O88399   1.706   5.419   8.623
29386WAT     H188400   1.634   5.486   8.602
29386WAT     H288401   1.707   5.348   8.552
29387WAT      O88402   8.818   7.522   1.334
29387WAT     H188403   8.884   7.446   1.332
29387WAT     H288404   8.758   7.511   1.413
29388WAT      O88405   0.120   0.975   8.926
29388WAT     H188406   0.106   0.962   9.024
29388WAT     H288407   0.167   0.895   8.888
29389WAT      O88408   1.924   8.392   6.122
29389WAT     H188409   1.950   8.380   6.218
29389WAT     H288410   1.839   8.344   6.105
29390WAT      O88411   8.125   0.302   1.730
29390WAT     H188412   8.059   0.229   1.711
29390WAT     H288413   8.078   0.377   1.777
29391WAT      O88414   0.890   0.242   7.498
29391WAT     H188415   0.859   0.304   7.425
29391WAT     H288416   0.972   0.194   7.468
29392WAT      O88417   7.036   0.055   8.282
29392WAT     H188418   7.035  -0.001   8.199
29392WAT     H288419   7.096   0.014   8.350
29393WAT      O88420   3.471   7.516   8.257
29393WAT     H188421   3.452   7.604   8.213
29393WAT     H288422   3.403   7.448   8.228
29394WAT      O88423   9.420   7.433   8.660
29394WAT     H188424   9.329   7.394   8.650
29394WAT     H288425   9.487   7.374   8.613
29395WAT      O88426   6.937   1.898   8.748
29395WAT     H188427   7.015   1.889   8.809
29395WAT     H288428   6.964   1.950   8.667
29396WAT      O88429   4.212   2.539   4.926
29396WAT     H188430   4.242   2.467   4.864
29396WAT     H288431   4.236   2.628   4.887
29397WAT      O88432   3.472   7.056   1.358
29397WAT     H188433   3.496   7.015   1.445
29397WAT     H288434   3.482   7.155   1.364
29398WAT      O88435   3.907   8.364   7.917
29398WAT     H188436   3.937   8.428   7.988
29398WAT     H288437   3.829   8.403   7.868
29399WAT      O88438   1.113   1.724   4.875
29399WAT     H188439   1.181   1.700   4.944
29399WAT     H288440   1.062   1.642   4.847
29400WAT      O88441   9.751   1.185   6.095
29400WAT     H188442   9.835   1.133   6.110
29400WAT     H288443   9.768   1.258   6.030
29401WAT      O88444   3.033   4.571   1.790
29401WAT     H188445   3.107   4.589   1.855
29401WAT     H288446   3.019   4.472   1.782
29402WAT      O88447   9.124   4.647   9.174
29402WAT     H188448   9.199   4.603   9.124
29402WAT     H288449   9.162   4.713   9.239
29403WAT      O88450   5.786   1.050   6.032
29403WAT     H188451   5.693   1.024   6.008
29403WAT     H288452   5.806   1.142   5.997
29404WAT      O88453   7.075   4.599   7.122
29404WAT     H188454   7.173   4.598   7.142
29404WAT     H288455   7.025   4.644   7.196
29405WAT      O88456   8.131   2.889   2.327
29405WAT     H188457   8.164   2.857   2.238
29405WAT     H288458   8.061   2.959   2.313
29406WAT      O88459   0.925   9.230   1.782
29406WAT     H188460   0.903   9.328   1.776
29406WAT     H288461   0.849   9.176   1.748
29407WAT      O88462   5.856   6.099   1.406
29407WAT     H188463   5.825   6.144   1.322
29407WAT     H288464   5.791   6.028   1.431
29408WAT      O88465   1.817   4.956   7.394
29408WAT     H188466   1.791   4.872   7.441
29408WAT     H288467   1.857   4.933   7.304
29409WAT      O88468   8.728   2.475   3.735
29409WAT     H188469   8.648   2.503   3.788
29409WAT     H288470   8.735   2.532   3.653
29410WAT      O88471   0.315   7.134   8.188
29410WAT     H188472   0.360   7.223   8.189
29410WAT     H288473   0.338   7.086   8.103
29411WAT      O88474   4.482   4.282   4.221
29411WAT     H188475   4.472   4.350   4.149
29411WAT     H288476   4.565   4.228   4.205
29412WAT      O88477   7.181   5.299   5.739
29412WAT     H188478   7.213   5.254   5.655
29412WAT     H288479   7.222   5.390   5.746
29413WAT      O88480   8.702   2.037   2.527
29413WAT     H188481   8.740   1.955   2.568
29413WAT     H288482   8.772   2.084   2.474
29414WAT      O88483   0.611   1.541   3.166
29414WAT     H188484   0.616   1.455   3.115
29414WAT     H288485   0.619   1.618   3.102
29415WAT      O88486   7.077   5.003   9.285
29415WAT     H188487   7.162   5.036   9.244
29415WAT     H288488   7.016   4.970   9.213
29416WAT      O88489   6.903   2.782   2.275
29416WAT     H188490   6.951   2.700   2.304
29416WAT     H288491   6.876   2.773   2.179
29417WAT      O88492   1.611   4.167   0.688
29417WAT     H188493   1.604   4.218   0.773
29417WAT     H288494   1.707   4.152   0.666
29418WAT      O88495   0.269   6.298   7.153
29418WAT     H188496   0.201   6.348   7.207
29418WAT     H288497   0.351   6.355   7.141
29419WAT      O88498   5.235   3.752   9.802
29419WAT     H188499   5.137   3.733   9.802
29419WAT     H288500   5.267   3.765   9.708
29420WAT      O88501   1.983   6.802   8.759
29420WAT     H188502   2.056   6.865   8.788
29420WAT     H288503   1.915   6.853   8.706
29421WAT      O88504   1.146   2.048   2.926
29421WAT     H188505   1.175   1.969   2.871
29421WAT     H288506   1.074   2.019   2.990
29422WAT      O88507   6.469   0.148   6.820
29422WAT     H188508   6.492   0.091   6.741
29422WAT     H288509   6.377   0.126   6.851
29423WAT      O88510   7.280   5.059   6.966
29423WAT     H188511   7.254   5.043   7.062
29423WAT     H288512   7.246   4.984   6.910
29424WAT      O88513   3.036   2.853   1.542
29424WAT     H188514   2.942   2.824   1.561
29424WAT     H288515   3.045   2.951   1.559
29425WAT      O88516   8.937   9.664   1.189
29425WAT     H188517   8.977   9.753   1.169
29425WAT     H288518   8.878   9.672   1.270
29426WAT      O88519   7.018   4.732   9.006
29426WAT     H188520   6.963   4.804   9.048
29426WAT     H288521   7.004   4.646   9.054
29427WAT      O88522   3.473   5.530   6.501
29427WAT     H188523   3.412   5.594   6.453
29427WAT     H288524   3.481   5.446   6.448
29428WAT      O88525   5.340   0.574   0.154
29428WAT     H188526   5.343   0.573   0.054
29428WAT     H288527   5.264   0.631   0.184
29429WAT      O88528   9.801   5.268   4.599
29429WAT     H188529   9.777   5.359   4.567
29429WAT     H288530   9.872   5.229   4.540
29430WAT      O88531   1.318   1.750   8.325
29430WAT     H188532   1.263   1.682   8.276
29430WAT     H288533   1.413   1.743   8.297
29431WAT      O88534   3.524   2.929   6.010
29431WAT     H188535   3.602   2.986   5.984
29431WAT     H288536   3.553   2.834   6.015
29432WAT      O88537   0.329   3.782   9.028
29432WAT     H188538   0.331   3.683   9.036
29432WAT     H288539   0.316   3.807   8.932
29433WAT      O88540   2.012   4.621   9.531
29433WAT     H188541   2.046   4.531   9.505
29433WAT     H288542   1.926   4.612   9.581
29434WAT      O88543   8.702   2.337   2.629
29434WAT     H188544   8.660   2.426   2.615
29434WAT     H288545   8.658   2.270   2.569
29435WAT      O88546   1.448   7.931   1.750
29435WAT     H188547   1.408   7.849   1.709
29435WAT     H288548   1.386   8.009   1.735
29436WAT      O88549   2.925   2.000   3.434
29436WAT     H188550   3.022   1.991   3.456
29436WAT     H288551   2.907   1.963   3.343
29437WAT      O88552   2.502   7.220   2.162
29437WAT     H188553   2.510   7.204   2.064
29437WAT     H288554   2.556   7.152   2.212
29438WAT      O88555   2.754   3.641   4.375
29438WAT     H188556   2.712   3.727   4.347
29438WAT     H288557   2.779   3.589   4.294
29439WAT      O88558   3.307   1.558   4.679
29439WAT     H188559   3.215   1.523   4.663
29439WAT     H288560   3.347   1.511   4.758
29440WAT      O88561   9.133   7.515   4.968
29440WAT     H188562   9.072   7.461   4.910
29440WAT     H288563   9.113   7.497   5.064
29441WAT      O88564   4.697   2.162   0.055
29441WAT     H188565   4.727   2.083   0.002
29441WAT     H288566   4.681   2.134   0.150
29442WAT      O88567   1.560   6.244   4.473
29442WAT     H188568   1.624   6.280   4.541
29442WAT     H288569   1.609   6.183   4.410
29443WAT      O88570   9.311   8.305   7.250
29443WAT     H188571   9.386   8.309   7.184
29443WAT     H288572   9.346   8.326   7.341
29444WAT      O88573   2.099   1.520   2.262
29444WAT     H188574   2.161   1.471   2.323
29444WAT     H288575   2.083   1.466   2.179
29445WAT      O88576   5.009   4.768   7.457
29445WAT     H188577   4.972   4.728   7.540
29445WAT     H288578   4.970   4.723   7.377
29446WAT      O88579   7.742   0.167   9.191
29446WAT     H188580   7.747   0.068   9.205
29446WAT     H288581   7.806   0.194   9.119
29447WAT      O88582   5.570   7.313   1.732
29447WAT     H188583   5.479   7.346   1.757
29447WAT     H288584   5.569   7.285   1.636
29448WAT      O88585   7.333   5.911   9.442
29448WAT     H188586   7.431   5.917   9.459
29448WAT     H288587   7.288   5.994   9.473
29449WAT      O88588   0.006   0.331   5.277
29449WAT     H188589  -0.010   0.355   5.182
29449WAT     H288590   0.002   0.231   5.288
29450WAT      O88591   6.092   1.765   2.537
29450WAT     H188592   6.160   1.819   2.488
29450WAT     H288593   6.011   1.821   2.555
29451WAT      O88594   7.773   0.259   9.589
29451WAT     H188595   7.824   0.242   9.673
29451WAT     H288596   7.831   0.308   9.524
29452WAT      O88597   4.348   7.619   5.627
29452WAT     H188598   4.255   7.643   5.653
29452WAT     H288599   4.405   7.701   5.625
29453WAT      O88600   8.207   1.851   9.409
29453WAT     H188601   8.122   1.840   9.460
29453WAT     H288602   8.199   1.806   9.320
29454WAT      O88603   8.780   4.011   7.188
29454WAT     H188604   8.819   4.100   7.164
29454WAT     H288605   8.711   4.023   7.260
29455WAT      O88606   6.552   6.324   6.550
29455WAT     H188607   6.616   6.322   6.627
29455WAT     H288608   6.458   6.326   6.585
29456WAT      O88609   7.202   3.369   1.392
29456WAT     H188610   7.217   3.270   1.387
29456WAT     H288611   7.290   3.416   1.393
29457WAT      O88612   8.482   9.087   3.100
29457WAT     H188613   8.539   9.156   3.145
29457WAT     H288614   8.399   9.131   3.064
29458WAT      O88615   3.350   2.139   0.192
29458WAT     H188616   3.400   2.144   0.105
29458WAT     H288617   3.267   2.085   0.180
29459WAT      O88618   0.263   3.310   8.751
29459WAT     H188619   0.288   3.230   8.697
29459WAT     H288620   0.273   3.290   8.848
29460WAT      O88621   1.738   2.471   3.507
29460WAT     H188622   1.713   2.430   3.595
29460WAT     H288623   1.737   2.570   3.515
29461WAT      O88624   7.688   8.200   7.703
29461WAT     H188625   7.779   8.241   7.697
29461WAT     H288626   7.640   8.237   7.783
29462WAT      O88627   6.650   8.030   4.920
29462WAT     H188628   6.645   7.969   5.000
29462WAT     H288629   6.561   8.034   4.876
29463WAT      O88630   1.688   6.504   1.689
29463WAT     H188631   1.745   6.534   1.766
29463WAT     H288632   1.597   6.478   1.723
29464WAT      O88633   6.492   9.169   0.368
29464WAT     H188634   6.463   9.239   0.303
29464WAT     H288635   6.522   9.213   0.452
29465WAT      O88636   8.319   0.538   9.760
29465WAT     H188637   8.363   0.457   9.721
29465WAT     H288638   8.378   0.577   9.830
29466WAT      O88639   4.212   5.723   6.781
29466WAT     H188640   4.236   5.808   6.734
29466WAT     H288641   4.139   5.742   6.847
29467WAT      O88642   8.660   9.282   6.040
29467WAT     H188643   8.643   9.185   6.057
29467WAT     H288644   8.758   9.300   6.047
29468WAT      O88645   4.808   4.057   9.031
29468WAT     H188646   4.838   4.107   9.112
29468WAT     H288647   4.794   3.961   9.054
29469WAT      O88648   7.937   3.939   9.322
29469WAT     H188649   7.975   3.956   9.231
29469WAT     H288650   7.973   3.852   9.356
29470WAT      O88651   4.434   0.138   2.712
29470WAT     H188652   4.506   0.151   2.644
29470WAT     H288653   4.353   0.099   2.667
29471WAT      O88654   4.809   9.406   2.664
29471WAT     H188655   4.738   9.424   2.732
29471WAT     H288656   4.777   9.437   2.574
29472WAT      O88657   6.216   3.141   5.509
29472WAT     H188658   6.122   3.118   5.534
29472WAT     H288659   6.236   3.234   5.541
29473WAT      O88660   8.837   3.474   5.435
29473WAT     H188661   8.768   3.546   5.435
29473WAT     H288662   8.866   3.456   5.342
29474WAT      O88663   0.213   1.724   5.494
29474WAT     H188664   0.151   1.783   5.545
29474WAT     H288665   0.160   1.655   5.443
29475WAT      O88666   1.596   4.647   7.685
29475WAT     H188667   1.515   4.591   7.701
29475WAT     H288668   1.572   4.744   7.689
29476WAT      O88669   4.215   5.191   9.673
29476WAT     H188670   4.270   5.253   9.618
29476WAT     H288671   4.120   5.223   9.675
29477WAT      O88672   7.978   6.822   3.372
29477WAT     H188673   7.934   6.755   3.312
29477WAT     H288674   8.054   6.779   3.420
29478WAT      O88675   8.465   6.763   1.543
29478WAT     H188676   8.414   6.691   1.496
29478WAT     H288677   8.557   6.731   1.565
29479WAT      O88678   7.356   9.223   5.253
29479WAT     H188679   7.278   9.263   5.204
29479WAT     H288680   7.327   9.199   5.346
29480WAT      O88681   6.387   9.171   8.262
29480WAT     H188682   6.412   9.133   8.351
29480WAT     H288683   6.458   9.147   8.195
29481WAT      O88684   5.881   5.318   5.031
29481WAT     H188685   5.830   5.323   5.117
29481WAT     H288686   5.930   5.230   5.026
29482WAT      O88687   0.342   0.325   3.135
29482WAT     H188688   0.376   0.388   3.204
29482WAT     H288689   0.250   0.294   3.161
29483WAT      O88690   4.418   2.095   3.354
29483WAT     H188691   4.438   2.079   3.257
29483WAT     H288692   4.498   2.069   3.409
29484WAT      O88693   2.060   8.400   4.887
29484WAT     H188694   1.986   8.380   4.952
29484WAT     H288695   2.146   8.408   4.938
29485WAT      O88696   7.997   3.805   1.048
29485WAT     H188697   8.039   3.833   0.962
29485WAT     H288698   7.937   3.878   1.081
29486WAT      O88699   9.663   9.171   3.635
29486WAT     H188700   9.651   9.270   3.642
29486WAT     H288701   9.757   9.148   3.662
29487WAT      O88702   8.850   8.576   2.467
29487WAT     H188703   8.922   8.620   2.519
29487WAT     H288704   8.841   8.481   2.496
29488WAT      O88705   5.253   2.135   2.480
29488WAT     H188706   5.316   2.082   2.536
29488WAT     H288707   5.221   2.080   2.402
29489WAT      O88708   3.398   7.622   4.738
29489WAT     H188709   3.370   7.718   4.742
29489WAT     H288710   3.387   7.589   4.645
29490WAT      O88711   5.138   3.518   1.037
29490WAT     H188712   5.217   3.577   1.050
29490WAT     H288713   5.159   3.426   1.071
29491WAT      O88714   7.679   6.637   0.424
29491WAT     H188715   7.703   6.541   0.441
29491WAT     H288716   7.637   6.646   0.333
29492WAT      O88717   5.843   8.128   3.919
29492WAT     H188718   5.845   8.184   4.002
29492WAT     H288719   5.876   8.036   3.940
29493WAT      O88720   4.797   4.428   0.249
29493WAT     H188721   4.870   4.370   0.285
29493WAT     H288722   4.836   4.512   0.213
29494WAT      O88723   7.109   5.179   2.447
29494WAT     H188724   7.018   5.140   2.464
29494WAT     H288725   7.122   5.258   2.506
29495WAT      O88726   2.099   2.935   6.404
29495WAT     H188727   2.055   2.882   6.477
29495WAT     H288728   2.106   3.030   6.432
29496WAT      O88729   9.248   4.265   9.374
29496WAT     H188730   9.341   4.300   9.361
29496WAT     H288731   9.182   4.340   9.363
29497WAT      O88732   5.594   0.939   0.767
29497WAT     H188733   5.594   1.005   0.842
29497WAT     H288734   5.503   0.899   0.758
29498WAT      O88735   5.252   4.540   9.241
29498WAT     H188736   5.305   4.457   9.222
29498WAT     H288737   5.311   4.620   9.231
29499WAT      O88738   5.991   1.051   1.891
29499WAT     H188739   6.047   1.071   1.972
29499WAT     H288740   5.906   1.007   1.918
29500WAT      O88741   8.408   2.965   6.382
29500WAT     H188742   8.465   3.021   6.442
29500WAT     H288743   8.345   3.023   6.331
29501WAT      O88744   1.579   2.572   2.649
29501WAT     H188745   1.493   2.556   2.698
29501WAT     H288746   1.586   2.508   2.572
29502WAT      O88747   2.333   6.544   1.640
29502WAT     H188748   2.324   6.573   1.735
29502WAT     H288749   2.255   6.576   1.587
29503WAT      O88750   1.401   4.534   5.485
29503WAT     H188751   1.393   4.537   5.385
29503WAT     H288752   1.428   4.624   5.519
29504WAT      O88753   5.946   5.795   6.052
29504WAT     H188754   5.889   5.713   6.044
29504WAT     H288755   6.039   5.769   6.079
29505WAT      O88756   9.188   5.111   7.838
29505WAT     H188757   9.231   5.030   7.879
29505WAT     H288758   9.089   5.103   7.846
29506WAT      O88759   9.304   4.504   5.119
29506WAT     H188760   9.373   4.444   5.160
29506WAT     H288761   9.230   4.519   5.185
29507WAT      O88762   8.572   6.138   8.278
29507WAT     H188763   8.623   6.223   8.290
29507WAT     H288764   8.572   6.086   8.363
29508WAT      O88765   2.500   0.994   2.424
29508WAT     H188766   2.597   1.015   2.438
29508WAT     H288767   2.479   0.904   2.463
29509WAT      O88768   5.703   8.051   2.149
29509WAT     H188769   5.777   7.998   2.109
29509WAT     H288770   5.615   8.014   2.118
29510WAT      O88771   5.680   2.215   8.610
29510WAT     H188772   5.750   2.204   8.681
29510WAT     H288773   5.716   2.271   8.536
29511WAT      O88774   6.359   6.388   2.997
29511WAT     H188775   6.435   6.428   3.049
29511WAT     H288776   6.272   6.418   3.035
29512WAT      O88777   9.289   7.154   2.358
29512WAT     H188778   9.209   7.213   2.352
29512WAT     H288779   9.302   7.124   2.453
29513WAT      O88780   9.537   1.028   5.928
29513WAT     H188781   9.626   1.065   5.955
29513WAT     H288782   9.535   1.015   5.829
29514WAT      O88783   5.787   8.538   6.184
29514WAT     H188784   5.828   8.561   6.272
29514WAT     H288785   5.707   8.596   6.169
29515WAT      O88786   1.423   6.996   6.429
29515WAT     H188787   1.389   6.916   6.380
29515WAT     H288788   1.515   7.019   6.396
29516WAT      O88789   4.659   0.056   4.639
29516WAT     H188790   4.678  -0.035   4.600
29516WAT     H288791   4.578   0.094   4.595
29517WAT      O88792   5.763   5.742   5.736
29517WAT     H188793   5.732   5.696   5.820
29517WAT     H288794   5.807   5.675   5.676
29518WAT      O88795   5.311   3.025   0.242
29518WAT     H188796   5.287   3.015   0.146
29518WAT     H288797   5.359   2.942   0.273
29519WAT      O88798   5.067   2.671   6.676
29519WAT     H188799   5.138   2.664   6.606
29519WAT     H288800   5.062   2.584   6.726
29520WAT      O88801   7.380   2.378   9.460
29520WAT     H188802   7.442   2.333   9.395
29520WAT     H288803   7.286   2.349   9.443
29521WAT      O88804   9.643   7.594   0.102
29521WAT     H188805   9.576   7.552   0.163
29521WAT     H288806   9.597   7.659   0.041
29522WAT      O88807   8.437   4.101   8.501
29522WAT     H188808   8.449   4.198   8.522
29522WAT     H288809   8.508   4.071   8.437
29523WAT      O88810   9.137   0.700   7.464
29523WAT     H188811   9.070   0.686   7.391
29523WAT     H288812   9.127   0.792   7.501
29524WAT      O88813   9.249   8.242   6.783
29524WAT     H188814   9.229   8.329   6.827
29524WAT     H288815   9.277   8.175   6.853
29525WAT      O88816   9.544   8.268   1.827
29525WAT     H188817   9.628   8.233   1.868
29525WAT     H288818   9.514   8.350   1.876
29526WAT      O88819   7.454   1.762   2.935
29526WAT     H188820   7.539   1.738   2.982
29526WAT     H288821   7.400   1.679   2.919
29527WAT      O88822   5.056   6.511   0.302
29527WAT     H188823   5.011   6.562   0.229
29527WAT     H288824   5.154   6.502   0.282
29528WAT      O88825   8.808   9.037   6.493
29528WAT     H188826   8.719   9.057   6.534
29528WAT     H288827   8.879   9.090   6.537
29529WAT      O88828   1.098   4.609   5.911
29529WAT     H188829   1.036   4.534   5.889
29529WAT     H288830   1.193   4.577   5.903
29530WAT      O88831   7.885   0.960   1.556
29530WAT     H188832   7.912   1.055   1.545
29530WAT     H288833   7.829   0.932   1.478
29531WAT      O88834   9.723   8.407   2.046
29531WAT     H188835   9.632   8.447   2.059
29531WAT     H288836   9.783   8.473   2.000
29532WAT      O88837   5.151   0.780   6.886
29532WAT     H188838   5.199   0.748   6.804
29532WAT     H288839   5.197   0.743   6.967
29533WAT      O88840   4.172   1.468   5.955
29533WAT     H188841   4.098   1.528   5.986
29533WAT     H288842   4.159   1.447   5.858
29534WAT      O88843   5.562   8.505   4.496
29534WAT     H188844   5.578   8.592   4.450
29534WAT     H288845   5.615   8.501   4.581
29535WAT      O88846   1.670   0.819   8.921
29535WAT     H188847   1.753   0.846   8.970
29535WAT     H288848   1.590   0.848   8.973
29536WAT      O88849   7.314   2.103   7.655
29536WAT     H188850   7.231   2.070   7.700
29536WAT     H288851   7.291   2.140   7.565
29537WAT      O88852   0.479   0.057   3.396
29537WAT     H188853   0.429   0.094   3.474
29537WAT     H288854   0.577   0.065   3.412
29538WAT      O88855   9.356   7.432   7.339
29538WAT     H188856   9.350   7.347   7.391
29538WAT     H288857   9.335   7.413   7.243
29539WAT      O88858   1.996   3.797   1.827
29539WAT     H188859   1.972   3.764   1.736
29539WAT     H288860   2.077   3.750   1.860
29540WAT      O88861   2.508   0.534   2.260
29540WAT     H188862   2.539   0.624   2.291
29540WAT     H288863   2.436   0.546   2.191
29541WAT      O88864   8.635   8.548   7.696
29541WAT     H188865   8.539   8.548   7.722
29541WAT     H288866   8.665   8.453   7.681
29542WAT      O88867   3.185   3.084   0.555
29542WAT     H188868   3.177   3.061   0.652
29542WAT     H288869   3.100   3.125   0.522
29543WAT      O88870   7.662   5.619   9.649
29543WAT     H188871   7.750   5.596   9.607
29543WAT     H288872   7.609   5.676   9.587
29544WAT      O88873   0.292   3.897   8.800
29544WAT     H188874   0.359   3.971   8.795
29544WAT     H288875   0.289   3.849   8.713
29545WAT      O88876   9.650   3.702   2.296
29545WAT     H188877   9.654   3.705   2.196
29545WAT     H288878   9.564   3.658   2.325
29546WAT      O88879   0.099   1.420   7.483
29546WAT     H188880   0.131   1.408   7.389
29546WAT     H288881   0.027   1.489   7.486
29547WAT      O88882   1.996   2.534   3.622
29547WAT     H188883   1.903   2.497   3.608
29547WAT     H288884   2.030   2.504   3.711
29548WAT      O88885   9.644   9.186   5.340
29548WAT     H188886   9.595   9.114   5.291
29548WAT     H288887   9.740   9.160   5.351
29549WAT      O88888   3.946   5.049   3.413
29549WAT     H188889   3.875   4.982   3.392
29549WAT     H288890   3.960   5.109   3.334
29550WAT      O88891   5.593   7.787   6.508
29550WAT     H188892   5.564   7.700   6.469
29550WAT     H288893   5.569   7.790   6.605
29551WAT      O88894   6.382   1.378   9.300
29551WAT     H188895   6.431   1.465   9.311
29551WAT     H288896   6.388   1.326   9.385
29552WAT      O88897   6.579   5.387   8.376
29552WAT     H188898   6.504   5.353   8.433
29552WAT     H288899   6.655   5.322   8.379
29553WAT      O88900   2.221   1.093   4.131
29553WAT     H188901   2.173   1.147   4.061
29553WAT     H288902   2.174   1.006   4.144
29554WAT      O88903   0.263   6.661   6.685
29554WAT     H188904   0.167   6.682   6.667
29554WAT     H288905   0.294   6.590   6.620
29555WAT      O88906   1.326   4.678   2.733
29555WAT     H188907   1.422   4.702   2.721
29555WAT     H288908   1.269   4.759   2.719
29556WAT      O88909   0.855   7.976   6.344
29556WAT     H188910   0.858   7.876   6.349
29556WAT     H288911   0.914   8.007   6.269
29557WAT      O88912   9.763   1.742   9.148
29557WAT     H188913   9.776   1.833   9.109
29557WAT     H288914   9.696   1.747   9.222
29558WAT      O88915   8.673   1.644   7.578
29558WAT     H188916   8.716   1.556   7.597
29558WAT     H288917   8.574   1.637   7.589
29559WAT      O88918   8.026   9.501   7.205
29559WAT     H188919   8.018   9.452   7.118
29559WAT     H288920   8.014   9.436   7.280
29560WAT      O88921   3.189   4.931   0.424
29560WAT     H188922   3.182   5.031   0.430
29560WAT     H288923   3.100   4.893   0.397
29561WAT      O88924   6.733   3.976   9.595
29561WAT     H188925   6.821   3.955   9.637
29561WAT     H288926   6.731   3.940   9.502
29562WAT      O88927   0.163   7.540   8.226
29562WAT     H188928   0.093   7.588   8.279
29562WAT     H288929   0.152   7.441   8.238
29563WAT      O88930   4.235   1.771   5.343
29563WAT     H188931   4.136   1.783   5.356
29563WAT     H288932   4.251   1.722   5.257
29564WAT      O88933   5.766   2.728   9.009
29564WAT     H188934   5.822   2.810   8.996
29564WAT     H288935   5.694   2.746   9.076
29565WAT      O88936   6.108   8.438   7.390
29565WAT     H188937   6.033   8.403   7.446
29565WAT     H288938   6.071   8.484   7.309
29566WAT      O88939   5.346   7.445   3.836
29566WAT     H188940   5.326   7.348   3.821
29566WAT     H288941   5.264   7.499   3.815
29567WAT      O88942   9.698   6.820   2.953
29567WAT     H188943   9.709   6.836   2.855
29567WAT     H288944   9.669   6.905   2.998
29568WAT      O88945   6.702   4.749   4.599
29568WAT     H188946   6.740   4.719   4.511
29568WAT     H288947   6.776   4.754   4.666
29569WAT      O88948   4.195   8.182   9.843
29569WAT     H188949   4.255   8.145   9.914
29569WAT     H288950   4.247   8.246   9.786
29570WAT      O88951   5.694   3.545   4.849
29570WAT     H188952   5.640   3.587   4.922
29570WAT     H288953   5.791   3.553   4.871
29571WAT      O88954   4.084   0.593   0.629
29571WAT     H188955   4.176   0.558   0.648
29571WAT     H288956   4.090   0.683   0.585
29572WAT      O88957   3.452   6.078   0.934
29572WAT     H188958   3.434   6.154   0.995
29572WAT     H288959   3.370   6.058   0.880
29573WAT      O88960   9.189   7.318   4.437
29573WAT     H188961   9.252   7.318   4.360
29573WAT     H288962   9.185   7.409   4.478
29574WAT      O88963   2.454   8.911   2.222
29574WAT     H188964   2.474   8.939   2.317
29574WAT     H288965   2.371   8.957   2.191
29575WAT      O88966   1.053   2.642   0.527
29575WAT     H188967   1.153   2.635   0.520
29575WAT     H288968   1.028   2.738   0.537
29576WAT      O88969   6.413   3.452   7.552
29576WAT     H188970   6.399   3.418   7.459
29576WAT     H288971   6.500   3.417   7.587
29577WAT      O88972   5.524   3.685   8.553
29577WAT     H188973   5.515   3.747   8.630
29577WAT     H288974   5.433   3.652   8.526
29578WAT      O88975   3.251   8.712   6.028
29578WAT     H188976   3.184   8.776   5.988
29578WAT     H288977   3.343   8.747   6.013
29579WAT      O88978   6.930   2.799   9.788
29579WAT     H188979   6.836   2.784   9.819
29579WAT     H288980   6.983   2.839   9.862
29580WAT      O88981   0.745   3.570   2.745
29580WAT     H188982   0.688   3.489   2.730
29580WAT     H288983   0.708   3.647   2.694
29581WAT      O88984   0.919   5.536   1.030
29581WAT     H188985   0.962   5.545   0.940
29581WAT     H288986   0.920   5.625   1.076
29582WAT      O88987   0.710   0.406   2.685
29582WAT     H188988   0.756   0.405   2.774
29582WAT     H288989   0.617   0.371   2.694
29583WAT      O88990   9.833   3.885   6.436
29583WAT     H188991   9.739   3.919   6.441
29583WAT     H288992   9.832   3.789   6.409
29584WAT      O88993   3.420   4.491   0.674
29584WAT     H188994   3.352   4.550   0.718
29584WAT     H288995   3.389   4.396   0.678
29585WAT      O88996   8.977   1.032   9.726
29585WAT     H188997   9.015   1.098   9.791
29585WAT     H288998   8.891   0.996   9.763
29586WAT      O88999   8.126   5.270   3.790
29586WAT     H189000   8.080   5.202   3.848
29586WAT     H289001   8.222   5.243   3.779
29587WAT      O89002   5.198   3.814   8.560
29587WAT     H189003   5.139   3.744   8.520
29587WAT     H289004   5.149   3.900   8.566
29588WAT      O89005   1.387   3.053   5.105
29588WAT     H189006   1.431   3.032   5.018
29588WAT     H289007   1.450   3.105   5.163
29589WAT      O89008   8.194   1.653   4.354
29589WAT     H189009   8.246   1.717   4.296
29589WAT     H289010   8.131   1.705   4.411
29590WAT      O89011   3.559   3.270   8.406
29590WAT     H189012   3.460   3.286   8.406
29590WAT     H289013   3.587   3.234   8.316
29591WAT      O89014   6.193   6.542   3.421
29591WAT     H189015   6.280   6.546   3.471
29591WAT     H289016   6.179   6.628   3.372
29592WAT      O89017   2.309   8.116   7.825
29592WAT     H189018   2.375   8.069   7.766
29592WAT     H289019   2.221   8.123   7.777
29593WAT      O89020   4.947   2.436   3.721
29593WAT     H189021   4.880   2.390   3.779
29593WAT     H289022   4.946   2.394   3.630
29594WAT      O89023   5.249   7.950   9.762
29594WAT     H189024   5.337   7.904   9.772
29594WAT     H289025   5.252   8.008   9.680
29595WAT      O89026   0.045   3.873   8.043
29595WAT     H189027   0.113   3.811   8.081
29595WAT     H289028  -0.026   3.891   8.112
29596WAT      O89029   9.611   5.359   0.838
29596WAT     H189030   9.545   5.301   0.790
29596WAT     H289031   9.572   5.390   0.925
29597WAT      O89032   9.147   8.517   5.923
29597WAT     H189033   9.161   8.561   5.834
29597WAT     H289034   9.054   8.536   5.954
29598WAT      O89035   6.669   3.341   9.196
29598WAT     H189036   6.668   3.241   9.198
29598WAT     H289037   6.704   3.376   9.284
29599WAT      O89038   7.680   9.047   9.293
29599WAT     H189039   7.743   9.056   9.370
29599WAT     H289040   7.598   8.998   9.322
29600WAT      O89041   4.915   9.645   4.812
29600WAT     H189042   4.824   9.604   4.815
29600WAT     H289043   4.909   9.742   4.836
29601WAT      O89044   1.989   2.336   0.111
29601WAT     H189045   1.977   2.368   0.205
29601WAT     H289046   1.923   2.263   0.091
29602WAT      O89047   4.173   4.019   4.584
29602WAT     H189048   4.223   4.076   4.649
29602WAT     H289049   4.199   4.045   4.490
29603WAT      O89050   3.589   6.678   8.956
29603WAT     H189051   3.509   6.680   8.898
29603WAT     H289052   3.670   6.656   8.902
29604WAT      O89053   4.073   8.300   4.082
29604WAT     H189054   4.154   8.342   4.042
29604WAT     H289055   4.034   8.362   4.150
29605WAT      O89056   3.034   9.151   7.436
29605WAT     H189057   3.056   9.205   7.518
29605WAT     H289058   2.941   9.116   7.443
29606WAT      O89059   5.600   1.705   9.050
29606WAT     H189060   5.656   1.760   9.113
29606WAT     H289061   5.649   1.693   8.963
29607WAT      O89062   9.722   6.299   3.974
29607WAT     H189063   9.732   6.350   3.888
29607WAT     H289064   9.663   6.350   4.037
29608WAT      O89065   4.526   3.710   2.856
29608WAT     H189066   4.436   3.673   2.836
29608WAT     H289067   4.558   3.673   2.944
29609WAT      O89068   6.691   0.735   2.251
29609WAT     H189069   6.625   0.709   2.180
29609WAT     H289070   6.760   0.663   2.260
29610WAT      O89071   7.699   2.265   7.814
29610WAT     H189072   7.634   2.193   7.788
29610WAT     H289073   7.749   2.295   7.733
29611WAT      O89074   4.147   6.821   4.687
29611WAT     H189075   4.114   6.872   4.767
29611WAT     H289076   4.247   6.815   4.691
29612WAT      O89077   2.500   4.889   5.816
29612WAT     H189078   2.564   4.856   5.886
29612WAT     H289079   2.538   4.970   5.772
29613WAT      O89080   0.150   3.983   1.119
29613WAT     H189081   0.229   4.036   1.088
29613WAT     H289082   0.067   4.038   1.111
29614WAT      O89083   9.239   3.153   1.184
29614WAT     H189084   9.239   3.170   1.086
29614WAT     H289085   9.299   3.075   1.204
29615WAT      O89086   6.581   2.358   9.398
29615WAT     H189087   6.620   2.372   9.307
29615WAT     H289088   6.531   2.272   9.399
29616WAT      O89089   5.383   5.674   0.504
29616WAT     H189090   5.421   5.762   0.475
29616WAT     H289091   5.424   5.600   0.450
29617WAT      O89092   4.056   6.195   9.588
29617WAT     H189093   4.135   6.149   9.627
29617WAT     H289094   4.011   6.249   9.659
29618WAT      O89095   5.334   1.380   3.588
29618WAT     H189096   5.362   1.353   3.495
29618WAT     H289097   5.382   1.323   3.655
29619WAT      O89098   4.803   8.170   9.726
29619WAT     H189099   4.829   8.262   9.697
29619WAT     H289100   4.809   8.164   9.826
29620WAT      O89101   2.489   7.553   8.012
29620WAT     H189102   2.538   7.620   7.956
29620WAT     H289103   2.451   7.481   7.953
29621WAT      O89104   0.121   3.931   1.422
29621WAT     H189105   0.167   4.019   1.422
29621WAT     H289106   0.075   3.918   1.334
29622WAT      O89107   9.175   9.172   6.189
29622WAT     H189108   9.087   9.217   6.179
29622WAT     H289109   9.168   9.098   6.256
29623WAT      O89110   8.096   3.583   5.414
29623WAT     H189111   8.167   3.518   5.441
29623WAT     H289112   8.070   3.639   5.492
29624WAT      O89113   6.741   0.175   8.712
29624WAT     H189114   6.688   0.202   8.632
29624WAT     H289115   6.798   0.251   8.742
29625WAT      O89116   8.987   4.948   0.974
29625WAT     H189117   8.920   4.894   0.922
29625WAT     H289118   9.069   4.961   0.918
29626WAT      O89119   6.915   5.572   0.495
29626WAT     H189120   6.861   5.577   0.410
29626WAT     H289121   6.854   5.579   0.573
29627WAT      O89122   7.821   1.009   4.173
29627WAT     H189123   7.910   1.035   4.211
29627WAT     H289124   7.758   1.087   4.180
29628WAT      O89125   1.628   5.202   2.404
29628WAT     H189126   1.635   5.103   2.414
29628WAT     H289127   1.650   5.246   2.491
29629WAT      O89128   5.367   7.256   6.835
29629WAT     H189129   5.362   7.180   6.770
29629WAT     H289130   5.281   7.307   6.835
29630WAT      O89131   9.175   7.023   0.208
29630WAT     H189132   9.217   6.964   0.277
29630WAT     H289133   9.098   6.975   0.166
29631WAT      O89134   6.156   8.169   6.540
29631WAT     H189135   6.088   8.149   6.611
29631WAT     H289136   6.113   8.223   6.468
29632WAT      O89137   5.122   7.525   7.086
29632WAT     H189138   5.102   7.472   7.003
29632WAT     H289139   5.099   7.470   7.167
29633WAT      O89140   4.724   8.538   3.093
29633WAT     H189141   4.709   8.610   3.161
29633WAT     H289142   4.700   8.449   3.132
29634WAT      O89143   6.841   3.314   4.061
29634WAT     H189144   6.877   3.285   4.150
29634WAT     H289145   6.752   3.270   4.045
29635WAT      O89146   2.165   4.164   8.091
29635WAT     H189147   2.219   4.091   8.049
29635WAT     H289148   2.219   4.208   8.163
29636WAT      O89149   9.356   9.377   7.092
29636WAT     H189150   9.368   9.444   7.018
29636WAT     H289151   9.259   9.357   7.105
29637WAT      O89152   4.000   1.093   9.197
29637WAT     H189153   3.953   1.029   9.136
29637WAT     H289154   4.030   1.173   9.144
29638WAT      O89155   6.877   8.310   4.626
29638WAT     H189156   6.869   8.316   4.527
29638WAT     H289157   6.840   8.223   4.658
29639WAT      O89158   1.514   5.195   6.192
29639WAT     H189159   1.604   5.233   6.212
29639WAT     H289160   1.520   5.136   6.111
29640WAT      O89161   2.174   7.420   4.508
29640WAT     H189162   2.153   7.335   4.459
29640WAT     H289163   2.271   7.423   4.531
29641WAT      O89164   2.155   7.313   3.157
29641WAT     H189165   2.198   7.381   3.096
29641WAT     H289166   2.226   7.264   3.208
29642WAT      O89167   8.694   5.813   8.440
29642WAT     H189168   8.743   5.756   8.375
29642WAT     H289169   8.740   5.902   8.447
29643WAT      O89170   8.705   4.970   9.662
29643WAT     H189171   8.674   5.003   9.572
29643WAT     H289172   8.763   5.040   9.705
29644WAT      O89173   4.089   4.944   8.639
29644WAT     H189174   4.029   4.926   8.717
29644WAT     H289175   4.094   5.043   8.623
29645WAT      O89176   5.005   2.271   1.457
29645WAT     H189177   4.908   2.276   1.436
29645WAT     H289178   5.046   2.191   1.412
29646WAT      O89179   0.347   0.058   9.640
29646WAT     H189180   0.369   0.156   9.639
29646WAT     H289181   0.264   0.044   9.694
29647WAT      O89182   0.521   2.914   1.733
29647WAT     H189183   0.451   2.978   1.764
29647WAT     H289184   0.598   2.964   1.696
29648WAT      O89185   9.082   8.613   9.148
29648WAT     H189186   9.086   8.524   9.102
29648WAT     H289187   8.994   8.622   9.195
29649WAT      O89188   9.440   7.956   4.150
29649WAT     H189189   9.486   7.871   4.127
29649WAT     H289190   9.508   8.027   4.168
29650WAT      O89191   2.602   0.696   5.853
29650WAT     H189192   2.654   0.780   5.835
29650WAT     H289193   2.509   0.707   5.816
29651WAT      O89194   8.152   4.174   2.802
29651WAT     H189195   8.057   4.167   2.772
29651WAT     H289196   8.203   4.094   2.769
29652WAT      O89197   1.868   2.845   8.058
29652WAT     H189198   1.955   2.847   8.108
29652WAT     H289199   1.871   2.911   7.983
29653WAT      O89200   4.442   4.965   4.877
29653WAT     H189201   4.411   5.037   4.816
29653WAT     H289202   4.393   4.880   4.858
29654WAT      O89203   2.464   0.288   1.727
29654WAT     H189204   2.367   0.264   1.723
29654WAT     H289205   2.474   0.388   1.724
29655WAT      O89206   0.186   0.435   8.878
29655WAT     H189207   0.100   0.399   8.842
29655WAT     H289208   0.168   0.487   8.962
29656WAT      O89209   9.710   9.668   3.815
29656WAT     H189210   9.664   9.634   3.897
29656WAT     H289211   9.702   9.768   3.812
29657WAT      O89212   4.039   2.525   4.282
29657WAT     H189213   3.966   2.460   4.264
29657WAT     H289214   4.128   2.483   4.265
29658WAT      O89215   9.833   0.390   8.763
29658WAT     H189216   9.799   0.299   8.740
29658WAT     H289217   9.756   0.454   8.767
29659WAT      O89218   9.856   5.170   4.844
29659WAT     H189219   9.899   5.080   4.847
29659WAT     H289220   9.861   5.206   4.751
29660WAT      O89221   0.255   0.429   4.644
29660WAT     H189222   0.270   0.391   4.735
29660WAT     H289223   0.242   0.528   4.651
29661WAT      O89224   3.515   4.782   4.542
29661WAT     H189225   3.553   4.842   4.613
29661WAT     H289226   3.428   4.819   4.510
29662WAT      O89227   4.449   4.825   1.834
29662WAT     H189228   4.492   4.909   1.801
29662WAT     H289229   4.355   4.845   1.862
29663WAT      O89230   8.710   3.111   0.014
29663WAT     H189231   8.708   3.117  -0.086
29663WAT     H289232   8.639   3.170   0.052
29664WAT      O89233   0.104   5.861   9.833
29664WAT     H189234   0.065   5.814   9.753
29664WAT     H289235   0.176   5.806   9.873
29665WAT      O89236   6.626   5.444   8.994
29665WAT     H189237   6.609   5.389   9.076
29665WAT     H289238   6.584   5.401   8.915
29666WAT      O89239   7.735   7.836   0.656
29666WAT     H189240   7.774   7.779   0.728
29666WAT     H289241   7.712   7.779   0.577
29667WAT      O89242   9.667   9.298   1.824
29667WAT     H189243   9.711   9.218   1.783
29667WAT     H289244   9.718   9.327   1.904
29668WAT      O89245   0.551   5.564   3.602
29668WAT     H189246   0.626   5.625   3.630
29668WAT     H289247   0.472   5.581   3.661
29669WAT      O89248   4.806   1.289   9.554
29669WAT     H189249   4.718   1.246   9.537
29669WAT     H289250   4.792   1.383   9.585
29670WAT      O89251   3.170   6.203   7.937
29670WAT     H189252   3.266   6.215   7.962
29670WAT     H289253   3.112   6.235   8.012
29671WAT      O89254   9.806   4.541   7.350
29671WAT     H189255   9.850   4.456   7.323
29671WAT     H289256   9.761   4.529   7.438
29672WAT      O89257   4.823   9.065   9.142
29672WAT     H189258   4.776   8.998   9.085
29672WAT     H289259   4.913   9.031   9.167
29673WAT      O89260   4.514   5.259   5.366
29673WAT     H189261   4.477   5.350   5.386
29673WAT     H289262   4.493   5.197   5.442
29674WAT      O89263   4.294   9.636   4.789
29674WAT     H189264   4.352   9.715   4.805
29674WAT     H289265   4.324   9.588   4.707
29675WAT      O89266   7.380   2.194   3.711
29675WAT     H189267   7.285   2.214   3.689
29675WAT     H289268   7.429   2.170   3.627
29676WAT      O89269   5.350   2.688   7.829
29676WAT     H189270   5.314   2.614   7.773
29676WAT     H289271   5.450   2.681   7.834
29677WAT      O89272   8.374   7.341   5.014
29677WAT     H189273   8.343   7.435   5.027
29677WAT     H289274   8.344   7.285   5.091
29678WAT      O89275   2.444   9.330   1.081
29678WAT     H189276   2.515   9.293   1.022
29678WAT     H289277   2.472   9.419   1.116
29679WAT      O89278   7.631   0.988   5.548
29679WAT     H189279   7.575   0.908   5.567
29679WAT     H289280   7.676   0.978   5.459
29680WAT      O89281   5.846   1.421   0.529
29680WAT     H189282   5.846   1.325   0.558
29680WAT     H289283   5.884   1.478   0.601
29681WAT      O89284   6.952   7.893   1.214
29681WAT     H189285   7.036   7.880   1.161
29681WAT     H289286   6.899   7.968   1.175
29682WAT      O89287   1.107   5.476   5.099
29682WAT     H189288   1.205   5.465   5.079
29682WAT     H289289   1.075   5.397   5.151
29683WAT      O89290   7.426   2.479   9.124
29683WAT     H189291   7.485   2.425   9.185
29683WAT     H289292   7.357   2.526   9.179
29684WAT      O89293   4.063   4.224   1.499
29684WAT     H189294   4.023   4.197   1.586
29684WAT     H289295   4.071   4.143   1.439
29685WAT      O89296   5.340   3.614   2.382
29685WAT     H189297   5.439   3.596   2.385
29685WAT     H289298   5.318   3.659   2.295
29686WAT      O89299   5.486   4.493   0.420
29686WAT     H189300   5.532   4.582   0.423
29686WAT     H289301   5.400   4.497   0.471
29687WAT      O89302   4.027   9.359   6.134
29687WAT     H189303   4.005   9.278   6.080
29687WAT     H289304   3.943   9.398   6.171
29688WAT      O89305   4.912   3.419   3.874
29688WAT     H189306   4.863   3.500   3.906
29688WAT     H289307   4.867   3.337   3.910
29689WAT      O89308   6.607   1.562   1.379
29689WAT     H189309   6.521   1.601   1.343
29689WAT     H289310   6.684   1.615   1.343
29690WAT      O89311   5.325   2.459   2.668
29690WAT     H189312   5.275   2.505   2.742
29690WAT     H289313   5.353   2.368   2.698
29691WAT      O89314   4.134   2.149   1.310
29691WAT     H189315   4.172   2.213   1.377
29691WAT     H289316   4.074   2.084   1.357
29692WAT      O89317   4.262   8.381   1.410
29692WAT     H189318   4.173   8.390   1.365
29692WAT     H289319   4.335   8.399   1.343
29693WAT      O89320   9.845   2.503   4.599
29693WAT     H189321   9.769   2.448   4.633
29693WAT     H289322   9.831   2.523   4.502
29694WAT      O89323   5.891   4.812   1.658
29694WAT     H189324   5.909   4.867   1.740
29694WAT     H289325   5.902   4.715   1.681
29695WAT      O89326   9.438   4.478   5.780
29695WAT     H189327   9.338   4.485   5.786
29695WAT     H289328   9.476   4.567   5.754
29696WAT      O89329   4.571   1.027   6.225
29696WAT     H189330   4.570   1.107   6.285
29696WAT     H289331   4.477   0.995   6.211
29697WAT      O89332   1.472   1.727   6.201
29697WAT     H189333   1.434   1.665   6.269
29697WAT     H289334   1.554   1.771   6.237
29698WAT      O89335   8.339   9.110   7.027
29698WAT     H189336   8.356   9.205   7.051
29698WAT     H289337   8.332   9.055   7.110
29699WAT      O89338   3.106   3.232   7.035
29699WAT     H189339   3.017   3.277   7.034
29699WAT     H289340   3.111   3.165   6.961
29700WAT      O89341   8.561   5.778   6.370
29700WAT     H189342   8.481   5.723   6.346
29700WAT     H289343   8.629   5.720   6.415
29701WAT      O89344   6.318   0.682   5.809
29701WAT     H189345   6.403   0.714   5.766
29701WAT     H289346   6.265   0.630   5.743
29702WAT      O89347   9.835   7.450   9.338
29702WAT     H189348   9.934   7.462   9.347
29702WAT     H289349   9.806   7.376   9.399
29703WAT      O89350   2.552   4.892   5.377
29703WAT     H189351   2.481   4.926   5.314
29703WAT     H289352   2.548   4.792   5.381
29704WAT      O89353   5.797   9.195   7.608
29704WAT     H189354   5.779   9.290   7.633
29704WAT     H289355   5.720   9.137   7.636
29705WAT      O89356   7.658   8.154   8.370
29705WAT     H189357   7.691   8.213   8.443
29705WAT     H289358   7.735   8.106   8.328
29706WAT      O89359   2.860   8.356   5.660
29706WAT     H189360   2.921   8.278   5.677
29706WAT     H289361   2.772   8.323   5.628
29707WAT      O89362   4.869   9.007   0.308
29707WAT     H189363   4.784   9.046   0.344
29707WAT     H289364   4.928   8.980   0.383
29708WAT      O89365   3.676   0.761   7.863
29708WAT     H189366   3.672   0.753   7.764
29708WAT     H289367   3.708   0.852   7.888
29709WAT      O89368   5.158   8.220   1.699
29709WAT     H189369   5.174   8.121   1.700
29709WAT     H289370   5.151   8.253   1.793
29710WAT      O89371   5.248   4.535   3.004
29710WAT     H189372   5.224   4.597   3.079
29710WAT     H289373   5.252   4.586   2.918
29711WAT      O89374   0.968   1.921   4.755
29711WAT     H189375   0.919   1.990   4.809
29711WAT     H289376   1.017   1.860   4.817
29712WAT      O89377   7.748   7.464   8.467
29712WAT     H189378   7.758   7.556   8.506
29712WAT     H289379   7.836   7.416   8.473
29713WAT      O89380   5.643   5.991   6.787
29713WAT     H189381   5.588   6.065   6.826
29713WAT     H289382   5.697   6.026   6.711
29714WAT      O89383   0.306   2.417   4.283
29714WAT     H189384   0.254   2.382   4.361
29714WAT     H289385   0.275   2.371   4.199
29715WAT      O89386   8.813   1.089   3.965
29715WAT     H189387   8.731   1.132   4.002
29715WAT     H289388   8.862   1.043   4.038
29716WAT      O89389   6.862   4.848   4.821
29716WAT     H189390   6.945   4.793   4.827
29716WAT     H289391   6.809   4.837   4.905
29717WAT      O89392   6.173   8.606   6.136
29717WAT     H189393   6.134   8.624   6.046
29717WAT     H289394   6.262   8.562   6.125
29718WAT      O89395   2.884   9.558   8.896
29718WAT     H189396   2.910   9.526   8.805
29718WAT     H289397   2.929   9.646   8.915
29719WAT      O89398   0.007   1.942   3.347
29719WAT     H189399  -0.076   1.887   3.345
29719WAT     H289400   0.083   1.887   3.383
29720WAT      O89401   3.938   0.379   6.242
29720WAT     H189402   3.843   0.367   6.272
29720WAT     H289403   3.996   0.315   6.291
29721WAT      O89404   2.006   0.269   6.480
29721WAT     H189405   2.088   0.225   6.443
29721WAT     H289406   2.022   0.367   6.488
29722WAT      O89407   8.766   8.730   2.878
29722WAT     H189408   8.673   8.713   2.847
29722WAT     H289409   8.769   8.813   2.934
29723WAT      O89410   1.526   5.004   2.649
29723WAT     H189411   1.575   4.972   2.568
29723WAT     H289412   1.486   5.093   2.630
29724WAT      O89413   8.186   6.976   6.081
29724WAT     H189414   8.232   6.890   6.060
29724WAT     H289415   8.210   7.044   6.012
29725WAT      O89416   5.655   7.342   0.675
29725WAT     H189417   5.625   7.384   0.589
29725WAT     H289418   5.689   7.250   0.657
29726WAT      O89419   2.726   3.564   8.386
29726WAT     H189420   2.708   3.549   8.288
29726WAT     H289421   2.814   3.610   8.396
29727WAT      O89422   4.225   8.532   7.181
29727WAT     H189423   4.160   8.503   7.252
29727WAT     H289424   4.293   8.594   7.221
29728WAT      O89425   8.730   5.493   7.728
29728WAT     H189426   8.651   5.445   7.768
29728WAT     H289427   8.800   5.506   7.799
29729WAT      O89428   7.522   0.905   4.373
29729WAT     H189429   7.621   0.892   4.378
29729WAT     H289430   7.497   0.937   4.281
29730WAT      O89431   0.529   0.868   1.883
29730WAT     H189432   0.460   0.888   1.812
29730WAT     H289433   0.519   0.933   1.958
29731WAT      O89434   4.285   6.089   6.158
29731WAT     H189435   4.284   5.999   6.202
29731WAT     H289436   4.359   6.144   6.197
29732WAT      O89437   3.264   1.142   7.832
29732WAT     H189438   3.194   1.214   7.826
29732WAT     H289439   3.223   1.058   7.866
29733WAT      O89440   4.612   8.807   8.083
29733WAT     H189441   4.710   8.810   8.102
29733WAT     H289442   4.562   8.854   8.156
29734WAT      O89443   8.081   5.711   9.894
29734WAT     H189444   8.016   5.647   9.935
29734WAT     H289445   8.036   5.763   9.821
29735WAT      O89446   4.878   9.170   4.539
29735WAT     H189447   4.922   9.084   4.564
29735WAT     H289448   4.928   9.246   4.581
29736WAT      O89449   7.617   0.569   6.388
29736WAT     H189450   7.549   0.564   6.315
29736WAT     H289451   7.703   0.529   6.356
29737WAT      O89452   1.710   1.360   0.300
29737WAT     H189453   1.739   1.389   0.208
29737WAT     H289454   1.779   1.298   0.338
29738WAT      O89455   4.455   7.866   7.812
29738WAT     H189456   4.406   7.783   7.787
29738WAT     H289457   4.530   7.844   7.873
29739WAT      O89458   1.066   9.141   1.996
29739WAT     H189459   1.033   9.188   1.915
29739WAT     H289460   1.162   9.166   2.011
29740WAT      O89461   9.103   9.697   2.599
29740WAT     H189462   9.057   9.739   2.521
29740WAT     H289463   9.183   9.752   2.624
29741WAT      O89464   1.786   0.521   4.417
29741WAT     H189465   1.715   0.461   4.382
29741WAT     H289466   1.848   0.469   4.476
29742WAT      O89467   8.178   0.005   2.745
29742WAT     H189468   8.144   0.056   2.824
29742WAT     H289469   8.235   0.064   2.688
29743WAT      O89470   3.393   0.822   6.310
29743WAT     H189471   3.328   0.837   6.235
29743WAT     H289472   3.465   0.760   6.280
29744WAT      O89473   6.202   6.821   4.130
29744WAT     H189474   6.286   6.853   4.173
29744WAT     H289475   6.224   6.765   4.050
29745WAT      O89476   4.895   5.167   7.247
29745WAT     H189477   4.907   5.183   7.149
29745WAT     H289478   4.878   5.070   7.263
29746WAT      O89479   6.248   5.393   7.760
29746WAT     H189480   6.240   5.328   7.684
29746WAT     H289481   6.330   5.449   7.747
29747WAT      O89482   0.436   6.699   2.615
29747WAT     H189483   0.379   6.654   2.546
29747WAT     H289484   0.405   6.793   2.627
29748WAT      O89485   7.067   9.301   1.159
29748WAT     H189486   7.137   9.278   1.091
29748WAT     H289487   7.090   9.257   1.246
29749WAT      O89488   1.098   5.268   8.421
29749WAT     H189489   1.166   5.285   8.493
29749WAT     H289490   1.091   5.169   8.405
29750WAT      O89491   9.228   1.747   1.170
29750WAT     H189492   9.282   1.727   1.088
29750WAT     H289493   9.281   1.806   1.231
29751WAT      O89494   0.570   7.628   2.714
29751WAT     H189495   0.605   7.659   2.802
29751WAT     H289496   0.635   7.652   2.642
29752WAT      O89497   5.685   3.047   0.115
29752WAT     H189498   5.650   2.955   0.094
29752WAT     H289499   5.712   3.092   0.030
29753WAT      O89500   2.181   6.659   5.508
29753WAT     H189501   2.217   6.750   5.490
29753WAT     H289502   2.207   6.597   5.433
29754WAT      O89503   0.521   0.958   3.577
29754WAT     H189504   0.444   0.958   3.641
29754WAT     H289505   0.565   1.047   3.577
29755WAT      O89506   7.397   2.574   6.325
29755WAT     H189507   7.479   2.539   6.278
29755WAT     H289508   7.324   2.587   6.259
29756WAT      O89509   3.323   6.022   5.306
29756WAT     H189510   3.398   5.959   5.327
29756WAT     H289511   3.246   6.004   5.366
29757WAT      O89512   5.907   3.776   2.558
29757WAT     H189513   5.953   3.864   2.552
29757WAT     H289514   5.941   3.727   2.638
29758WAT      O89515   5.750   3.480   6.220
29758WAT     H189516   5.713   3.503   6.131
29758WAT     H289517   5.728   3.385   6.242
29759WAT      O89518   6.050   8.781   1.632
29759WAT     H189519   6.046   8.733   1.544
29759WAT     H289520   6.145   8.785   1.664
29760WAT      O89521   1.633   2.780   0.661
29760WAT     H189522   1.621   2.686   0.693
29760WAT     H289523   1.543   2.824   0.652
29761WAT      O89524   3.903   8.581   2.132
29761WAT     H189525   3.908   8.539   2.223
29761WAT     H289526   3.865   8.516   2.067
29762WAT      O89527   2.269   5.894   6.380
29762WAT     H189528   2.355   5.844   6.393
29762WAT     H289529   2.287   5.977   6.327
29763WAT      O89530   0.355   4.059   3.994
29763WAT     H189531   0.282   4.126   4.006
29763WAT     H289532   0.365   4.005   4.077
29764WAT      O89533   6.538   8.899   9.752
29764WAT     H189534   6.483   8.865   9.828
29764WAT     H289535   6.493   8.979   9.712
29765WAT      O89536   6.714   5.633   2.836
29765WAT     H189537   6.701   5.731   2.827
29765WAT     H289538   6.720   5.592   2.745
29766WAT      O89539   1.790   8.870   1.790
29766WAT     H189540   1.864   8.904   1.732
29766WAT     H289541   1.828   8.838   1.876
29767WAT      O89542   8.544   7.843   8.225
29767WAT     H189543   8.504   7.751   8.227
29767WAT     H289544   8.618   7.845   8.157
29768WAT      O89545   8.611   5.064   6.055
29768WAT     H189546   8.631   5.162   6.060
29768WAT     H289547   8.537   5.042   6.119
29769WAT      O89548   1.633   3.354   8.387
29769WAT     H189549   1.672   3.387   8.301
29769WAT     H289550   1.603   3.432   8.442
29770WAT      O89551   3.095   3.882   9.078
29770WAT     H189552   3.073   3.947   9.151
29770WAT     H289553   3.018   3.821   9.063
29771WAT      O89554   5.835   6.970   7.656
29771WAT     H189555   5.756   7.027   7.679
29771WAT     H289556   5.910   7.028   7.626
29772WAT      O89557   7.184   7.379   5.324
29772WAT     H189558   7.244   7.459   5.324
29772WAT     H289559   7.238   7.297   5.343
29773WAT      O89560   3.738   8.838   1.840
29773WAT     H189561   3.824   8.786   1.850
29773WAT     H289562   3.682   8.824   1.922
29774WAT      O89563   9.797   1.730   9.800
29774WAT     H189564   9.801   1.630   9.810
29774WAT     H289565   9.821   1.756   9.707
29775WAT      O89566   9.727   2.192   3.795
29775WAT     H189567   9.794   2.119   3.808
29775WAT     H289568   9.769   2.268   3.745
29776WAT      O89569   0.145   1.056   7.226
29776WAT     H189570   0.126   0.959   7.209
29776WAT     H289571   0.062   1.101   7.260
29777WAT      O89572   9.528   5.272   8.577
29777WAT     H189573   9.500   5.324   8.658
29777WAT     H289574   9.626   5.251   8.584
29778WAT      O89575   3.686   0.523   4.687
29778WAT     H189576   3.661   0.428   4.709
29778WAT     H289577   3.779   0.541   4.717
29779WAT      O89578   8.587   5.794   8.867
29779WAT     H189579   8.513   5.861   8.857
29779WAT     H289580   8.618   5.794   8.962
29780WAT      O89581   8.218   4.459   3.496
29780WAT     H189582   8.253   4.534   3.439
29780WAT     H289583   8.295   4.403   3.527
29781WAT      O89584   1.881   1.740   8.018
29781WAT     H189585   1.811   1.809   8.035
29781WAT     H289586   1.838   1.656   7.984
29782WAT      O89587   6.461   8.066   7.083
29782WAT     H189588   6.465   8.144   7.021
29782WAT     H289589   6.394   8.084   7.155
29783WAT      O89590   1.213   0.538   3.484
29783WAT     H189591   1.138   0.574   3.429
29783WAT     H289592   1.285   0.606   3.491
29784WAT      O89593   9.195   3.719   3.553
29784WAT     H189594   9.283   3.673   3.555
29784WAT     H289595   9.173   3.752   3.645
29785WAT      O89596   4.826   7.031   7.588
29785WAT     H189597   4.840   7.106   7.653
29785WAT     H289598   4.887   6.955   7.611
29786WAT      O89599   8.653   1.234   6.721
29786WAT     H189600   8.752   1.242   6.731
29786WAT     H289601   8.632   1.155   6.663
29787WAT      O89602   9.703   5.416   4.973
29787WAT     H189603   9.613   5.421   4.930
29787WAT     H289604   9.764   5.362   4.915
29788WAT      O89605   4.717   3.729   1.121
29788WAT     H189606   4.776   3.650   1.138
29788WAT     H289607   4.692   3.772   1.207
29789WAT      O89608   5.120   1.016   8.358
29789WAT     H189609   5.056   1.062   8.419
29789WAT     H289610   5.081   0.929   8.328
29790WAT      O89611   6.948   9.108   6.241
29790WAT     H189612   7.024   9.166   6.213
29790WAT     H289613   6.981   9.015   6.256
29791WAT      O89614   2.355   6.482   6.035
29791WAT     H189615   2.407   6.536   6.102
29791WAT     H289616   2.267   6.456   6.075
29792WAT      O89617   9.429   8.589   8.859
29792WAT     H189618   9.408   8.519   8.927
29792WAT     H289619   9.528   8.592   8.844
29793WAT      O89620   3.730   5.208   6.605
29793WAT     H189621   3.774   5.131   6.652
29793WAT     H289622   3.687   5.268   6.672
29794WAT      O89623   5.858   3.048   7.145
29794WAT     H189624   5.796   3.118   7.110
29794WAT     H289625   5.942   3.047   7.090
29795WAT      O89626   7.447   2.561   8.448
29795WAT     H189627   7.454   2.494   8.374
29795WAT     H289628   7.353   2.560   8.483
29796WAT      O89629   4.495   4.472   1.576
29796WAT     H189630   4.397   4.493   1.576
29796WAT     H289631   4.544   4.548   1.620
29797WAT      O89632   6.682   7.625   6.503
29797WAT     H189633   6.585   7.614   6.522
29797WAT     H289634   6.709   7.560   6.432
29798WAT      O89635   5.817   2.566   7.963
29798WAT     H189636   5.916   2.581   7.961
29798WAT     H289637   5.793   2.513   8.044
29799WAT      O89638   8.031   7.665   4.397
29799WAT     H189639   7.950   7.621   4.358
29799WAT     H289640   8.044   7.634   4.491
29800WAT      O89641   8.676   1.989   3.273
29800WAT     H189642   8.580   1.973   3.249
29800WAT     H289643   8.735   1.947   3.204
29801WAT      O89644   3.997   7.712   6.125
29801WAT     H189645   4.066   7.733   6.055
29801WAT     H289646   4.024   7.628   6.174
29802WAT      O89647   7.140   1.320   3.001
29802WAT     H189648   7.094   1.400   3.040
29802WAT     H289649   7.153   1.334   2.903
29803WAT      O89650   0.267   8.807   9.036
29803WAT     H189651   0.246   8.729   9.095
29803WAT     H289652   0.213   8.800   8.952
29804WAT      O89653   2.553   1.873   6.148
29804WAT     H189654   2.539   1.970   6.167
29804WAT     H289655   2.644   1.860   6.109
29805WAT      O89656   7.829   9.772   3.372
29805WAT     H189657   7.864   9.678   3.375
29805WAT     H289658   7.809   9.803   3.465
29806WAT      O89659   1.892   3.278   9.565
29806WAT     H189660   1.963   3.304   9.498
29806WAT     H289661   1.935   3.259   9.653
29807WAT      O89662   3.821   0.917   8.469
29807WAT     H189663   3.725   0.922   8.499
29807WAT     H289664   3.881   0.930   8.547
29808WAT      O89665   0.499   2.420   0.710
29808WAT     H189666   0.515   2.441   0.806
29808WAT     H289667   0.455   2.331   0.702
29809WAT      O89668   9.741   5.632   3.180
29809WAT     H189669   9.791   5.582   3.109
29809WAT     H289670   9.735   5.729   3.154
29810WAT      O89671   4.949   7.757   8.966
29810WAT     H189672   4.925   7.742   9.062
29810WAT     H289673   4.876   7.808   8.921
29811WAT      O89674   3.116   5.765   0.147
29811WAT     H189675   3.160   5.829   0.210
29811WAT     H289676   3.091   5.682   0.196
29812WAT      O89677   8.823   6.817   1.255
29812WAT     H189678   8.845   6.761   1.335
29812WAT     H289679   8.729   6.851   1.263
29813WAT      O89680   9.467   8.140   1.006
29813WAT     H189681   9.437   8.087   1.086
29813WAT     H289682   9.564   8.123   0.989
29814WAT      O89683   5.651   9.776   3.946
29814WAT     H189684   5.662   9.852   3.882
29814WAT     H289685   5.741   9.740   3.971
29815WAT      O89686   3.446   6.461   5.901
29815WAT     H189687   3.514   6.472   5.974
29815WAT     H289688   3.400   6.548   5.885
29816WAT      O89689   4.208   1.412   3.364
29816WAT     H189690   4.218   1.508   3.339
29816WAT     H289691   4.299   1.372   3.381
29817WAT      O89692   6.305   4.352   1.923
29817WAT     H189693   6.314   4.306   2.011
29817WAT     H289694   6.396   4.364   1.883
29818WAT      O89695   4.681   0.332   5.097
29818WAT     H189696   4.681   0.233   5.109
29818WAT     H289697   4.596   0.360   5.051
29819WAT      O89698   4.732   2.703   7.348
29819WAT     H189699   4.755   2.606   7.358
29819WAT     H289700   4.801   2.748   7.291
29820WAT      O89701   1.345   0.918   9.572
29820WAT     H189702   1.284   0.998   9.570
29820WAT     H289703   1.290   0.835   9.573
29821WAT      O89704   3.642   5.515   1.617
29821WAT     H189705   3.719   5.477   1.668
29821WAT     H289706   3.660   5.508   1.519
29822WAT      O89707   0.853   0.340   7.254
29822WAT     H189708   0.764   0.299   7.269
29822WAT     H289709   0.908   0.282   7.194
29823WAT      O89710   4.853   4.232   1.814
29823WAT     H189711   4.831   4.173   1.891
29823WAT     H289712   4.940   4.280   1.832
29824WAT      O89713   6.835   5.912   0.394
29824WAT     H189714   6.863   5.990   0.448
29824WAT     H289715   6.906   5.842   0.396
29825WAT      O89716   2.934   5.780   8.229
29825WAT     H189717   2.895   5.742   8.145
29825WAT     H289718   3.019   5.828   8.207
29826WAT      O89719   2.428   0.117   6.978
29826WAT     H189720   2.481   0.192   6.939
29826WAT     H289721   2.340   0.152   7.011
29827WAT      O89722   1.354   0.572   1.734
29827WAT     H189723   1.413   0.600   1.658
29827WAT     H289724   1.261   0.607   1.719
29828WAT      O89725   7.499   1.138   2.001
29828WAT     H189726   7.558   1.208   1.960
29828WAT     H289727   7.483   1.064   1.936
29829WAT      O89728   7.864   1.374   7.755
29829WAT     H189729   7.889   1.327   7.840
29829WAT     H289730   7.902   1.467   7.756
29830WAT      O89731   6.379   4.035   8.804
29830WAT     H189732   6.357   3.943   8.772
29830WAT     H289733   6.479   4.045   8.810
29831WAT      O89734   5.476   6.918   1.085
29831WAT     H189735   5.427   6.858   1.148
29831WAT     H289736   5.515   6.995   1.136
29832WAT      O89737   7.944   5.655   3.318
29832WAT     H189738   7.873   5.688   3.256
29832WAT     H289739   7.901   5.608   3.396
29833WAT      O89740   6.547   4.717   3.123
29833WAT     H189741   6.595   4.694   3.208
29833WAT     H289742   6.580   4.805   3.089
29834WAT      O89743   1.800   6.435   6.328
29834WAT     H189744   1.803   6.535   6.334
29834WAT     H289745   1.763   6.408   6.239
29835WAT      O89746   3.487   2.689   4.532
29835WAT     H189747   3.438   2.703   4.446
29835WAT     H289748   3.427   2.643   4.597
29836WAT      O89749   7.677   3.146   9.574
29836WAT     H189750   7.693   3.080   9.500
29836WAT     H289751   7.765   3.181   9.607
29837WAT      O89752   6.202   2.417   5.414
29837WAT     H189753   6.193   2.449   5.320
29837WAT     H289754   6.112   2.390   5.449
29838WAT      O89755   8.485   3.448   9.559
29838WAT     H189756   8.386   3.461   9.557
29838WAT     H289757   8.518   3.458   9.652
29839WAT      O89758   3.177   7.040   6.101
29839WAT     H189759   3.244   6.978   6.140
29839WAT     H289760   3.085   7.003   6.113
29840WAT      O89761   9.556   4.504   4.153
29840WAT     H189762   9.539   4.573   4.224
29840WAT     H289763   9.582   4.550   4.068
29841WAT      O89764   5.637   1.779   4.898
29841WAT     H189765   5.589   1.819   4.820
29841WAT     H289766   5.634   1.679   4.890
29842WAT      O89767   5.108   4.562   8.321
29842WAT     H189768   5.163   4.514   8.253
29842WAT     H289769   5.039   4.499   8.358
29843WAT      O89770   4.799   3.223   7.462
29843WAT     H189771   4.788   3.146   7.399
29843WAT     H289772   4.897   3.235   7.481
29844WAT      O89773   6.198   8.331   3.245
29844WAT     H189774   6.168   8.366   3.334
29844WAT     H289775   6.298   8.341   3.238
29845WAT      O89776   9.022   3.154   4.082
29845WAT     H189777   8.971   3.192   4.160
29845WAT     H289778   9.086   3.222   4.047
29846WAT      O89779   2.616   2.145   1.789
29846WAT     H189780   2.636   2.168   1.694
29846WAT     H289781   2.518   2.128   1.799
29847WAT      O89782   8.328   5.284   5.850
29847WAT     H189783   8.301   5.188   5.858
29847WAT     H289784   8.267   5.331   5.786
29848WAT      O89785   3.168   2.353   1.560
29848WAT     H189786   3.237   2.335   1.491
29848WAT     H289787   3.202   2.419   1.627
29849WAT      O89788   1.434   6.001   5.579
29849WAT     H189789   1.447   5.907   5.610
29849WAT     H289790   1.513   6.056   5.606
29850WAT      O89791   1.976   3.810   6.015
29850WAT     H189792   1.881   3.801   6.047
29850WAT     H289793   2.026   3.871   6.076
29851WAT      O89794   8.649   4.015   1.239
29851WAT     H189795   8.679   3.952   1.167
29851WAT     H289796   8.708   4.006   1.319
29852WAT      O89797   4.398   0.581   7.236
29852WAT     H189798   4.453   0.664   7.235
29852WAT     H289799   4.446   0.509   7.286
29853WAT      O89800   4.927   4.935   3.223
29853WAT     H189801   4.873   5.012   3.256
29853WAT     H289802   4.881   4.849   3.247
29854WAT      O89803   2.760   5.970   8.260
29854WAT     H189804   2.666   5.937   8.258
29854WAT     H289805   2.822   5.892   8.256
29855WAT      O89806   9.670   8.329   4.915
29855WAT     H189807   9.767   8.352   4.905
29855WAT     H289808   9.654   8.289   5.005
29856WAT      O89809   6.763   4.286   9.648
29856WAT     H189810   6.860   4.292   9.624
29856WAT     H289811   6.740   4.191   9.670
29857WAT      O89812   4.993   4.261   0.338
29857WAT     H189813   5.032   4.261   0.430
29857WAT     H289814   5.062   4.231   0.273
29858WAT      O89815   8.500   8.671   9.769
29858WAT     H189816   8.502   8.764   9.731
29858WAT     H289817   8.516   8.676   9.868
29859WAT      O89818   0.400   1.100   1.225
29859WAT     H189819   0.464   1.027   1.248
29859WAT     H289820   0.443   1.189   1.242
29860WAT      O89821   5.091   5.020   0.039
29860WAT     H189822   5.048   4.944  -0.009
29860WAT     H289823   5.023   5.066   0.097
29861WAT      O89824   7.192   5.519   2.926
29861WAT     H189825   7.215   5.422   2.937
29861WAT     H289826   7.100   5.535   2.963
29862WAT      O89827   4.993   5.759   3.824
29862WAT     H189828   5.036   5.830   3.880
29862WAT     H289829   4.956   5.688   3.884
29863WAT      O89830   2.266   2.662   2.253
29863WAT     H189831   2.362   2.634   2.248
29863WAT     H289832   2.241   2.711   2.169
29864WAT      O89833   3.793   2.058   1.069
29864WAT     H189834   3.724   2.126   1.094
29864WAT     H289835   3.764   1.968   1.102
29865WAT      O89836   1.683   1.886   8.598
29865WAT     H189837   1.725   1.934   8.675
29865WAT     H289838   1.668   1.950   8.523
29866WAT      O89839   3.768   1.404   9.766
29866WAT     H189840   3.692   1.378   9.706
29866WAT     H289841   3.824   1.473   9.721
29867WAT      O89842   7.864   0.298   7.402
29867WAT     H189843   7.947   0.329   7.357
29867WAT     H289844   7.888   0.241   7.481
29868WAT      O89845   1.572   4.860   1.135
29868WAT     H189846   1.502   4.836   1.068
29868WAT     H289847   1.658   4.877   1.088
29869WAT      O89848   7.130   2.746   4.650
29869WAT     H189849   7.179   2.690   4.717
29869WAT     H289850   7.130   2.699   4.561
29870WAT      O89851   5.611   0.403   3.893
29870WAT     H189852   5.517   0.377   3.910
29870WAT     H289853   5.672   0.331   3.925
29871WAT      O89854   4.283   1.054   5.304
29871WAT     H189855   4.232   1.140   5.298
29871WAT     H289856   4.358   1.055   5.237
29872WAT      O89857   6.495   4.165   5.725
29872WAT     H189858   6.495   4.083   5.782
29872WAT     H289859   6.419   4.224   5.753
29873WAT      O89860   7.848   2.620   0.351
29873WAT     H189861   7.870   2.580   0.439
29873WAT     H289862   7.768   2.680   0.360
29874WAT      O89863   2.171   9.155   8.886
29874WAT     H189864   2.114   9.163   8.968
29874WAT     H289865   2.117   9.118   8.811
29875WAT      O89866   3.681   9.651   6.419
29875WAT     H189867   3.704   9.736   6.371
29875WAT     H289868   3.722   9.573   6.371
29876WAT      O89869   6.027   0.700   5.299
29876WAT     H189870   6.029   0.775   5.365
29876WAT     H289871   5.991   0.617   5.343
29877WAT      O89872   7.881   2.697   2.558
29877WAT     H189873   7.941   2.648   2.494
29877WAT     H289874   7.932   2.772   2.600
29878WAT      O89875   2.382   4.704   1.569
29878WAT     H189876   2.335   4.764   1.504
29878WAT     H289877   2.429   4.759   1.637
29879WAT      O89878   6.411   3.318   9.132
29879WAT     H189879   6.493   3.363   9.167
29879WAT     H289880   6.437   3.251   9.063
29880WAT      O89881   3.820   8.030   9.525
29880WAT     H189882   3.877   8.038   9.606
29880WAT     H289883   3.811   7.933   9.501
29881WAT      O89884   2.238   9.059   8.411
29881WAT     H189885   2.163   9.002   8.443
29881WAT     H289886   2.273   9.113   8.488
29882WAT      O89887   1.054   2.937   7.546
29882WAT     H189888   0.972   2.883   7.531
29882WAT     H289889   1.073   2.941   7.644
29883WAT      O89890   6.938   0.746   4.218
29883WAT     H189891   6.940   0.792   4.128
29883WAT     H289892   6.894   0.657   4.209
29884WAT      O89893   2.520   4.444   7.223
29884WAT     H189894   2.560   4.401   7.303
29884WAT     H289895   2.425   4.414   7.213
29885WAT      O89896   5.433   6.625   3.356
29885WAT     H189897   5.522   6.667   3.372
29885WAT     H289898   5.439   6.561   3.280
29886WAT      O89899   0.741   8.398   6.965
29886WAT     H189900   0.743   8.320   6.902
29886WAT     H289901   0.661   8.392   7.024
29887WAT      O89902   2.179   8.858   2.330
29887WAT     H189903   2.206   8.839   2.236
29887WAT     H289904   2.127   8.943   2.333
29888WAT      O89905   9.043   1.788   2.392
29888WAT     H189906   8.971   1.724   2.416
29888WAT     H289907   9.131   1.752   2.422
29889WAT      O89908   6.391   5.940   2.873
29889WAT     H189909   6.376   5.844   2.850
29889WAT     H289910   6.315   5.995   2.840
29890WAT      O89911   9.773   8.161   7.577
29890WAT     H189912   9.842   8.225   7.545
29890WAT     H289913   9.706   8.144   7.504
29891WAT      O89914   5.437   3.109   0.899
29891WAT     H189915   5.472   3.155   0.980
29891WAT     H289916   5.337   3.105   0.903
29892WAT      O89917   0.922   1.355   8.226
29892WAT     H189918   0.910   1.376   8.324
29892WAT     H289919   0.979   1.274   8.216
29893WAT      O89920   0.261   2.452   3.828
29893WAT     H189921   0.217   2.538   3.801
29893WAT     H289922   0.352   2.472   3.864
29894WAT      O89923   6.795   9.248   4.289
29894WAT     H189924   6.795   9.152   4.318
29894WAT     H289925   6.806   9.307   4.370
29895WAT      O89926   9.397   0.326   3.454
29895WAT     H189927   9.465   0.255   3.474
29895WAT     H289928   9.342   0.297   3.376
29896WAT      O89929   6.815   8.544   9.767
29896WAT     H189930   6.772   8.596   9.840
29896WAT     H289931   6.914   8.542   9.782
29897WAT      O89932   5.218   7.167   7.421
29897WAT     H189933   5.238   7.263   7.400
29897WAT     H289934   5.212   7.115   7.336
29898WAT      O89935   1.110   3.236   6.790
29898WAT     H189936   1.142   3.194   6.706
29898WAT     H289937   1.053   3.171   6.841
29899WAT      O89938   1.554   3.981   9.301
29899WAT     H189939   1.557   4.073   9.262
29899WAT     H289940   1.532   3.987   9.399
29900WAT      O89941   4.663   6.843   0.942
29900WAT     H189942   4.647   6.823   1.038
29900WAT     H289943   4.591   6.903   0.907
29901WAT      O89944   0.008   5.623   4.518
29901WAT     H189945   0.018   5.706   4.464
29901WAT     H289946  -0.064   5.566   4.478
29902WAT      O89947   0.621   4.118   8.318
29902WAT     H189948   0.548   4.123   8.250
29902WAT     H289949   0.584   4.092   8.407
29903WAT      O89950   1.303   6.203   5.801
29903WAT     H189951   1.402   6.188   5.803
29903WAT     H289952   1.259   6.147   5.872
29904WAT      O89953   6.473   9.338   1.960
29904WAT     H189954   6.415   9.414   1.931
29904WAT     H289955   6.515   9.359   2.048
29905WAT      O89956   3.385   0.230   0.609
29905WAT     H189957   3.447   0.213   0.686
29905WAT     H289958   3.308   0.166   0.614
29906WAT      O89959   8.658   9.811   7.044
29906WAT     H189960   8.730   9.759   6.996
29906WAT     H289961   8.641   9.897   6.996
29907WAT      O89962   4.998   8.354   0.622
29907WAT     H189963   4.965   8.260   0.606
29907WAT     H289964   5.003   8.402   0.534
29908WAT      O89965   1.683   9.114   1.760
29908WAT     H189966   1.723   9.022   1.764
29908WAT     H289967   1.635   9.126   1.673
29909WAT      O89968   2.412   4.009   4.464
29909WAT     H189969   2.414   3.920   4.508
29909WAT     H289970   2.322   4.025   4.424
29910WAT      O89971   0.046   7.986   4.069
29910WAT     H189972   0.082   7.894   4.059
29910WAT     H289973   0.122   8.050   4.080
29911WAT      O89974   2.329   5.629   4.272
29911WAT     H189975   2.285   5.679   4.346
29911WAT     H289976   2.324   5.683   4.188
29912WAT      O89977   3.965   1.006   6.460
29912WAT     H189978   4.054   0.966   6.439
29912WAT     H289979   3.908   1.005   6.378
29913WAT      O89980   4.230   7.280   9.231
29913WAT     H189981   4.175   7.362   9.216
29913WAT     H289982   4.192   7.205   9.176
29914WAT      O89983   1.275   1.891   2.746
29914WAT     H189984   1.254   1.797   2.720
29914WAT     H289985   1.374   1.904   2.751
29915WAT      O89986   7.268   7.998   7.413
29915WAT     H189987   7.170   7.986   7.426
29915WAT     H289988   7.307   8.044   7.493
29916WAT      O89989   4.695   5.004   3.965
29916WAT     H189990   4.766   5.067   3.999
29916WAT     H289991   4.611   5.055   3.949
29917WAT      O89992   9.350   9.207   0.438
29917WAT     H189993   9.284   9.258   0.493
29917WAT     H289994   9.352   9.112   0.469
29918WAT      O89995   1.154   5.144   2.097
29918WAT     H189996   1.253   5.139   2.080
29918WAT     H289997   1.115   5.219   2.044
29919WAT      O89998   1.043   8.095   8.851
29919WAT     H189999   1.098   8.013   8.839
29919WAT     H290000   0.950   8.078   8.817
29920WAT      O90001   5.722   6.987   3.263
29920WAT     H190002   5.664   7.064   3.292
29920WAT     H290003   5.817   7.018   3.260
29921WAT      O90004   0.255   6.594   8.726
29921WAT     H190005   0.162   6.625   8.745
29921WAT     H290006   0.257   6.494   8.725
29922WAT      O90007   9.110   6.562   3.659
29922WAT     H190008   9.200   6.541   3.699
29922WAT     H290009   9.045   6.490   3.683
29923WAT      O90010   8.826   0.902   8.080
29923WAT     H190011   8.877   0.836   8.136
29923WAT     H290012   8.748   0.857   8.037
29924WAT      O90013   2.117   4.732   3.293
29924WAT     H190014   2.195   4.672   3.278
29924WAT     H290015   2.118   4.805   3.224
29925WAT      O90016   8.646   3.633   7.307
29925WAT     H190017   8.628   3.551   7.361
29925WAT     H290018   8.578   3.640   7.233
29926WAT      O90019   7.556   8.679   0.427
29926WAT     H190020   7.615   8.598   0.423
29926WAT     H290021   7.497   8.682   0.347
29927WAT      O90022   9.100   4.037   1.322
29927WAT     H190023   9.035   4.073   1.256
29927WAT     H290024   9.060   4.042   1.414
29928WAT      O90025   5.425   1.204   4.085
29928WAT     H190026   5.515   1.161   4.095
29928WAT     H290027   5.434   1.290   4.036
29929WAT      O90028   6.265   1.760   3.181
29929WAT     H190029   6.302   1.788   3.092
29929WAT     H290030   6.340   1.724   3.238
29930WAT      O90031   1.104   1.544   2.493
29930WAT     H190032   1.061   1.455   2.477
29930WAT     H290033   1.195   1.531   2.531
29931WAT      O90034   6.784   9.188   1.620
29931WAT     H190035   6.761   9.208   1.525
29931WAT     H290036   6.701   9.189   1.676
29932WAT      O90037   5.448   8.458   3.330
29932WAT     H190038   5.462   8.393   3.255
29932WAT     H290039   5.537   8.491   3.362
29933WAT      O90040   5.029   8.332   7.710
29933WAT     H190041   4.962   8.401   7.736
29933WAT     H290042   4.996   8.242   7.736
29934WAT      O90043   3.106   9.319   7.661
29934WAT     H190044   3.068   9.404   7.623
29934WAT     H290045   3.196   9.337   7.700
29935WAT      O90046   0.593   9.003   9.874
29935WAT     H190047   0.523   9.071   9.853
29935WAT     H290048   0.673   9.016   9.815
29936WAT      O90049   2.590   1.163   5.741
29936WAT     H190050   2.516   1.230   5.750
29936WAT     H290051   2.595   1.108   5.825
29937WAT      O90052   0.361   8.632   3.860
29937WAT     H190053   0.340   8.729   3.868
29937WAT     H290054   0.457   8.621   3.831
29938WAT      O90055   5.586   3.407   9.598
29938WAT     H190056   5.631   3.442   9.516
29938WAT     H290057   5.636   3.439   9.679
29939WAT      O90058   2.467   0.180   8.387
29939WAT     H190059   2.441   0.139   8.474
29939WAT     H290060   2.475   0.109   8.317
29940WAT      O90061   7.689   8.902   2.358
29940WAT     H190062   7.765   8.842   2.334
29940WAT     H290063   7.674   8.899   2.457
29941WAT      O90064   1.615   5.939   7.621
29941WAT     H190065   1.621   5.847   7.661
29941WAT     H290066   1.570   6.000   7.686
29942WAT      O90067   2.753   5.944   5.337
29942WAT     H190068   2.741   6.006   5.259
29942WAT     H290069   2.666   5.898   5.356
29943WAT      O90070   2.956   1.228   5.039
29943WAT     H190071   2.937   1.133   5.061
29943WAT     H290072   3.043   1.234   4.989
29944WAT      O90073   0.177   4.633   4.190
29944WAT     H190074   0.105   4.568   4.211
29944WAT     H290075   0.181   4.649   4.092
29945WAT      O90076   9.364   6.072   7.472
29945WAT     H190077   9.416   6.147   7.432
29945WAT     H290078   9.382   5.988   7.421
29946WAT      O90079   0.529   0.839   6.270
29946WAT     H190080   0.557   0.815   6.362
29946WAT     H290081   0.512   0.938   6.264
29947WAT      O90082   6.114   6.753   5.297
29947WAT     H190083   6.085   6.671   5.248
29947WAT     H290084   6.212   6.750   5.313
29948WAT      O90085   6.535   3.721   9.578
29948WAT     H190086   6.455   3.774   9.551
29948WAT     H290087   6.602   3.722   9.503
29949WAT      O90088   2.185   6.614   0.063
29949WAT     H190089   2.186   6.711   0.085
29949WAT     H290090   2.260   6.568   0.113
29950WAT      O90091   6.359   1.946   4.815
29950WAT     H190092   6.411   1.992   4.887
29950WAT     H290093   6.287   1.890   4.856
29951WAT      O90094   8.372   9.422   3.286
29951WAT     H190095   8.455   9.401   3.235
29951WAT     H290096   8.350   9.519   3.276
29952WAT      O90097   6.867   9.152   9.694
29952WAT     H190098   6.803   9.229   9.692
29952WAT     H290099   6.819   9.069   9.722
29953WAT      O90100   0.372   5.680   6.343
29953WAT     H190101   0.425   5.627   6.276
29953WAT     H290102   0.274   5.664   6.328
29954WAT      O90103   0.508   0.209   0.940
29954WAT     H190104   0.599   0.227   0.977
29954WAT     H290105   0.517   0.153   0.857
29955WAT      O90106   1.141   3.616   0.205
29955WAT     H190107   1.082   3.562   0.266
29955WAT     H290108   1.149   3.569   0.117
29956WAT      O90109   6.235   7.572   5.934
29956WAT     H190110   6.235   7.670   5.916
29956WAT     H290111   6.244   7.522   5.848
29957WAT      O90112   9.424   8.323   5.469
29957WAT     H190113   9.399   8.238   5.515
29957WAT     H290114   9.520   8.344   5.487
29958WAT      O90115   5.497   9.253   5.103
29958WAT     H190116   5.445   9.168   5.096
29958WAT     H290117   5.479   9.310   5.023
29959WAT      O90118   8.068   5.290   1.390
29959WAT     H190119   8.110   5.272   1.301
29959WAT     H290120   8.015   5.210   1.418
29960WAT      O90121   5.189   4.199   3.824
29960WAT     H190122   5.247   4.122   3.850
29960WAT     H290123   5.172   4.257   3.904
29961WAT      O90124   1.349   5.048   6.348
29961WAT     H190125   1.420   5.110   6.315
29961WAT     H290126   1.275   5.102   6.389
29962WAT      O90127   2.080   3.492   0.038
29962WAT     H190128   2.019   3.421   0.003
29962WAT     H290129   2.168   3.486  -0.009
29963WAT      O90130   1.014   3.534   8.987
29963WAT     H190131   0.921   3.500   8.996
29963WAT     H290132   1.020   3.627   9.022
29964WAT      O90133   3.541   8.278   7.938
29964WAT     H190134   3.529   8.288   7.839
29964WAT     H290135   3.466   8.223   7.975
29965WAT      O90136   8.198   9.366   7.887
29965WAT     H190137   8.286   9.335   7.850
29965WAT     H290138   8.214   9.437   7.956
29966WAT      O90139   7.298   6.582   9.506
29966WAT     H190140   7.250   6.639   9.573
29966WAT     H290141   7.387   6.554   9.542
29967WAT      O90142   8.305   3.555   8.168
29967WAT     H190143   8.290   3.631   8.105
29967WAT     H290144   8.301   3.588   8.262
29968WAT      O90145   6.810   0.489   0.949
29968WAT     H190146   6.861   0.415   0.993
29968WAT     H290147   6.874   0.560   0.919
29969WAT      O90148   8.354   8.832   3.155
29969WAT     H190149   8.409   8.910   3.124
29969WAT     H290150   8.410   8.750   3.157
29970WAT      O90151   2.301   5.253   6.126
29970WAT     H190152   2.265   5.345   6.140
29970WAT     H290153   2.236   5.200   6.071
29971WAT      O90154   4.210   2.921   3.335
29971WAT     H190155   4.283   2.874   3.283
29971WAT     H290156   4.248   3.002   3.378
29972WAT      O90157   0.324   6.678   8.149
29972WAT     H190158   0.247   6.742   8.144
29972WAT     H290159   0.396   6.707   8.086
29973WAT      O90160   5.481   4.691   1.445
29973WAT     H190161   5.562   4.746   1.467
29973WAT     H290162   5.507   4.595   1.439
29974WAT      O90163   7.263   8.283   5.768
29974WAT     H190164   7.244   8.202   5.824
29974WAT     H290165   7.176   8.321   5.735
29975WAT      O90166   6.167   1.985   6.327
29975WAT     H190167   6.242   2.027   6.276
29975WAT     H290168   6.087   2.045   6.323
29976WAT      O90169   4.895   4.812   1.910
29976WAT     H190170   4.882   4.798   1.812
29976WAT     H290171   4.836   4.750   1.961
29977WAT      O90172   9.232   0.996   7.318
29977WAT     H190173   9.169   1.039   7.384
29977WAT     H290174   9.180   0.937   7.256
29978WAT      O90175   0.599   3.687   1.811
29978WAT     H190176   0.517   3.648   1.768
29978WAT     H290177   0.667   3.616   1.823
29979WAT      O90178   0.305   9.592   3.025
29979WAT     H190179   0.291   9.575   3.122
29979WAT     H290180   0.218   9.616   2.982
29980WAT      O90181   2.472   0.719   6.330
29980WAT     H190182   2.549   0.655   6.335
29980WAT     H290183   2.485   0.791   6.397
29981WAT      O90184   2.731   7.840   7.499
29981WAT     H190185   2.654   7.830   7.436
29981WAT     H290186   2.766   7.749   7.522
29982WAT      O90187   0.835   9.465   9.587
29982WAT     H190188   0.790   9.469   9.497
29982WAT     H290189   0.782   9.407   9.648
29983WAT      O90190   4.628   4.480   8.191
29983WAT     H190191   4.604   4.388   8.219
29983WAT     H290192   4.647   4.536   8.272
29984WAT      O90193   2.664   6.961   7.455
29984WAT     H190194   2.682   7.059   7.463
29984WAT     H290195   2.567   6.947   7.433
29985WAT      O90196   6.061   0.304   7.125
29985WAT     H190197   6.137   0.279   7.065
29985WAT     H290198   6.071   0.260   7.214
29986WAT      O90199   5.289   5.540   7.275
29986WAT     H190200   5.338   5.454   7.292
29986WAT     H290201   5.243   5.570   7.358
29987WAT      O90202   5.652   8.426   7.250
29987WAT     H190203   5.638   8.368   7.169
29987WAT     H290204   5.666   8.521   7.221
29988WAT      O90205   0.811   7.695   3.738
29988WAT     H190206   0.879   7.715   3.668
29988WAT     H290207   0.752   7.620   3.706
29989WAT      O90208   6.718   0.854   1.886
29989WAT     H190209   6.806   0.815   1.856
29989WAT     H290210   6.666   0.785   1.936
29990WAT      O90211   7.336   5.485   8.421
29990WAT     H190212   7.250   5.477   8.371
29990WAT     H290213   7.400   5.415   8.388
29991WAT      O90214   6.821   0.541   3.563
29991WAT     H190215   6.766   0.526   3.482
29991WAT     H290216   6.763   0.570   3.639
29992WAT      O90217   5.523   4.089   8.263
29992WAT     H190218   5.474   4.128   8.185
29992WAT     H290219   5.585   4.018   8.231
29993WAT      O90220   0.357   1.139   0.250
29993WAT     H190221   0.407   1.141   0.336
29993WAT     H290222   0.337   1.044   0.226
29994WAT      O90223   1.352   6.269   0.347
29994WAT     H190224   1.287   6.228   0.411
29994WAT     H290225   1.382   6.201   0.281
29995WAT      O90226   5.936   8.000   9.574
29995WAT     H190227   5.876   8.080   9.565
29995WAT     H290228   5.944   7.955   9.485
29996WAT      O90229   6.261   4.825   8.742
29996WAT     H190230   6.222   4.807   8.651
29996WAT     H290231   6.237   4.751   8.804
29997WAT      O90232   2.028   1.620   8.249
29997WAT     H190233   1.967   1.543   8.267
29997WAT     H290234   1.994   1.672   8.170
29998WAT      O90235   6.977   5.833   2.455
29998WAT     H190236   6.904   5.769   2.482
29998WAT     H290237   7.046   5.837   2.528
29999WAT      O90238   4.748   6.504   4.422
29999WAT     H190239   4.772   6.525   4.327
29999WAT     H290240   4.801   6.563   4.483
30000WAT      O90241   6.331   2.762   8.192
30000WAT     H190242   6.337   2.683   8.254
30000WAT     H290243   6.408   2.761   8.129
30001WAT      O90244   7.905   7.527   3.133
30001WAT     H190245   7.826   7.553   3.077
30001WAT     H290246   7.895   7.432   3.163
30002WAT      O90247   8.039   0.499   3.355
30002WAT     H190248   8.001   0.506   3.263
30002WAT     H290249   7.974   0.452   3.415
30003WAT      O90250   5.159   2.013   2.293
30003WAT     H190251   5.080   1.960   2.262
30003WAT     H290252   5.212   2.044   2.214
30004WAT      O90253   0.580   0.529   6.417
30004WAT     H190254   0.570   0.621   6.455
30004WAT     H290255   0.491   0.495   6.387
30005WAT      O90256   3.615   6.093   0.713
30005WAT     H190257   3.709   6.094   0.747
30005WAT     H290258   3.555   6.057   0.784
30006WAT      O90259   5.285   0.065   8.734
30006WAT     H190260   5.263   0.079   8.637
30006WAT     H290261   5.201   0.063   8.788
30007WAT      O90262   5.272   2.384   9.885
30007WAT     H190263   5.335   2.348   9.954
30007WAT     H290264   5.324   2.429   9.813
30008WAT      O90265   1.265   3.131   3.539
30008WAT     H190266   1.314   3.078   3.609
30008WAT     H290267   1.191   3.183   3.583
30009WAT      O90268   8.820   3.739   1.605
30009WAT     H190269   8.823   3.642   1.581
30009WAT     H290270   8.732   3.761   1.645
30010WAT      O90271   8.370   8.727   0.875
30010WAT     H190272   8.448   8.790   0.879
30010WAT     H290273   8.302   8.755   0.943
30011WAT      O90274   3.353   3.348   3.683
30011WAT     H190275   3.285   3.275   3.682
30011WAT     H290276   3.333   3.411   3.757
30012WAT      O90277   3.534   2.655   2.517
30012WAT     H190278   3.482   2.703   2.588
30012WAT     H290279   3.523   2.702   2.430
30013WAT      O90280   9.645   8.291   0.258
30013WAT     H190281   9.649   8.276   0.357
30013WAT     H290282   9.710   8.231   0.212
30014WAT      O90283   6.077   6.192   7.339
30014WAT     H190284   6.089   6.094   7.323
30014WAT     H290285   5.984   6.209   7.373
30015WAT      O90286   7.576   2.672   1.263
30015WAT     H190287   7.516   2.710   1.194
30015WAT     H290288   7.522   2.642   1.342
30016WAT      O90289   9.033   1.883   0.185
30016WAT     H190290   9.070   1.817   0.251
30016WAT     H290291   9.040   1.845   0.093
30017WAT      O90292   7.907   4.150   2.719
30017WAT     H190293   7.847   4.120   2.793
30017WAT     H290294   7.865   4.129   2.631
30018WAT      O90295   5.673   5.218   9.072
30018WAT     H190296   5.641   5.292   9.131
30018WAT     H290297   5.618   5.214   8.990
30019WAT      O90298   1.200   1.493   3.652
30019WAT     H190299   1.293   1.487   3.613
30019WAT     H290300   1.184   1.414   3.711
30020WAT      O90301   5.991   7.736   2.639
30020WAT     H190302   5.901   7.694   2.644
30020WAT     H290303   6.019   7.766   2.731
30021WAT      O90304   5.057   7.145   5.963
30021WAT     H190305   5.122   7.085   5.917
30021WAT     H290306   5.103   7.229   5.992
30022WAT      O90307   4.956   2.431   4.282
30022WAT     H190308   4.959   2.531   4.271
30022WAT     H290309   4.861   2.400   4.287
30023WAT      O90310   8.178   7.004   3.873
30023WAT     H190311   8.208   7.061   3.796
30023WAT     H290312   8.150   6.915   3.839
30024WAT      O90313   1.926   5.510   6.839
30024WAT     H190314   1.834   5.485   6.871
30024WAT     H290315   1.983   5.533   6.918
30025WAT      O90316   5.077   1.236   0.905
30025WAT     H190317   4.983   1.259   0.928
30025WAT     H290318   5.124   1.317   0.869
30026WAT      O90319   9.461   8.075   8.939
30026WAT     H190320   9.500   8.004   8.881
30026WAT     H290321   9.534   8.120   8.991
30027WAT      O90322   6.310   4.811   3.834
30027WAT     H190323   6.366   4.735   3.804
30027WAT     H290324   6.223   4.810   3.783
30028WAT      O90325   2.536   9.447   4.300
30028WAT     H190326   2.467   9.425   4.369
30028WAT     H290327   2.627   9.428   4.337
30029WAT      O90328   3.819   4.316   3.299
30029WAT     H190329   3.841   4.303   3.396
30029WAT     H290330   3.844   4.409   3.272
30030WAT      O90331   6.821   8.344   1.959
30030WAT     H190332   6.848   8.439   1.945
30030WAT     H290333   6.774   8.310   1.877
30031WAT      O90334   7.622   1.626   1.920
30031WAT     H190335   7.536   1.665   1.888
30031WAT     H290336   7.693   1.697   1.920
30032WAT      O90337   8.997   7.325   1.528
30032WAT     H190338   9.029   7.365   1.442
30032WAT     H290339   8.981   7.227   1.514
30033WAT      O90340   2.172   5.644   3.875
30033WAT     H190341   2.252   5.662   3.933
30033WAT     H290342   2.154   5.546   3.871
30034WAT      O90343   3.786   9.771   1.631
30034WAT     H190344   3.805   9.722   1.716
30034WAT     H290345   3.864   9.762   1.570
30035WAT      O90346   4.146   0.599   8.968
30035WAT     H190347   4.134   0.556   9.058
30035WAT     H290348   4.057   0.613   8.925
30036WAT      O90349   7.621   4.715   2.248
30036WAT     H190350   7.562   4.698   2.326
30036WAT     H290351   7.696   4.776   2.274
30037WAT      O90352   3.700   2.353   0.163
30037WAT     H190353   3.679   2.279   0.228
30037WAT     H290354   3.710   2.314   0.071
30038WAT      O90355   0.315   2.567   0.964
30038WAT     H190356   0.379   2.620   1.020
30038WAT     H290357   0.251   2.630   0.919
30039WAT      O90358   8.709   3.312   1.895
30039WAT     H190359   8.616   3.313   1.858
30039WAT     H290360   8.723   3.391   1.954
30040WAT      O90361   2.847   2.856   5.963
30040WAT     H190362   2.910   2.920   6.007
30040WAT     H290363   2.899   2.780   5.923
30041WAT      O90364   2.661   3.898   3.654
30041WAT     H190365   2.681   3.983   3.606
30041WAT     H290366   2.585   3.850   3.609
30042WAT      O90367   3.170   7.343   2.185
30042WAT     H190368   3.102   7.276   2.212
30042WAT     H290369   3.262   7.307   2.203
30043WAT      O90370   3.338   6.570   9.272
30043WAT     H190371   3.349   6.482   9.227
30043WAT     H290372   3.428   6.610   9.291
30044WAT      O90373   7.047   3.507   2.211
30044WAT     H190374   7.082   3.423   2.252
30044WAT     H290375   7.114   3.544   2.146
30045WAT      O90376   8.261   2.283   5.022
30045WAT     H190377   8.229   2.373   4.993
30045WAT     H290378   8.353   2.267   4.986
30046WAT      O90379   9.586   6.840   6.029
30046WAT     H190380   9.543   6.804   5.946
30046WAT     H290381   9.656   6.907   6.004
30047WAT      O90382   4.589   7.672   8.835
30047WAT     H190383   4.500   7.641   8.871
30047WAT     H290384   4.579   7.698   8.739
30048WAT      O90385   4.694   3.321   8.423
30048WAT     H190386   4.711   3.373   8.339
30048WAT     H290387   4.680   3.385   8.499
30049WAT      O90388   1.138   9.053   8.853
30049WAT     H190389   1.123   8.993   8.931
30049WAT     H290390   1.134   9.148   8.883
30050WAT      O90391   1.311   2.599   8.314
30050WAT     H190392   1.277   2.631   8.226
30050WAT     H290393   1.411   2.601   8.313
30051WAT      O90394   2.614   8.893   6.493
30051WAT     H190395   2.556   8.851   6.563
30051WAT     H290396   2.710   8.878   6.516
30052WAT      O90397   1.915   7.462   0.089
30052WAT     H190398   1.961   7.481   0.002
30052WAT     H290399   1.982   7.438   0.158
30053WAT      O90400   5.506   6.508   7.172
30053WAT     H190401   5.417   6.510   7.127
30053WAT     H290402   5.520   6.593   7.223
30054WAT      O90403   6.985   3.755   1.303
30054WAT     H190404   6.925   3.822   1.347
30054WAT     H290405   6.955   3.741   1.208
30055WAT      O90406   7.069   5.764   0.391
30055WAT     H190407   7.016   5.701   0.448
30055WAT     H290408   7.166   5.753   0.410
30056WAT      O90409   4.940   8.464   4.621
30056WAT     H190410   4.975   8.497   4.709
30056WAT     H290411   4.993   8.384   4.592
30057WAT      O90412   2.600   4.768   0.141
30057WAT     H190413   2.563   4.773   0.234
30057WAT     H290414   2.598   4.859   0.099
30058WAT      O90415   7.678   9.714   2.730
30058WAT     H190416   7.670   9.757   2.820
30058WAT     H290417   7.754   9.649   2.730
30059WAT      O90418   7.817   4.952   4.698
30059WAT     H190419   7.791   4.882   4.764
30059WAT     H290420   7.904   4.993   4.725
30060WAT      O90421   0.380   7.766   6.210
30060WAT     H190422   0.365   7.863   6.190
30060WAT     H290423   0.326   7.740   6.290
30061WAT      O90424   8.932   5.456   5.561
30061WAT     H190425   8.891   5.538   5.521
30061WAT     H290426   8.934   5.383   5.493
30062WAT      O90427   8.327   8.321   5.734
30062WAT     H190428   8.247   8.325   5.794
30062WAT     H290429   8.365   8.413   5.722
30063WAT      O90430   1.080   8.837   8.346
30063WAT     H190431   1.021   8.901   8.395
30063WAT     H290432   1.105   8.761   8.407
30064WAT      O90433   3.507   2.231   1.984
30064WAT     H190434   3.484   2.138   2.011
30064WAT     H290435   3.600   2.252   2.013
30065WAT      O90436   7.917   8.540   4.940
30065WAT     H190437   7.984   8.583   4.879
30065WAT     H290438   7.965   8.485   5.009
30066WAT      O90439   8.874   0.142   3.410
30066WAT     H190440   8.793   0.144   3.351
30066WAT     H290441   8.887   0.232   3.451
30067WAT      O90442   2.803   4.539   5.796
30067WAT     H190443   2.795   4.582   5.706
30067WAT     H290444   2.746   4.456   5.798
30068WAT      O90445   2.562   7.047   7.894
30068WAT     H190446   2.530   6.964   7.847
30068WAT     H290447   2.493   7.076   7.960
30069WAT      O90448   2.333   8.619   5.885
30069WAT     H190449   2.276   8.614   5.966
30069WAT     H290450   2.283   8.583   5.806
30070WAT      O90451   9.856   1.726   4.913
30070WAT     H190452   9.916   1.714   4.833
30070WAT     H290453   9.776   1.778   4.887
30071WAT      O90454   8.809   9.431   6.869
30071WAT     H190455   8.726   9.390   6.907
30071WAT     H290456   8.878   9.359   6.854
30072WAT      O90457   5.833   0.258   4.026
30072WAT     H190458   5.897   0.333   4.008
30072WAT     H290459   5.883   0.172   4.034
30073WAT      O90460   2.143   2.428   6.977
30073WAT     H190461   2.209   2.433   6.902
30073WAT     H290462   2.124   2.332   6.998
30074WAT      O90463   4.593   3.066   3.263
30074WAT     H190464   4.660   3.115   3.319
30074WAT     H290465   4.514   3.126   3.246
30075WAT      O90466   9.338   2.692   3.865
30075WAT     H190467   9.424   2.664   3.823
30075WAT     H290468   9.308   2.622   3.931
30076WAT      O90469   1.399   5.517   2.164
30076WAT     H190470   1.366   5.442   2.220
30076WAT     H290471   1.445   5.481   2.083
30077WAT      O90472   3.424   6.882   8.529
30077WAT     H190473   3.468   6.954   8.582
30077WAT     H290474   3.482   6.856   8.452
30078WAT      O90475   0.491   4.210   6.811
30078WAT     H190476   0.486   4.112   6.792
30078WAT     H290477   0.401   4.243   6.837
30079WAT      O90478   9.781   0.752   3.240
30079WAT     H190479   9.773   0.804   3.155
30079WAT     H290480   9.862   0.694   3.236
30080WAT      O90481   0.596   2.785   8.261
30080WAT     H190482   0.542   2.806   8.179
30080WAT     H290483   0.648   2.702   8.246
30081WAT      O90484   1.546   7.752   6.803
30081WAT     H190485   1.628   7.725   6.753
30081WAT     H290486   1.570   7.769   6.899
30082WAT      O90487   8.141   4.732   9.716
30082WAT     H190488   8.203   4.689   9.650
30082WAT     H290489   8.051   4.744   9.674
30083WAT      O90490   9.855   1.215   7.315
30083WAT     H190491   9.787   1.208   7.388
30083WAT     H290492   9.853   1.308   7.278
30084WAT      O90493   1.463   0.750   8.387
30084WAT     H190494   1.488   0.711   8.298
30084WAT     H290495   1.467   0.679   8.457
30085WAT      O90496   8.256   8.711   0.369
30085WAT     H190497   8.217   8.619   0.377
30085WAT     H290498   8.283   8.727   0.274
30086WAT      O90499   6.827   2.661   0.237
30086WAT     H190500   6.921   2.641   0.263
30086WAT     H290501   6.766   2.646   0.315
30087WAT      O90502   4.241   6.642   1.255
30087WAT     H190503   4.273   6.567   1.197
30087WAT     H290504   4.260   6.729   1.210
30088WAT      O90505   3.391   0.507   7.983
30088WAT     H190506   3.381   0.409   7.967
30088WAT     H290507   3.363   0.557   7.902
30089WAT      O90508   5.620   9.674   4.942
30089WAT     H190509   5.549   9.655   5.010
30089WAT     H290510   5.626   9.772   4.926
30090WAT      O90511   8.814   2.171   6.752
30090WAT     H190512   8.762   2.196   6.834
30090WAT     H290513   8.853   2.080   6.763
30091WAT      O90514   1.379   5.583   3.332
30091WAT     H190515   1.414   5.509   3.275
30091WAT     H290516   1.395   5.561   3.428
30092WAT      O90517   7.112   1.565   2.211
30092WAT     H190518   7.052   1.520   2.145
30092WAT     H290519   7.179   1.622   2.163
30093WAT      O90520   7.322   2.934   5.936
30093WAT     H190521   7.247   2.979   5.985
30093WAT     H290522   7.376   2.879   6.000
30094WAT      O90523   4.311   5.909   7.573
30094WAT     H190524   4.242   5.837   7.582
30094WAT     H290525   4.330   5.949   7.662
30095WAT      O90526   8.718   6.288   0.031
30095WAT     H190527   8.660   6.214   0.065
30095WAT     H290528   8.698   6.305  -0.066
30096WAT      O90529   8.986   0.796   6.206
30096WAT     H190530   9.050   0.765   6.136
30096WAT     H290531   8.935   0.717   6.241
30097WAT      O90532   6.448   3.540   6.082
30097WAT     H190533   6.436   3.516   5.985
30097WAT     H290534   6.377   3.497   6.136
30098WAT      O90535   5.630   6.923   4.727
30098WAT     H190536   5.697   6.976   4.675
30098WAT     H290537   5.613   6.836   4.681
30099WAT      O90538   5.083   6.674   1.616
30099WAT     H190539   5.014   6.612   1.577
30099WAT     H290540   5.099   6.749   1.552
30100WAT      O90541   3.116   1.817   2.164
30100WAT     H190542   3.133   1.863   2.077
30100WAT     H290543   3.203   1.795   2.208
30101WAT      O90544   7.309   9.321   2.967
30101WAT     H190545   7.319   9.222   2.955
30101WAT     H290546   7.396   9.360   2.998
30102WAT      O90547   1.709   8.639   9.515
30102WAT     H190548   1.756   8.566   9.467
30102WAT     H290549   1.621   8.658   9.470
30103WAT      O90550   2.665   5.898   8.695
30103WAT     H190551   2.594   5.834   8.724
30103WAT     H290552   2.705   5.868   8.609
30104WAT      O90553   4.903   3.904   1.490
30104WAT     H190554   4.993   3.923   1.451
30104WAT     H290555   4.849   3.988   1.490
30105WAT      O90556   5.406   2.709   1.414
30105WAT     H190557   5.414   2.806   1.391
30105WAT     H290558   5.316   2.676   1.386
30106WAT      O90559   6.372   2.140   2.190
30106WAT     H190560   6.339   2.157   2.283
30106WAT     H290561   6.348   2.216   2.131
30107WAT      O90562   4.349   4.758   4.711
30107WAT     H190563   4.310   4.667   4.722
30107WAT     H290564   4.441   4.751   4.672
30108WAT      O90565   0.533   4.713   3.339
30108WAT     H190566   0.551   4.683   3.246
30108WAT     H290567   0.615   4.699   3.395
30109WAT      O90568   2.837   4.247   0.017
30109WAT     H190569   2.875   4.167  -0.030
30109WAT     H290570   2.821   4.321  -0.048
30110WAT      O90571   6.449   7.186   6.962
30110WAT     H190572   6.373   7.142   6.913
30110WAT     H290573   6.519   7.213   6.896
30111WAT      O90574   2.148   2.077   6.136
30111WAT     H190575   2.184   2.060   6.228
30111WAT     H290576   2.075   2.145   6.141
30112WAT      O90577   8.267   4.573   1.584
30112WAT     H190578   8.221   4.602   1.500
30112WAT     H290579   8.316   4.651   1.623
30113WAT      O90580   2.396   3.671   2.029
30113WAT     H190581   2.350   3.583   2.022
30113WAT     H290582   2.358   3.734   1.961
30114WAT      O90583   7.289   5.039   0.571
30114WAT     H190584   7.226   5.047   0.494
30114WAT     H290585   7.305   4.942   0.591
30115WAT      O90586   5.072   9.575   9.431
30115WAT     H190587   5.020   9.660   9.435
30115WAT     H290588   5.153   9.588   9.373
30116WAT      O90589   6.710   6.137   0.682
30116WAT     H190590   6.726   6.183   0.769
30116WAT     H290591   6.797   6.105   0.644
30117WAT      O90592   4.727   7.217   8.038
30117WAT     H190593   4.777   7.283   7.982
30117WAT     H290594   4.648   7.262   8.080
30118WAT      O90595   4.423   5.605   9.217
30118WAT     H190596   4.340   5.592   9.272
30118WAT     H290597   4.473   5.684   9.250
30119WAT      O90598   2.790   8.094   2.082
30119WAT     H190599   2.773   8.192   2.087
30119WAT     H290600   2.877   8.072   2.125
30120WAT      O90601   3.139   0.406   0.703
30120WAT     H190602   3.101   0.493   0.733
30120WAT     H290603   3.149   0.345   0.781
30121WAT      O90604   6.422   1.722   2.552
30121WAT     H190605   6.347   1.767   2.505
30121WAT     H290606   6.496   1.787   2.569
30122WAT      O90607   0.533   6.300   6.621
30122WAT     H190608   0.606   6.251   6.573
30122WAT     H290609   0.563   6.324   6.713
30123WAT      O90610   4.550   0.442   9.097
30123WAT     H190611   4.542   0.537   9.128
30123WAT     H290612   4.461   0.410   9.065
30124WAT      O90613   9.211   6.551   7.415
30124WAT     H190614   9.215   6.643   7.378
30124WAT     H290615   9.115   6.526   7.432
30125WAT      O90616   6.498   1.222   7.087
30125WAT     H190617   6.591   1.245   7.118
30125WAT     H290618   6.440   1.205   7.167
30126WAT      O90619   7.551   0.283   1.127
30126WAT     H190620   7.612   0.247   1.055
30126WAT     H290621   7.467   0.229   1.130
30127WAT      O90622   2.591   2.296   7.890
30127WAT     H190623   2.537   2.336   7.964
30127WAT     H290624   2.667   2.357   7.868
30128WAT      O90625   2.844   9.202   0.334
30128WAT     H190626   2.758   9.154   0.320
30128WAT     H290627   2.893   9.162   0.412
30129WAT      O90628   5.720   1.141   3.100
30129WAT     H190629   5.702   1.207   3.027
30129WAT     H290630   5.777   1.184   3.170
30130WAT      O90631   9.386   7.620   9.183
30130WAT     H190632   9.480   7.614   9.148
30130WAT     H290633   9.364   7.538   9.235
30131WAT      O90634   8.672   1.276   5.630
30131WAT     H190635   8.690   1.348   5.563
30131WAT     H290636   8.721   1.297   5.715
30132WAT      O90637   4.707   0.664   2.804
30132WAT     H190638   4.697   0.599   2.878
30132WAT     H290639   4.740   0.617   2.722
30133WAT      O90640   4.299   5.552   7.485
30133WAT     H190641   4.212   5.502   7.484
30133WAT     H290642   4.366   5.503   7.430
30134WAT      O90643   3.586   1.843   1.596
30134WAT     H190644   3.646   1.917   1.565
30134WAT     H290645   3.492   1.863   1.573
30135WAT      O90646   0.850   3.870   0.191
30135WAT     H190647   0.866   3.780   0.233
30135WAT     H290648   0.936   3.922   0.193
30136WAT      O90649   1.391   6.640   0.807
30136WAT     H190650   1.338   6.556   0.821
30136WAT     H290651   1.334   6.719   0.831
30137WAT      O90652   4.487   1.132   1.524
30137WAT     H190653   4.426   1.211   1.530
30137WAT     H290654   4.513   1.102   1.616
30138WAT      O90655   7.328   9.520   7.305
30138WAT     H190656   7.383   9.445   7.267
30138WAT     H290657   7.273   9.560   7.233
30139WAT      O90658   9.523   5.584   5.472
30139WAT     H190659   9.437   5.536   5.489
30139WAT     H290660   9.540   5.587   5.373
30140WAT      O90661   4.436   2.040   6.822
30140WAT     H190662   4.382   2.032   6.738
30140WAT     H290663   4.530   2.010   6.805
30141WAT      O90664   9.223   6.261   3.344
30141WAT     H190665   9.208   6.331   3.275
30141WAT     H290666   9.256   6.177   3.300
30142WAT      O90667   1.433   4.187   0.498
30142WAT     H190668   1.500   4.182   0.572
30142WAT     H290669   1.357   4.246   0.526
30143WAT      O90670   2.635   2.225   2.060
30143WAT     H190671   2.628   2.210   1.961
30143WAT     H290672   2.592   2.149   2.108
30144WAT      O90673   3.531   7.570   7.470
30144WAT     H190674   3.573   7.645   7.521
30144WAT     H290675   3.496   7.501   7.534
30145WAT      O90676   0.102   2.134   0.908
30145WAT     H190677   0.047   2.111   0.988
30145WAT     H290678   0.199   2.120   0.928
30146WAT      O90679   6.954   1.456   6.431
30146WAT     H190680   6.895   1.442   6.352
30146WAT     H290681   7.008   1.373   6.448
30147WAT      O90682   3.808   4.981   5.820
30147WAT     H190683   3.765   4.974   5.909
30147WAT     H290684   3.850   4.894   5.796
30148WAT      O90685   2.191   2.153   3.289
30148WAT     H190686   2.138   2.198   3.217
30148WAT     H290687   2.288   2.172   3.276
30149WAT      O90688   8.174   3.447   7.847
30149WAT     H190689   8.266   3.485   7.856
30149WAT     H290690   8.169   3.358   7.891
30150WAT      O90691   8.766   2.932   3.885
30150WAT     H190692   8.762   2.835   3.909
30150WAT     H290693   8.716   2.986   3.953
30151WAT      O90694   7.078   1.530   6.932
30151WAT     H190695   7.141   1.469   6.979
30151WAT     H290696   7.128   1.609   6.897
30152WAT      O90697   1.894   9.384   0.104
30152WAT     H190698   1.959   9.314   0.073
30152WAT     H290699   1.847   9.422   0.025
30153WAT      O90700   9.388   0.376   0.794
30153WAT     H190701   9.298   0.374   0.752
30153WAT     H290702   9.457   0.401   0.725
30154WAT      O90703   7.662   8.375   9.555
30154WAT     H190704   7.746   8.429   9.563
30154WAT     H290705   7.584   8.437   9.544
30155WAT      O90706   9.136   7.095   1.947
30155WAT     H190707   9.125   7.194   1.940
30155WAT     H290708   9.213   7.074   2.007
30156WAT      O90709   9.180   6.821   5.699
30156WAT     H190710   9.231   6.737   5.681
30156WAT     H290711   9.130   6.813   5.785
30157WAT      O90712   5.813   8.937   6.896
30157WAT     H190713   5.862   8.924   6.981
30157WAT     H290714   5.764   8.853   6.872
30158WAT      O90715   9.139   7.908   4.581
30158WAT     H190716   9.210   7.976   4.562
30158WAT     H290717   9.123   7.904   4.680
30159WAT      O90718   9.095   4.874   9.020
30159WAT     H190719   9.075   4.785   9.062
30159WAT     H290720   9.021   4.899   8.958
30160WAT      O90721   8.157   5.046   3.571
30160WAT     H190722   8.078   5.106   3.562
30160WAT     H290723   8.230   5.078   3.512
30161WAT      O90724   4.401   5.274   9.475
30161WAT     H190725   4.347   5.237   9.399
30161WAT     H290726   4.444   5.359   9.446
30162WAT      O90727   8.216   1.405   7.826
30162WAT     H190728   8.252   1.323   7.782
30162WAT     H290729   8.141   1.380   7.888
30163WAT      O90730   1.796   1.648   6.631
30163WAT     H190731   1.831   1.715   6.565
30163WAT     H290732   1.870   1.618   6.690
30164WAT      O90733   8.648   3.396   8.962
30164WAT     H190734   8.638   3.356   9.053
30164WAT     H290735   8.672   3.324   8.896
30165WAT      O90736   5.710   2.543   2.425
30165WAT     H190737   5.656   2.463   2.450
30165WAT     H290738   5.710   2.608   2.501
30166WAT      O90739   6.181   2.722   0.384
30166WAT     H190740   6.259   2.713   0.322
30166WAT     H290741   6.096   2.722   0.331
30167WAT      O90742   8.426   2.541   4.358
30167WAT     H190743   8.375   2.478   4.300
30167WAT     H290744   8.520   2.509   4.369
30168WAT      O90745   2.448   3.750   4.320
30168WAT     H190746   2.400   3.772   4.405
30168WAT     H290747   2.521   3.817   4.304
30169WAT      O90748   4.048   4.291   2.951
30169WAT     H190749   4.027   4.201   2.990
30169WAT     H290750   4.143   4.314   2.969
30170WAT      O90751   6.364   6.202   8.411
30170WAT     H190752   6.355   6.105   8.434
30170WAT     H290753   6.436   6.213   8.342
30171WAT      O90754   8.877   0.343   7.820
30171WAT     H190755   8.882   0.251   7.858
30171WAT     H290756   8.966   0.368   7.782
30172WAT      O90757   6.128   2.735   4.025
30172WAT     H190758   6.205   2.792   4.052
30172WAT     H290759   6.157   2.639   4.021
30173WAT      O90760   8.975   5.237   6.539
30173WAT     H190761   8.950   5.313   6.479
30173WAT     H290762   9.068   5.250   6.572
30174WAT      O90763   3.548   4.980   6.848
30174WAT     H190764   3.606   4.916   6.797
30174WAT     H290765   3.539   5.065   6.797
30175WAT      O90766   9.455   9.670   5.618
30175WAT     H190767   9.540   9.708   5.654
30175WAT     H290768   9.436   9.582   5.662
30176WAT      O90769   1.505   1.372   6.103
30176WAT     H190770   1.496   1.272   6.113
30176WAT     H290771   1.587   1.392   6.049
30177WAT      O90772   0.222   1.872   0.560
30177WAT     H190773   0.164   1.885   0.641
30177WAT     H290774   0.218   1.954   0.502
30178WAT      O90775   4.742   8.176   6.334
30178WAT     H190776   4.802   8.205   6.260
30178WAT     H290777   4.796   8.150   6.414
30179WAT      O90778   4.070   1.467   3.748
30179WAT     H190779   3.978   1.458   3.786
30179WAT     H290780   4.075   1.548   3.690
30180WAT      O90781   5.836   4.122   2.538
30180WAT     H190782   5.767   4.186   2.504
30180WAT     H290783   5.823   4.107   2.636
30181WAT      O90784   6.526   0.277   2.102
30181WAT     H190785   6.537   0.223   2.019
30181WAT     H290786   6.616   0.303   2.137
30182WAT      O90787   1.102   0.167   3.340
30182WAT     H190788   1.003   0.176   3.345
30182WAT     H290789   1.134   0.107   3.414
30183WAT      O90790   0.893   9.203   9.293
30183WAT     H190791   0.796   9.225   9.283
30183WAT     H290792   0.923   9.150   9.213
30184WAT      O90793   9.125   6.432   1.878
30184WAT     H190794   9.039   6.447   1.927
30184WAT     H290795   9.173   6.354   1.919
30185WAT      O90796   8.421   9.523   4.506
30185WAT     H190797   8.462   9.552   4.592
30185WAT     H290798   8.491   9.483   4.446
30186WAT      O90799   5.887   9.087   0.568
30186WAT     H190800   5.805   9.034   0.547
30186WAT     H290801   5.956   9.071   0.498
30187WAT      O90802   2.618   0.951   4.625
30187WAT     H190803   2.540   0.982   4.571
30187WAT     H290804   2.589   0.881   4.690
30188WAT      O90805   8.452   8.726   7.343
30188WAT     H190806   8.521   8.790   7.374
30188WAT     H290807   8.427   8.745   7.248
30189WAT      O90808   4.835   1.310   0.964
30189WAT     H190809   4.804   1.405   0.965
30189WAT     H290810   4.755   1.250   0.973
30190WAT      O90811   5.396   6.800   5.433
30190WAT     H190812   5.371   6.724   5.374
30190WAT     H290813   5.380   6.775   5.528
30191WAT      O90814   2.753   6.812   7.673
30191WAT     H190815   2.853   6.819   7.663
30191WAT     H290816   2.709   6.879   7.613
30192WAT      O90817   2.358   7.837   0.200
30192WAT     H190818   2.341   7.799   0.291
30192WAT     H290819   2.281   7.896   0.173
30193WAT      O90820   7.170   5.895   2.131
30193WAT     H190821   7.218   5.982   2.119
30193WAT     H290822   7.077   5.913   2.162
30194WAT      O90823   2.348   3.443   4.077
30194WAT     H190824   2.272   3.378   4.090
30194WAT     H290825   2.319   3.516   4.015
30195WAT      O90826   8.757   4.009   2.295
30195WAT     H190827   8.754   4.033   2.199
30195WAT     H290828   8.780   4.089   2.350
30196WAT      O90829   8.227   0.599   2.462
30196WAT     H190830   8.259   0.565   2.374
30196WAT     H290831   8.149   0.544   2.492
30197WAT      O90832   3.992   2.051   9.181
30197WAT     H190833   4.053   2.051   9.260
30197WAT     H290834   4.022   1.983   9.115
30198WAT      O90835   6.189   1.866   2.829
30198WAT     H190836   6.161   1.777   2.792
30198WAT     H290837   6.133   1.888   2.909
30199WAT      O90838   1.339   8.221   4.920
30199WAT     H190839   1.367   8.314   4.942
30199WAT     H290840   1.367   8.160   4.994
30200WAT      O90841   4.661   1.318   5.975
30200WAT     H190842   4.696   1.322   5.882
30200WAT     H290843   4.679   1.404   6.022
30201WAT      O90844   6.741   0.327   7.839
30201WAT     H190845   6.675   0.283   7.777
30201WAT     H290846   6.699   0.342   7.928
30202WAT      O90847   8.245   8.258   1.120
30202WAT     H190848   8.327   8.268   1.064
30202WAT     H290849   8.194   8.344   1.118
30203WAT      O90850   4.390   4.363   3.454
30203WAT     H190851   4.446   4.315   3.386
30203WAT     H290852   4.382   4.307   3.536
30204WAT      O90853   6.639   2.574   5.209
30204WAT     H190854   6.571   2.540   5.274
30204WAT     H290855   6.725   2.592   5.257
30205WAT      O90856   2.920   8.137   1.174
30205WAT     H190857   2.945   8.056   1.227
30205WAT     H290858   2.963   8.133   1.084
30206WAT      O90859   9.737   1.715   3.354
30206WAT     H190860   9.684   1.780   3.299
30206WAT     H290861   9.678   1.676   3.425
30207WAT      O90862   4.495   8.586   2.781
30207WAT     H190863   4.430   8.585   2.857
30207WAT     H290864   4.451   8.623   2.700
30208WAT      O90865   8.931   7.911   9.241
30208WAT     H190866   8.975   7.976   9.180
30208WAT     H290867   8.991   7.891   9.318
30209WAT      O90868   7.150   9.145   6.816
30209WAT     H190869   7.193   9.235   6.807
30209WAT     H290870   7.166   9.109   6.907
30210WAT      O90871   4.919   6.301   5.073
30210WAT     H190872   4.933   6.377   5.010
30210WAT     H290873   5.004   6.283   5.123
30211WAT      O90874   0.520   5.940   4.937
30211WAT     H190875   0.608   5.905   4.969
30211WAT     H290876   0.520   5.943   4.837
30212WAT      O90877   9.830   4.189   3.142
30212WAT     H190878   9.919   4.223   3.110
30212WAT     H290879   9.757   4.242   3.101
30213WAT      O90880   7.644   0.947   6.261
30213WAT     H190881   7.622   0.997   6.178
30213WAT     H290882   7.616   0.852   6.252
30214WAT      O90883   1.916   5.238   9.264
30214WAT     H190884   1.906   5.227   9.165
30214WAT     H290885   1.853   5.177   9.311
30215WAT      O90886   1.731   3.290   3.083
30215WAT     H190887   1.740   3.344   2.999
30215WAT     H290888   1.778   3.203   3.071
30216WAT      O90889   4.760   7.331   5.587
30216WAT     H190890   4.816   7.263   5.540
30216WAT     H290891   4.757   7.310   5.685
30217WAT      O90892   3.353   0.227   9.441
30217WAT     H190893   3.362   0.137   9.400
30217WAT     H290894   3.430   0.242   9.504
30218WAT      O90895   1.151   8.148   2.372
30218WAT     H190896   1.067   8.102   2.343
30218WAT     H290897   1.130   8.243   2.397
30219WAT      O90898   1.959   0.030   6.024
30219WAT     H190899   1.920  -0.054   5.988
30219WAT     H290900   1.902   0.108   5.997
30220WAT      O90901   1.981   0.774   5.745
30220WAT     H190902   2.025   0.813   5.664
30220WAT     H290903   1.915   0.704   5.717
30221WAT      O90904   2.234   7.575   2.328
30221WAT     H190905   2.172   7.581   2.406
30221WAT     H290906   2.189   7.524   2.254
30222WAT      O90907   8.442   9.602   2.507
30222WAT     H190908   8.511   9.552   2.559
30222WAT     H290909   8.464   9.600   2.410
30223WAT      O90910   1.230   3.005   1.234
30223WAT     H190911   1.190   3.096   1.242
30223WAT     H290912   1.233   2.979   1.137
30224WAT      O90913   5.713   9.252   6.560
30224WAT     H190914   5.774   9.332   6.559
30224WAT     H290915   5.693   9.227   6.655
30225WAT      O90916   6.877   4.337   2.738
30225WAT     H190917   6.794   4.385   2.708
30225WAT     H290918   6.933   4.316   2.658
30226WAT      O90919   8.249   5.599   2.505
30226WAT     H190920   8.237   5.582   2.407
30226WAT     H290921   8.300   5.523   2.546
30227WAT      O90922   6.759   2.536   7.845
30227WAT     H190923   6.817   2.459   7.871
30227WAT     H290924   6.705   2.512   7.764
30228WAT      O90925   5.186   9.322   2.278
30228WAT     H190926   5.219   9.242   2.228
30228WAT     H290927   5.256   9.351   2.344
30229WAT      O90928   4.732   1.681   4.124
30229WAT     H190929   4.732   1.711   4.219
30229WAT     H290930   4.783   1.747   4.068
30230WAT      O90931   6.190   1.645   9.432
30230WAT     H190932   6.096   1.665   9.402
30230WAT     H290933   6.187   1.591   9.516
30231WAT      O90934   5.178   6.178   5.869
30231WAT     H190935   5.259   6.120   5.860
30231WAT     H290936   5.207   6.272   5.885
30232WAT      O90937   2.513   8.229   4.638
30232WAT     H190938   2.582   8.301   4.633
30232WAT     H290939   2.558   8.140   4.631
30233WAT      O90940   0.312   6.962   2.629
30233WAT     H190941   0.397   7.015   2.633
30233WAT     H290942   0.235   7.024   2.611
30234WAT      O90943   0.372   2.678   1.844
30234WAT     H190944   0.424   2.754   1.803
30234WAT     H290945   0.381   2.683   1.943
30235WAT      O90946   7.864   3.596   8.205
30235WAT     H190947   7.914   3.625   8.123
30235WAT     H290948   7.873   3.497   8.216
30236WAT      O90949   8.554   1.743   7.344
30236WAT     H190950   8.590   1.696   7.425
30236WAT     H290951   8.544   1.840   7.365
30237WAT      O90952   5.926   8.511   9.245
30237WAT     H190953   5.948   8.454   9.324
30237WAT     H290954   5.995   8.583   9.235
30238WAT      O90955   7.587   8.857   1.685
30238WAT     H190956   7.581   8.951   1.717
30238WAT     H290957   7.683   8.828   1.682
30239WAT      O90958   5.948   4.171   0.190
30239WAT     H190959   6.004   4.136   0.265
30239WAT     H290960   6.000   4.239   0.139
30240WAT      O90961   0.120   9.541   6.563
30240WAT     H190962   0.163   9.625   6.594
30240WAT     H290963   0.175   9.462   6.590
30241WAT      O90964   9.838   4.217   6.063
30241WAT     H190965   9.802   4.296   6.113
30241WAT     H290966   9.804   4.219   5.969
30242WAT      O90967   2.320   1.836   3.825
30242WAT     H190968   2.245   1.799   3.880
30242WAT     H290969   2.284   1.865   3.736
30243WAT      O90970   8.729   8.525   3.644
30243WAT     H190971   8.645   8.578   3.632
30243WAT     H290972   8.779   8.559   3.724
30244WAT      O90973   8.105   4.673   7.054
30244WAT     H190974   8.145   4.597   7.106
30244WAT     H290975   8.009   4.654   7.037
30245WAT      O90976   6.422   4.302   7.372
30245WAT     H190977   6.366   4.372   7.418
30245WAT     H290978   6.513   4.339   7.355
30246WAT      O90979   5.478   2.578   4.632
30246WAT     H190980   5.545   2.563   4.560
30246WAT     H290981   5.489   2.670   4.669
30247WAT      O90982   6.213   8.325   4.450
30247WAT     H190983   6.191   8.357   4.358
30247WAT     H290984   6.232   8.404   4.509
30248WAT      O90985   4.329   7.109   5.825
30248WAT     H190986   4.295   7.170   5.897
30248WAT     H290987   4.258   7.098   5.755
30249WAT      O90988   1.921   9.351   2.641
30249WAT     H190989   1.967   9.349   2.730
30249WAT     H290990   1.931   9.262   2.597
30250WAT      O90991   1.740   5.322   2.662
30250WAT     H190992   1.693   5.298   2.747
30250WAT     H290993   1.839   5.312   2.674
30251WAT      O90994   4.930   0.639   9.154
30251WAT     H190995   4.987   0.673   9.228
30251WAT     H290996   4.920   0.710   9.084
30252WAT      O90997   8.043   7.612   5.867
30252WAT     H190998   8.127   7.593   5.817
30252WAT     H290999   8.005   7.526   5.901
30253WAT      O91000   4.198   1.915   6.525
30253WAT     H191001   4.166   1.844   6.463
30253WAT     H291002   4.136   1.994   6.522
30254WAT      O91003   5.353   2.024   6.566
30254WAT     H191004   5.388   2.050   6.656
30254WAT     H291005   5.321   1.929   6.570
30255WAT      O91006   2.569   1.312   5.334
30255WAT     H191007   2.528   1.225   5.307
30255WAT     H291008   2.623   1.348   5.258
30256WAT      O91009   7.102   8.336   2.249
30256WAT     H191010   7.116   8.341   2.151
30256WAT     H291011   7.146   8.414   2.293
30257WAT      O91012   0.729   4.514   0.487
30257WAT     H191013   0.676   4.450   0.543
30257WAT     H291014   0.815   4.536   0.534
30258WAT      O91015   0.599   8.097   2.412
30258WAT     H191016   0.500   8.087   2.415
30258WAT     H291017   0.624   8.193   2.425
30259WAT      O91018   4.690   8.937   5.915
30259WAT     H191019   4.743   9.020   5.898
30259WAT     H291020   4.603   8.943   5.866
30260WAT      O91021   7.510   3.395   9.040
30260WAT     H191022   7.563   3.414   9.122
30260WAT     H291023   7.512   3.474   8.979
30261WAT      O91024   9.717   5.247   8.919
30261WAT     H191025   9.775   5.166   8.907
30261WAT     H291026   9.773   5.329   8.911
30262WAT      O91027   2.501   2.845   1.853
30262WAT     H191028   2.557   2.853   1.935
30262WAT     H291029   2.451   2.931   1.838
30263WAT      O91030   3.963   1.687   8.604
30263WAT     H191031   4.022   1.679   8.523
30263WAT     H291032   3.969   1.780   8.640
30264WAT      O91033   1.781   2.963   0.259
30264WAT     H191034   1.826   2.875   0.274
30264WAT     H291035   1.773   2.981   0.161
30265WAT      O91036   0.384   9.354   0.218
30265WAT     H191037   0.336   9.373   0.132
30265WAT     H291038   0.373   9.258   0.242
30266WAT      O91039   2.344   1.621   8.210
30266WAT     H191040   2.413   1.567   8.162
30266WAT     H291041   2.264   1.631   8.151
30267WAT      O91042   3.586   2.748   0.294
30267WAT     H191043   3.522   2.709   0.360
30267WAT     H291044   3.585   2.694   0.210
30268WAT      O91045   4.810   5.417   1.142
30268WAT     H191046   4.799   5.328   1.185
30268WAT     H291047   4.740   5.480   1.178
30269WAT      O91048   0.004   1.016   0.396
30269WAT     H191049  -0.091   1.002   0.422
30269WAT     H291050   0.042   0.932   0.358
30270WAT      O91051   3.340   2.476   5.507
30270WAT     H191052   3.256   2.433   5.474
30270WAT     H291053   3.419   2.421   5.480
30271WAT      O91054   4.218   5.435   1.851
30271WAT     H191055   4.307   5.390   1.846
30271WAT     H291056   4.214   5.509   1.784
30272WAT      O91057   4.309   6.057   2.042
30272WAT     H191058   4.277   6.038   1.949
30272WAT     H291059   4.366   6.139   2.041
30273WAT      O91060   8.095   4.525   5.921
30273WAT     H191061   8.140   4.441   5.890
30273WAT     H291062   8.002   4.529   5.884
30274WAT      O91063   0.252   4.745   4.969
30274WAT     H191064   0.340   4.784   4.941
30274WAT     H291065   0.246   4.650   4.938
30275WAT      O91066   8.482   8.273   4.889
30275WAT     H191067   8.465   8.348   4.952
30275WAT     H291068   8.560   8.295   4.830
30276WAT      O91069   1.092   4.187   3.069
30276WAT     H191070   1.186   4.210   3.048
30276WAT     H291071   1.073   4.206   3.166
30277WAT      O91072   4.109   0.566   6.147
30277WAT     H191073   4.048   0.489   6.169
30277WAT     H291074   4.204   0.536   6.156
30278WAT      O91075   0.043   8.745   1.534
30278WAT     H191076   0.004   8.751   1.442
30278WAT     H291077  -0.026   8.773   1.601
30279WAT      O91078   3.591   1.901   8.058
30279WAT     H191079   3.540   1.979   8.096
30279WAT     H291080   3.620   1.923   7.965
30280WAT      O91081   9.352   6.662   6.287
30280WAT     H191082   9.317   6.587   6.343
30280WAT     H291083   9.365   6.743   6.344
30281WAT      O91084   8.523   4.720   2.029
30281WAT     H191085   8.464   4.648   2.065
30281WAT     H291086   8.486   4.810   2.053
30282WAT      O91087   7.572   6.161   8.463
30282WAT     H191088   7.566   6.121   8.372
30282WAT     H291089   7.484   6.204   8.486
30283WAT      O91090   6.101   2.349   7.208
30283WAT     H191091   6.093   2.435   7.156
30283WAT     H291092   6.191   2.310   7.193
30284WAT      O91093   0.025   4.637   0.761
30284WAT     H191094   0.024   4.556   0.701
30284WAT     H291095   0.031   4.607   0.856
30285WAT      O91096   1.887   8.603   2.619
30285WAT     H191097   1.856   8.511   2.643
30285WAT     H291098   1.904   8.656   2.702
30286WAT      O91099   5.876   7.125   2.754
30286WAT     H191100   5.936   7.099   2.679
30286WAT     H291101   5.870   7.225   2.759
30287WAT      O91102   8.989   6.878   0.078
30287WAT     H191103   8.911   6.937   0.059
30287WAT     H291104   9.015   6.829  -0.005
30288WAT      O91105   9.881   6.611   6.602
30288WAT     H191106   9.888   6.664   6.518
30288WAT     H291107   9.788   6.616   6.637
30289WAT      O91108   7.951   7.618   0.509
30289WAT     H191109   7.987   7.660   0.592
30289WAT     H291110   8.027   7.587   0.452
30290WAT      O91111   7.127   3.330   5.386
30290WAT     H191112   7.104   3.427   5.393
30290WAT     H291113   7.088   3.293   5.302
30291WAT      O91114   2.837   0.083   1.517
30291WAT     H191115   2.850   0.100   1.615
30291WAT     H291116   2.742   0.058   1.500
30292WAT      O91117   9.676   7.011   6.898
30292WAT     H191118   9.698   7.085   6.961
30292WAT     H291119   9.759   6.957   6.879
30293WAT      O91120   1.118   7.175   6.864
30293WAT     H191121   1.207   7.151   6.903
30293WAT     H291122   1.128   7.252   6.802
30294WAT      O91123   5.103   1.610   3.907
30294WAT     H191124   5.112   1.574   4.000
30294WAT     H291125   5.194   1.617   3.865
30295WAT      O91126   5.241   3.732   6.288
30295WAT     H191127   5.281   3.658   6.342
30295WAT     H291128   5.279   3.820   6.318
30296WAT      O91129   3.717   8.079   6.821
30296WAT     H191130   3.781   8.124   6.884
30296WAT     H291131   3.753   7.990   6.795
30297WAT      O91132   7.461   6.213   9.397
30297WAT     H191133   7.425   6.251   9.312
30297WAT     H291134   7.386   6.195   9.460
30298WAT      O91135   5.497   1.140   5.320
30298WAT     H191136   5.492   1.040   5.315
30298WAT     H291137   5.590   1.169   5.299
30299WAT      O91138   5.313   8.667   0.636
30299WAT     H191139   5.255   8.604   0.688
30299WAT     H291140   5.304   8.649   0.538
30300WAT      O91141   0.267   5.789   8.244
30300WAT     H191142   0.330   5.714   8.228
30300WAT     H291143   0.302   5.847   8.318
30301WAT      O91144   5.815   4.143   1.603
30301WAT     H191145   5.720   4.135   1.573
30301WAT     H291146   5.825   4.098   1.692
30302WAT      O91147   0.031   8.303   1.452
30302WAT     H191148  -0.026   8.243   1.508
30302WAT     H291149   0.096   8.351   1.511
30303WAT      O91150   8.969   6.822   6.740
30303WAT     H191151   8.900   6.859   6.802
30303WAT     H291152   8.932   6.821   6.647
30304WAT      O91153   1.406   4.832   6.491
30304WAT     H191154   1.392   4.918   6.442
30304WAT     H291155   1.337   4.766   6.463
30305WAT      O91156   3.054   0.365   0.447
30305WAT     H191157   2.992   0.287   0.457
30305WAT     H291158   3.115   0.369   0.526
30306WAT      O91159   9.824   6.915   9.275
30306WAT     H191160   9.882   6.839   9.243
30306WAT     H291161   9.835   6.926   9.373
30307WAT      O91162   0.366   0.860   0.449
30307WAT     H191163   0.286   0.896   0.497
30307WAT     H291164   0.437   0.931   0.447
30308WAT      O91165   9.459   1.219   4.191
30308WAT     H191166   9.489   1.125   4.173
30308WAT     H291167   9.359   1.224   4.190
30309WAT      O91168   9.200   9.839   4.958
30309WAT     H191169   9.161   9.858   5.048
30309WAT     H291170   9.188   9.743   4.935
30310WAT      O91171   6.101   9.048   8.336
30310WAT     H191172   6.051   8.971   8.297
30310WAT     H291173   6.178   9.071   8.277
30311WAT      O91174   8.545   4.713   3.485
30311WAT     H191175   8.598   4.740   3.405
30311WAT     H291176   8.589   4.749   3.567
30312WAT      O91177   9.386   0.278   8.118
30312WAT     H191178   9.405   0.219   8.040
30312WAT     H291179   9.404   0.229   8.203
30313WAT      O91180   4.436   8.755   6.416
30313WAT     H191181   4.466   8.844   6.450
30313WAT     H291182   4.485   8.733   6.332
30314WAT      O91183   0.096   3.886   5.933
30314WAT     H191184   0.054   3.796   5.944
30314WAT     H291185   0.102   3.930   6.023
30315WAT      O91186   3.363   9.396   2.636
30315WAT     H191187   3.269   9.365   2.653
30315WAT     H291188   3.371   9.492   2.662
30316WAT      O91189   3.011   7.315   9.073
30316WAT     H191190   3.014   7.357   9.164
30316WAT     H291191   3.075   7.362   9.013
30317WAT      O91192   0.448   6.409   1.430
30317WAT     H191193   0.464   6.447   1.339
30317WAT     H291194   0.368   6.349   1.428
30318WAT      O91195   1.970   4.184   2.445
30318WAT     H191196   1.908   4.123   2.395
30318WAT     H291197   2.065   4.164   2.418
30319WAT      O91198   2.343   3.696   1.174
30319WAT     H191199   2.266   3.674   1.234
30319WAT     H291200   2.339   3.637   1.094
30320WAT      O91201   0.180   9.268   8.365
30320WAT     H191202   0.278   9.261   8.347
30320WAT     H291203   0.144   9.351   8.325
30321WAT      O91204   7.328   1.790   9.627
30321WAT     H191205   7.386   1.719   9.588
30321WAT     H291206   7.372   1.879   9.617
30322WAT      O91207   5.973   0.044   8.585
30322WAT     H191208   5.964  -0.023   8.511
30322WAT     H291209   6.070   0.065   8.599
30323WAT      O91210   1.951   1.519   7.453
30323WAT     H191211   1.896   1.557   7.378
30323WAT     H291212   2.003   1.592   7.497
30324WAT      O91213   9.331   0.033   0.768
30324WAT     H191214   9.333  -0.067   0.778
30324WAT     H291215   9.361   0.057   0.676
30325WAT      O91216   7.267   9.449   8.692
30325WAT     H191217   7.283   9.527   8.753
30325WAT     H291218   7.312   9.368   8.729
30326WAT      O91219   9.564   4.447   1.172
30326WAT     H191220   9.588   4.432   1.268
30326WAT     H291221   9.577   4.544   1.149
30327WAT      O91222   5.864   4.804   4.189
30327WAT     H191223   5.921   4.744   4.132
30327WAT     H291224   5.880   4.899   4.163
30328WAT      O91225   1.532   4.907   5.983
30328WAT     H191226   1.455   4.870   6.035
30328WAT     H291227   1.616   4.900   6.037
30329WAT      O91228   6.368   4.805   1.381
30329WAT     H191229   6.312   4.730   1.347
30329WAT     H291230   6.328   4.892   1.355
30330WAT      O91231   0.823   4.705   0.911
30330WAT     H191232   0.857   4.791   0.872
30330WAT     H291233   0.724   4.702   0.902
30331WAT      O91234   1.448   3.914   2.123
30331WAT     H191235   1.519   3.984   2.124
30331WAT     H291236   1.489   3.825   2.107
30332WAT      O91237   7.635   3.958   3.778
30332WAT     H191238   7.684   4.030   3.728
30332WAT     H291239   7.616   3.989   3.871
30333WAT      O91240   7.385   2.707   5.503
30333WAT     H191241   7.331   2.693   5.420
30333WAT     H291242   7.376   2.802   5.532
30334WAT      O91243   5.778   8.240   9.441
30334WAT     H191244   5.764   8.217   9.344
30334WAT     H291245   5.865   8.288   9.451
30335WAT      O91246   2.141   9.059   3.414
30335WAT     H191247   2.138   9.150   3.454
30335WAT     H291248   2.111   8.991   3.481
30336WAT      O91249   4.205   3.386   2.447
30336WAT     H191250   4.275   3.439   2.398
30336WAT     H291251   4.216   3.289   2.427
30337WAT      O91252   1.888   4.316   2.672
30337WAT     H191253   1.931   4.406   2.672
30337WAT     H291254   1.910   4.268   2.587
30338WAT      O91255   4.343   3.070   8.676
30338WAT     H191256   4.367   2.981   8.638
30338WAT     H291257   4.384   3.142   8.619
30339WAT      O91258   3.402   6.707   8.760
30339WAT     H191259   3.310   6.671   8.775
30339WAT     H291260   3.402   6.769   8.683
30340WAT      O91261   5.001   1.851   0.889
30340WAT     H191262   4.922   1.843   0.950
30340WAT     H291263   5.082   1.815   0.934
30341WAT      O91264   6.104   4.993   2.633
30341WAT     H191265   6.058   5.055   2.697
30341WAT     H291266   6.175   5.043   2.584
30342WAT      O91267   4.548   2.770   9.586
30342WAT     H191268   4.610   2.724   9.522
30342WAT     H291269   4.599   2.837   9.639
30343WAT      O91270   3.785   3.218   6.363
30343WAT     H191271   3.795   3.244   6.459
30343WAT     H291272   3.741   3.292   6.312
30344WAT      O91273   0.541   5.711   8.021
30344WAT     H191274   0.603   5.760   8.082
30344WAT     H291275   0.483   5.650   8.075
30345WAT      O91276   4.549   7.587   0.223
30345WAT     H191277   4.571   7.669   0.172
30345WAT     H291278   4.599   7.509   0.185
30346WAT      O91279   8.419   1.250   5.365
30346WAT     H191280   8.425   1.158   5.403
30346WAT     H291281   8.499   1.303   5.392
30347WAT      O91282   8.183   4.108   8.389
30347WAT     H191283   8.234   4.101   8.475
30347WAT     H291284   8.090   4.138   8.408
30348WAT      O91285   0.426   4.255   7.929
30348WAT     H191286   0.492   4.254   7.855
30348WAT     H291287   0.335   4.277   7.893
30349WAT      O91288   5.925   6.435   9.053
30349WAT     H191289   5.951   6.340   9.068
30349WAT     H291290   5.954   6.465   8.962
30350WAT      O91291   6.225   5.212   9.258
30350WAT     H191292   6.225   5.227   9.159
30350WAT     H291293   6.181   5.124   9.278
30351WAT      O91294   8.523   6.960   8.203
30351WAT     H191295   8.443   7.017   8.222
30351WAT     H291296   8.514   6.919   8.112
30352WAT      O91297   9.231   6.686   7.038
30352WAT     H191298   9.303   6.616   7.032
30352WAT     H291299   9.244   6.741   7.120
30353WAT      O91300   7.881   6.823   4.049
30353WAT     H191301   7.968   6.798   4.008
30353WAT     H291302   7.849   6.910   4.010
30354WAT      O91303   8.248   1.411   4.901
30354WAT     H191304   8.186   1.467   4.957
30354WAT     H291305   8.307   1.357   4.961
30355WAT      O91306   6.922   4.909   8.000
30355WAT     H191307   6.953   5.000   7.973
30355WAT     H291308   6.959   4.887   8.091
30356WAT      O91309   7.342   4.522   4.460
30356WAT     H191310   7.299   4.611   4.477
30356WAT     H291311   7.300   4.454   4.520
30357WAT      O91312   3.179   7.220   7.295
30357WAT     H191313   3.256   7.284   7.302
30357WAT     H291314   3.108   7.246   7.360
30358WAT      O91315   6.888   8.477   0.455
30358WAT     H191316   6.873   8.576   0.455
30358WAT     H291317   6.933   8.450   0.370
30359WAT      O91318   7.336   9.730   2.273
30359WAT     H191319   7.313   9.650   2.217
30359WAT     H291320   7.434   9.728   2.295
30360WAT      O91321   4.954   8.653   1.980
30360WAT     H191322   4.886   8.583   1.956
30360WAT     H291323   5.045   8.612   1.980
30361WAT      O91324   8.026   6.730   2.461
30361WAT     H191325   8.066   6.646   2.497
30361WAT     H291326   8.035   6.804   2.528
30362WAT      O91327   9.700   9.019   3.246
30362WAT     H191328   9.600   9.027   3.240
30362WAT     H291329   9.735   8.982   3.160
30363WAT      O91330   0.564   1.470   0.299
30363WAT     H191331   0.602   1.421   0.378
30363WAT     H291332   0.465   1.481   0.312
30364WAT      O91333   8.105   6.730   6.913
30364WAT     H191334   8.008   6.731   6.890
30364WAT     H291335   8.121   6.663   6.986
30365WAT      O91336   7.997   7.283   3.967
30365WAT     H191337   8.054   7.205   3.941
30365WAT     H291338   7.991   7.347   3.890
30366WAT      O91339   4.340   6.013   3.706
30366WAT     H191340   4.244   6.041   3.704
30366WAT     H291341   4.373   6.014   3.801
30367WAT      O91342   9.107   6.195   9.329
30367WAT     H191343   9.012   6.164   9.330
30367WAT     H291344   9.133   6.223   9.237
30368WAT      O91345   7.945   9.234   1.459
30368WAT     H191346   7.945   9.180   1.375
30368WAT     H291347   7.883   9.193   1.525
30369WAT      O91348   0.309   8.244   2.918
30369WAT     H191349   0.365   8.163   2.932
30369WAT     H291350   0.291   8.255   2.820
30370WAT      O91351   4.117   0.443   8.649
30370WAT     H191352   4.064   0.446   8.564
30370WAT     H291353   4.158   0.353   8.660
30371WAT      O91354   8.088   1.807   5.442
30371WAT     H191355   8.157   1.825   5.513
30371WAT     H291356   8.060   1.894   5.402
30372WAT      O91357   5.100   6.061   6.218
30372WAT     H191358   5.119   6.061   6.317
30372WAT     H291359   5.169   6.005   6.172
30373WAT      O91360   1.017   1.297   2.414
30373WAT     H191361   0.961   1.251   2.345
30373WAT     H291362   1.112   1.302   2.383
30374WAT      O91363   3.262   1.532   1.958
30374WAT     H191364   3.245   1.498   1.866
30374WAT     H291365   3.280   1.631   1.954
30375WAT      O91366   7.063   9.463   9.155
30375WAT     H191367   6.993   9.418   9.211
30375WAT     H291368   7.041   9.448   9.058
30376WAT      O91369   2.129   1.046   0.676
30376WAT     H191370   2.135   0.960   0.726
30376WAT     H291371   2.211   1.058   0.619
30377WAT      O91372   1.007   8.925   6.734
30377WAT     H191373   1.088   8.872   6.758
30377WAT     H291374   1.024   8.977   6.651
30378WAT      O91375   7.112   3.704   3.603
30378WAT     H191376   7.040   3.773   3.607
30378WAT     H291377   7.200   3.748   3.620
30379WAT      O91378   3.976   0.853   1.982
30379WAT     H191379   3.997   0.931   1.923
30379WAT     H291380   4.060   0.820   2.025
30380WAT      O91381   0.642   1.175   1.443
30380WAT     H191382   0.706   1.105   1.411
30380WAT     H291383   0.602   1.222   1.365
30381WAT      O91384   4.403   7.345   2.825
30381WAT     H191385   4.436   7.390   2.909
30381WAT     H291386   4.313   7.306   2.842
30382WAT      O91387   3.721   6.859   4.268
30382WAT     H191388   3.661   6.924   4.221
30382WAT     H291389   3.816   6.891   4.262
30383WAT      O91390   4.183   8.001   5.997
30383WAT     H191391   4.193   7.913   5.951
30383WAT     H291392   4.249   8.066   5.959
30384WAT      O91393   3.057   0.614   9.610
30384WAT     H191394   3.072   0.571   9.699
30384WAT     H291395   2.972   0.668   9.612
30385WAT      O91396   8.531   0.107   0.880
30385WAT     H191397   8.618   0.156   0.870
30385WAT     H291398   8.465   0.166   0.926
30386WAT      O91399   4.362   6.948   3.216
30386WAT     H191400   4.433   7.019   3.216
30386WAT     H291401   4.379   6.885   3.292
30387WAT      O91402   7.419   0.675   8.004
30387WAT     H191403   7.475   0.593   7.993
30387WAT     H291404   7.344   0.673   7.937
30388WAT      O91405   3.579   7.765   5.693
30388WAT     H191406   3.610   7.759   5.788
30388WAT     H291407   3.635   7.832   5.644
30389WAT      O91408   5.248   1.037   0.097
30389WAT     H191409   5.286   0.973   0.031
30389WAT     H291410   5.160   1.002   0.130
30390WAT      O91411   1.298   6.742   5.457
30390WAT     H191412   1.213   6.773   5.416
30390WAT     H291413   1.334   6.814   5.518
30391WAT      O91414   6.819   5.117   0.391
30391WAT     H191415   6.779   5.026   0.409
30391WAT     H291416   6.785   5.151   0.303
30392WAT      O91417   8.573   3.059   3.241
30392WAT     H191418   8.659   3.073   3.290
30392WAT     H291419   8.591   3.055   3.142
30393WAT      O91420   1.393   3.432   9.622
30393WAT     H191421   1.419   3.409   9.716
30393WAT     H291422   1.295   3.453   9.618
30394WAT      O91423   3.375   8.870   3.949
30394WAT     H191424   3.292   8.913   3.984
30394WAT     H291425   3.351   8.805   3.877
30395WAT      O91426   1.814   7.555   7.550
30395WAT     H191427   1.806   7.570   7.649
30395WAT     H291428   1.724   7.566   7.508
30396WAT      O91429   2.474   3.948   1.644
30396WAT     H191430   2.451   3.919   1.551
30396WAT     H291431   2.473   4.048   1.649
30397WAT      O91432   7.965   7.188   1.036
30397WAT     H191433   7.938   7.185   0.940
30397WAT     H291434   8.054   7.143   1.047
30398WAT      O91435   4.862   5.500   7.508
30398WAT     H191436   4.833   5.432   7.577
30398WAT     H291437   4.830   5.472   7.418
30399WAT      O91438   1.262   1.727   1.206
30399WAT     H191439   1.247   1.807   1.148
30399WAT     H291440   1.354   1.733   1.247
30400WAT      O91441   1.119   4.061   7.385
30400WAT     H191442   1.026   4.025   7.381
30400WAT     H291443   1.147   4.094   7.295
30401WAT      O91444   9.098   8.539   7.954
30401WAT     H191445   9.079   8.570   7.861
30401WAT     H291446   9.115   8.440   7.953
30402WAT      O91447   8.450   8.874   2.310
30402WAT     H191448   8.528   8.818   2.335
30402WAT     H291449   8.471   8.970   2.328
30403WAT      O91450   9.653   5.937   0.747
30403WAT     H191451   9.731   5.881   0.771
30403WAT     H291452   9.671   6.032   0.772
30404WAT      O91453   6.113   6.705   1.230
30404WAT     H191454   6.143   6.639   1.298
30404WAT     H291455   6.046   6.662   1.169
30405WAT      O91456   2.210   0.983   3.171
30405WAT     H191457   2.239   0.963   3.078
30405WAT     H291458   2.265   1.057   3.208
30406WAT      O91459   5.671   3.906   8.087
30406WAT     H191460   5.643   3.840   8.017
30406WAT     H291461   5.747   3.961   8.052
30407WAT      O91462   7.984   8.572   2.051
30407WAT     H191463   8.058   8.551   2.115
30407WAT     H291464   8.014   8.553   1.958
30408WAT      O91465   1.383   3.493   4.490
30408WAT     H191466   1.465   3.470   4.542
30408WAT     H291467   1.408   3.513   4.395
30409WAT      O91468   2.631   6.363   6.349
30409WAT     H191469   2.673   6.431   6.289
30409WAT     H291470   2.534   6.387   6.362
30410WAT      O91471   8.398   1.413   7.224
30410WAT     H191472   8.375   1.418   7.126
30410WAT     H291473   8.389   1.504   7.265
30411WAT      O91474   1.401   2.223   0.062
30411WAT     H191475   1.382   2.315   0.029
30411WAT     H291476   1.317   2.168   0.056
30412WAT      O91477   2.346   3.888   9.077
30412WAT     H191478   2.311   3.975   9.042
30412WAT     H291479   2.439   3.874   9.043
30413WAT      O91480   0.645   1.833   2.318
30413WAT     H191481   0.700   1.752   2.335
30413WAT     H291482   0.561   1.807   2.270
30414WAT      O91483   0.133   7.607   2.091
30414WAT     H191484   0.189   7.687   2.111
30414WAT     H291485   0.168   7.529   2.143
30415WAT      O91486   7.966   0.767   8.744
30415WAT     H191487   7.911   0.737   8.822
30415WAT     H291488   7.906   0.779   8.664
30416WAT      O91489   9.295   4.895   7.992
30416WAT     H191490   9.355   4.938   8.059
30416WAT     H291491   9.330   4.804   7.971
30417WAT      O91492   2.720   0.733   7.330
30417WAT     H191493   2.779   0.805   7.293
30417WAT     H291494   2.699   0.754   7.426
30418WAT      O91495   5.558   9.101   2.741
30418WAT     H191496   5.596   9.014   2.711
30418WAT     H291497   5.478   9.085   2.799
30419WAT      O91498   6.573   0.695   2.835
30419WAT     H191499   6.508   0.675   2.761
30419WAT     H291500   6.637   0.620   2.844
30420WAT      O91501   3.446   7.105   7.581
30420WAT     H191502   3.453   7.059   7.669
30420WAT     H291503   3.537   7.136   7.552
30421WAT      O91504   0.837   5.748   1.863
30421WAT     H191505   0.756   5.807   1.868
30421WAT     H291506   0.906   5.793   1.806
30422WAT      O91507   2.655   0.591   5.536
30422WAT     H191508   2.629   0.494   5.536
30422WAT     H291509   2.613   0.637   5.614
30423WAT      O91510   8.574   2.170   6.880
30423WAT     H191511   8.549   2.165   6.784
30423WAT     H291512   8.523   2.102   6.932
30424WAT      O91513   8.440   4.720   4.437
30424WAT     H191514   8.415   4.806   4.391
30424WAT     H291515   8.374   4.700   4.509
30425WAT      O91516   0.128   9.094   4.227
30425WAT     H191517   0.078   9.123   4.146
30425WAT     H291518   0.222   9.071   4.202
30426WAT      O91519   2.100   2.750   2.450
30426WAT     H191520   2.155   2.713   2.376
30426WAT     H291521   2.028   2.809   2.412
30427WAT      O91522   3.147   2.522   2.402
30427WAT     H191523   3.170   2.491   2.495
30427WAT     H291524   3.181   2.614   2.388
30428WAT      O91525   8.841   5.227   1.008
30428WAT     H191526   8.782   5.267   1.078
30428WAT     H291527   8.838   5.127   1.014
30429WAT      O91528   9.476   2.082   8.530
30429WAT     H191529   9.560   2.087   8.476
30429WAT     H291530   9.495   2.112   8.624
30430WAT      O91531   8.351   9.478   0.310
30430WAT     H191532   8.445   9.463   0.341
30430WAT     H291533   8.324   9.572   0.329
30431WAT      O91534   0.998   7.670   4.804
30431WAT     H191535   1.097   7.659   4.791
30431WAT     H291536   0.967   7.750   4.752
30432WAT      O91537   8.222   1.860   2.460
30432WAT     H191538   8.321   1.873   2.462
30432WAT     H291539   8.201   1.771   2.420
30433WAT      O91540   9.289   2.302   2.264
30433WAT     H191541   9.305   2.401   2.267
30433WAT     H291542   9.215   2.283   2.200
30434WAT      O91543   1.487   7.331   6.806
30434WAT     H191544   1.463   7.286   6.721
30434WAT     H291545   1.506   7.262   6.876
30435WAT      O91546   1.379   7.736   4.488
30435WAT     H191547   1.476   7.725   4.467
30435WAT     H291548   1.339   7.804   4.426
30436WAT      O91549   6.952   0.571   5.464
30436WAT     H191550   6.907   0.652   5.502
30436WAT     H291551   6.904   0.544   5.380
30437WAT      O91552   1.890   2.093   2.546
30437WAT     H191553   1.972   2.148   2.529
30437WAT     H291554   1.912   1.996   2.533
30438WAT      O91555   7.782   6.445   0.046
30438WAT     H191556   7.828   6.425  -0.040
30438WAT     H291557   7.691   6.480   0.028
30439WAT      O91558   9.710   1.435   5.825
30439WAT     H191559   9.613   1.420   5.808
30439WAT     H291560   9.759   1.437   5.738
30440WAT      O91561   5.677   4.496   2.473
30440WAT     H191562   5.640   4.414   2.429
30440WAT     H291563   5.724   4.552   2.405
30441WAT      O91564   4.645   9.327   6.305
30441WAT     H191565   4.584   9.334   6.226
30441WAT     H291566   4.644   9.233   6.339
30442WAT      O91567   2.111   3.603   7.515
30442WAT     H191568   2.072   3.528   7.461
30442WAT     H291569   2.181   3.566   7.577
30443WAT      O91570   0.998   3.695   3.214
30443WAT     H191571   1.005   3.607   3.261
30443WAT     H291572   1.065   3.758   3.251
30444WAT      O91573   7.279   9.039   4.154
30444WAT     H191574   7.364   9.012   4.108
30444WAT     H291575   7.210   8.967   4.141
30445WAT      O91576   6.454   0.649   3.197
30445WAT     H191577   6.390   0.701   3.139
30445WAT     H291578   6.546   0.656   3.159
30446WAT      O91579   5.897   7.081   8.597
30446WAT     H191580   5.962   7.041   8.532
30446WAT     H291581   5.881   7.016   8.672
30447WAT      O91582   3.600   8.785   2.087
30447WAT     H191583   3.660   8.753   2.160
30447WAT     H291584   3.505   8.785   2.120
30448WAT      O91585   6.762   1.519   9.738
30448WAT     H191586   6.785   1.553   9.646
30448WAT     H291587   6.747   1.420   9.733
30449WAT      O91588   3.367   7.621   3.223
30449WAT     H191589   3.452   7.669   3.201
30449WAT     H291590   3.378   7.523   3.204
30450WAT      O91591   0.314   6.330   9.139
30450WAT     H191592   0.313   6.232   9.120
30450WAT     H291593   0.370   6.377   9.071
30451WAT      O91594   5.138   7.966   3.181
30451WAT     H191595   5.220   8.022   3.172
30451WAT     H291596   5.111   7.931   3.090
30452WAT      O91597   9.151   4.796   5.175
30452WAT     H191598   9.118   4.724   5.237
30452WAT     H291599   9.250   4.808   5.188
30453WAT      O91600   1.411   6.455   6.560
30453WAT     H191601   1.474   6.470   6.636
30453WAT     H291602   1.350   6.379   6.583
30454WAT      O91603   9.591   4.329   8.613
30454WAT     H191604   9.502   4.352   8.572
30454WAT     H291605   9.576   4.289   8.703
30455WAT      O91606   1.956   7.042   4.830
30455WAT     H191607   1.862   7.051   4.797
30455WAT     H291608   2.006   6.978   4.771
30456WAT      O91609   0.501   9.634   3.350
30456WAT     H191610   0.593   9.652   3.314
30456WAT     H291611   0.458   9.721   3.377
30457WAT      O91612   1.135   2.768   2.134
30457WAT     H191613   1.140   2.683   2.082
30457WAT     H291614   1.108   2.748   2.228
30458WAT      O91615   3.484   6.948   3.627
30458WAT     H191616   3.572   6.969   3.671
30458WAT     H291617   3.501   6.915   3.534
30459WAT      O91618   9.539   0.896   7.654
30459WAT     H191619   9.531   0.816   7.714
30459WAT     H291620   9.504   0.977   7.702
30460WAT      O91621   2.163   4.556   5.494
30460WAT     H191622   2.134   4.475   5.545
30460WAT     H291623   2.235   4.603   5.545
30461WAT      O91624   9.739   3.934   3.388
30461WAT     H191625   9.753   4.033   3.385
30461WAT     H291626   9.792   3.891   3.315
30462WAT      O91627   1.767   0.440   1.000
30462WAT     H191628   1.672   0.465   1.015
30462WAT     H291629   1.772   0.346   0.967
30463WAT      O91630   7.345   2.108   6.417
30463WAT     H191631   7.379   2.022   6.379
30463WAT     H291632   7.288   2.155   6.349
30464WAT      O91633   7.981   7.310   0.256
30464WAT     H191634   8.035   7.243   0.205
30464WAT     H291635   8.002   7.402   0.224
30465WAT      O91636   7.249   5.272   3.007
30465WAT     H191637   7.301   5.194   2.973
30465WAT     H291638   7.177   5.239   3.068
30466WAT      O91639   1.723   4.091   3.075
30466WAT     H191640   1.782   4.014   3.052
30466WAT     H291641   1.738   4.166   3.010
30467WAT      O91642   2.262   7.367   7.613
30467WAT     H191643   2.183   7.414   7.575
30467WAT     H291644   2.262   7.272   7.582
30468WAT      O91645   2.820   4.479   6.483
30468WAT     H191646   2.842   4.433   6.397
30468WAT     H291647   2.721   4.482   6.495
30469WAT      O91648   0.214   6.743   3.067
30469WAT     H191649   0.214   6.681   2.989
30469WAT     H291650   0.121   6.753   3.102
30470WAT      O91651   1.309   7.249   7.284
30470WAT     H191652   1.216   7.271   7.257
30470WAT     H291653   1.321   7.149   7.284
30471WAT      O91654   7.351   0.915   8.427
30471WAT     H191655   7.429   0.908   8.488
30471WAT     H291656   7.378   0.884   8.335
30472WAT      O91657   6.736   4.196   2.018
30472WAT     H191658   6.807   4.137   2.057
30472WAT     H291659   6.648   4.172   2.058
30473WAT      O91660   8.418   0.789   7.885
30473WAT     H191661   8.459   0.852   7.951
30473WAT     H291662   8.390   0.705   7.931
30474WAT      O91663   2.062   8.857   1.153
30474WAT     H191664   1.984   8.822   1.101
30474WAT     H291665   2.085   8.949   1.122
30475WAT      O91666   7.514   8.350   7.888
30475WAT     H191667   7.549   8.430   7.839
30475WAT     H291668   7.432   8.316   7.841
30476WAT      O91669   3.364   9.170   6.774
30476WAT     H191670   3.316   9.219   6.847
30476WAT     H291671   3.447   9.128   6.811
30477WAT      O91672   7.214   2.290   4.485
30477WAT     H191673   7.165   2.238   4.555
30477WAT     H291674   7.218   2.237   4.401
30478WAT      O91675   1.336   2.390   5.669
30478WAT     H191676   1.399   2.466   5.657
30478WAT     H291677   1.370   2.310   5.621
30479WAT      O91678   2.748   2.558   6.655
30479WAT     H191679   2.661   2.570   6.703
30479WAT     H291680   2.799   2.644   6.657
30480WAT      O91681   3.210   3.338   8.622
30480WAT     H191682   3.225   3.435   8.604
30480WAT     H291683   3.184   3.326   8.718
30481WAT      O91684   2.342   6.278   1.363
30481WAT     H191685   2.277   6.286   1.287
30481WAT     H291686   2.293   6.289   1.450
30482WAT      O91687   9.598   6.852   8.216
30482WAT     H191688   9.686   6.875   8.176
30482WAT     H291689   9.525   6.873   8.151
30483WAT      O91690   3.227   2.512   0.762
30483WAT     H191691   3.231   2.608   0.792
30483WAT     H291692   3.314   2.468   0.780
30484WAT      O91693   8.046   0.582   7.289
30484WAT     H191694   7.991   0.601   7.208
30484WAT     H291695   8.054   0.666   7.344
30485WAT      O91696   1.907   9.215   7.109
30485WAT     H191697   1.859   9.128   7.114
30485WAT     H291698   1.868   9.278   7.176
30486WAT      O91699   2.679   3.147   2.690
30486WAT     H191700   2.594   3.147   2.637
30486WAT     H291701   2.657   3.142   2.788
30487WAT      O91702   4.541   4.458   4.998
30487WAT     H191703   4.488   4.388   4.949
30487WAT     H291704   4.629   4.470   4.953
30488WAT      O91705   6.162   2.242   3.803
30488WAT     H191706   6.151   2.170   3.872
30488WAT     H291707   6.243   2.222   3.748
30489WAT      O91708   0.558   7.693   4.426
30489WAT     H191709   0.634   7.697   4.491
30489WAT     H291710   0.481   7.645   4.468
30490WAT      O91711   4.324   5.821   8.073
30490WAT     H191712   4.347   5.918   8.082
30490WAT     H291713   4.301   5.801   7.978
30491WAT      O91714   8.100   8.231   7.881
30491WAT     H191715   8.191   8.200   7.853
30491WAT     H291716   8.046   8.256   7.800
30492WAT      O91717   9.793   9.209   6.380
30492WAT     H191718   9.743   9.201   6.293
30492WAT     H291719   9.873   9.150   6.377
30493WAT      O91720   3.807   0.957   0.960
30493WAT     H191721   3.769   0.865   0.960
30493WAT     H291722   3.890   0.958   1.016
30494WAT      O91723   4.882   1.826   3.960
30494WAT     H191724   4.932   1.908   3.933
30494WAT     H291725   4.945   1.748   3.963
30495WAT      O91726   1.725   9.456   5.548
30495WAT     H191727   1.740   9.540   5.496
30495WAT     H291728   1.813   9.413   5.567
30496WAT      O91729   5.255   0.882   7.982
30496WAT     H191730   5.255   0.785   8.009
30496WAT     H291731   5.334   0.900   7.924
30497WAT      O91732   7.176   2.901   9.297
30497WAT     H191733   7.124   2.955   9.232
30497WAT     H291734   7.130   2.900   9.386
30498WAT      O91735   9.519   4.641   5.413
30498WAT     H191736   9.556   4.618   5.504
30498WAT     H291737   9.543   4.568   5.348
30499WAT      O91738   9.470   5.508   0.033
30499WAT     H191739   9.490   5.550   0.121
30499WAT     H291740   9.434   5.416   0.047
30500WAT      O91741   4.452   1.553   1.557
30500WAT     H191742   4.360   1.521   1.577
30500WAT     H291743   4.455   1.653   1.558
30501WAT      O91744   4.406   3.630   4.912
30501WAT     H191745   4.345   3.685   4.856
30501WAT     H291746   4.414   3.538   4.874
30502WAT      O91747   0.325   6.251   7.561
30502WAT     H191748   0.245   6.311   7.560
30502WAT     H291749   0.331   6.205   7.650
30503WAT      O91750   3.274   5.445   2.041
30503WAT     H191751   3.338   5.476   1.971
30503WAT     H291752   3.299   5.352   2.070
30504WAT      O91753   0.440   8.736   7.874
30504WAT     H191754   0.342   8.714   7.869
30504WAT     H291755   0.490   8.676   7.812
30505WAT      O91756   1.070   9.754   9.159
30505WAT     H191757   1.164   9.720   9.159
30505WAT     H291758   1.006   9.677   9.159
30506WAT      O91759   9.140   7.237   6.093
30506WAT     H191760   9.238   7.251   6.079
30506WAT     H291761   9.100   7.199   6.009
30507WAT      O91762   3.930   4.317   5.609
30507WAT     H191763   3.846   4.355   5.572
30507WAT     H291764   3.913   4.224   5.643
30508WAT      O91765   1.137   5.457   2.455
30508WAT     H191766   1.231   5.430   2.435
30508WAT     H291767   1.126   5.471   2.554
30509WAT      O91768   0.650   0.673   3.100
30509WAT     H191769   0.573   0.723   3.060
30509WAT     H291770   0.717   0.739   3.136
30510WAT      O91771   7.569   6.728   2.140
30510WAT     H191772   7.583   6.788   2.061
30510WAT     H291773   7.472   6.723   2.162
30511WAT      O91774   7.450   0.206   2.924
30511WAT     H191775   7.457   0.301   2.953
30511WAT     H291776   7.441   0.202   2.825
30512WAT      O91777   8.558   2.738   9.619
30512WAT     H191778   8.600   2.767   9.533
30512WAT     H291779   8.481   2.677   9.600
30513WAT      O91780   4.690   1.965   6.777
30513WAT     H191781   4.647   1.905   6.710
30513WAT     H291782   4.786   1.978   6.753
30514WAT      O91783   5.146   7.671   0.991
30514WAT     H191784   5.100   7.682   0.903
30514WAT     H291785   5.238   7.635   0.977
30515WAT      O91786   4.690   6.258   5.612
30515WAT     H191787   4.693   6.205   5.527
30515WAT     H291788   4.752   6.217   5.679
30516WAT      O91789   3.478   5.783   6.845
30516WAT     H191790   3.410   5.835   6.794
30516WAT     H291791   3.538   5.735   6.781
30517WAT      O91792   7.535   3.376   7.325
30517WAT     H191793   7.632   3.367   7.302
30517WAT     H291794   7.524   3.371   7.425
30518WAT      O91795   9.541   3.114   1.633
30518WAT     H191796   9.532   3.088   1.537
30518WAT     H291797   9.632   3.153   1.649
30519WAT      O91798   7.486   4.041   5.504
30519WAT     H191799   7.575   3.996   5.494
30519WAT     H291800   7.500   4.139   5.520
30520WAT      O91801   6.856   8.196   3.694
30520WAT     H191802   6.842   8.113   3.747
30520WAT     H291803   6.927   8.180   3.625
30521WAT      O91804   1.729   1.045   7.402
30521WAT     H191805   1.722   1.079   7.496
30521WAT     H291806   1.785   0.962   7.402
30522WAT      O91807   2.133   4.345   9.504
30522WAT     H191808   2.117   4.272   9.437
30522WAT     H291809   2.154   4.305   9.593
30523WAT      O91810   1.367   4.528   7.737
30523WAT     H191811   1.288   4.568   7.692
30523WAT     H291812   1.337   4.464   7.808
30524WAT      O91813   7.923   8.285   4.285
30524WAT     H191814   7.838   8.295   4.338
30524WAT     H291815   7.905   8.307   4.190
30525WAT      O91816   7.627   3.571   0.710
30525WAT     H191817   7.562   3.505   0.672
30525WAT     H291818   7.606   3.663   0.677
30526WAT      O91819   4.531   3.160   8.203
30526WAT     H191820   4.447   3.211   8.185
30526WAT     H291821   4.606   3.202   8.153
30527WAT      O91822   5.674   1.150   8.197
30527WAT     H191823   5.596   1.142   8.135
30527WAT     H291824   5.759   1.144   8.145
30528WAT      O91825   8.370   7.811   7.001
30528WAT     H191826   8.322   7.895   7.028
30528WAT     H291827   8.342   7.736   7.061
30529WAT      O91828   2.118   7.145   3.457
30529WAT     H191829   2.132   7.049   3.479
30529WAT     H291830   2.197   7.179   3.406
30530WAT      O91831   8.930   6.826   5.311
30530WAT     H191832   9.010   6.883   5.293
30530WAT     H291833   8.936   6.741   5.258
30531WAT      O91834   2.153   1.493   5.564
30531WAT     H191835   2.054   1.509   5.568
30531WAT     H291836   2.196   1.529   5.647
30532WAT      O91837   6.124   0.163   2.890
30532WAT     H191838   6.214   0.164   2.934
30532WAT     H291839   6.121   0.091   2.821
30533WAT      O91840   0.550   3.233   5.420
30533WAT     H191841   0.523   3.289   5.342
30533WAT     H291842   0.629   3.274   5.465
30534WAT      O91843   9.747   7.075   3.765
30534WAT     H191844   9.670   7.018   3.735
30534WAT     H291845   9.828   7.052   3.712
30535WAT      O91846   6.855   3.913   1.769
30535WAT     H191847   6.824   4.007   1.784
30535WAT     H291848   6.955   3.910   1.773
30536WAT      O91849   7.516   3.886   2.499
30536WAT     H191850   7.427   3.854   2.468
30536WAT     H291851   7.580   3.888   2.422
30537WAT      O91852   8.524   6.585   2.599
30537WAT     H191853   8.453   6.551   2.536
30537WAT     H291854   8.569   6.664   2.557
30538WAT      O91855   7.103   6.364   8.086
30538WAT     H191856   7.026   6.320   8.132
30538WAT     H291857   7.181   6.370   8.149
30539WAT      O91858   6.099   5.226   6.629
30539WAT     H191859   6.008   5.242   6.591
30539WAT     H291860   6.099   5.141   6.682
30540WAT      O91861   5.681   4.887   1.480
30540WAT     H191862   5.742   4.859   1.554
30540WAT     H291863   5.715   4.852   1.393
30541WAT      O91864   1.842   5.129   5.987
30541WAT     H191865   1.839   5.044   6.040
30541WAT     H291866   1.789   5.117   5.903
30542WAT      O91867   9.518   0.322   6.444
30542WAT     H191868   9.430   0.294   6.482
30542WAT     H291869   9.585   0.249   6.457
30543WAT      O91870   3.730   7.621   4.304
30543WAT     H191871   3.752   7.540   4.357
30543WAT     H291872   3.779   7.619   4.217
30544WAT      O91873   7.915   3.801   6.558
30544WAT     H191874   7.876   3.741   6.627
30544WAT     H291875   7.945   3.886   6.601
30545WAT      O91876   1.210   8.684   3.425
30545WAT     H191877   1.122   8.711   3.386
30545WAT     H291878   1.277   8.757   3.411
30546WAT      O91879   1.228   3.024   8.085
30546WAT     H191880   1.215   2.938   8.134
30546WAT     H291881   1.315   3.065   8.112
30547WAT      O91882   3.626   0.239   5.319
30547WAT     H191883   3.718   0.252   5.281
30547WAT     H291884   3.570   0.187   5.254
30548WAT      O91885   2.387   0.615   0.349
30548WAT     H191886   2.342   0.653   0.430
30548WAT     H291887   2.359   0.667   0.268
30549WAT      O91888   9.628   8.233   4.604
30549WAT     H191889   9.572   8.231   4.687
30549WAT     H291890   9.645   8.139   4.574
30550WAT      O91891   2.098   3.888   5.778
30550WAT     H191892   2.059   3.865   5.868
30550WAT     H291893   2.038   3.954   5.733
30551WAT      O91894   2.659   6.908   8.406
30551WAT     H191895   2.594   6.884   8.333
30551WAT     H291896   2.652   7.006   8.425
30552WAT      O91897   7.855   9.022   4.895
30552WAT     H191898   7.827   9.047   4.802
30552WAT     H291899   7.828   8.928   4.914
30553WAT      O91900   2.200   8.891   7.787
30553WAT     H191901   2.289   8.929   7.761
30553WAT     H291902   2.173   8.821   7.721
30554WAT      O91903   7.707   2.523   6.931
30554WAT     H191904   7.697   2.617   6.899
30554WAT     H291905   7.746   2.523   7.023
30555WAT      O91906   6.019   1.675   7.740
30555WAT     H191907   6.084   1.694   7.813
30555WAT     H291908   6.013   1.576   7.725
30556WAT      O91909   7.348   3.548   8.091
30556WAT     H191910   7.311   3.546   7.999
30556WAT     H291911   7.275   3.533   8.157
30557WAT      O91912   5.057   8.050   6.838
30557WAT     H191913   5.116   7.970   6.832
30557WAT     H291914   5.066   8.104   6.754
30558WAT      O91915   8.086   4.849   5.683
30558WAT     H191916   8.003   4.879   5.730
30558WAT     H291917   8.158   4.832   5.750
30559WAT      O91918   1.772   6.461   7.290
30559WAT     H191919   1.743   6.551   7.257
30559WAT     H291920   1.692   6.403   7.301
30560WAT      O91921   3.181   5.501   8.842
30560WAT     H191922   3.121   5.478   8.765
30560WAT     H291923   3.265   5.543   8.807
30561WAT      O91924   1.115   7.604   5.261
30561WAT     H191925   1.055   7.611   5.182
30561WAT     H291926   1.210   7.609   5.231
30562WAT      O91927   6.903   4.587   6.214
30562WAT     H191928   6.940   4.498   6.241
30562WAT     H291929   6.820   4.573   6.159
30563WAT      O91930   2.684   6.457   3.979
30563WAT     H191931   2.691   6.460   4.078
30563WAT     H291932   2.660   6.547   3.943
30564WAT      O91933   7.849   8.006   7.805
30564WAT     H191934   7.762   8.051   7.785
30564WAT     H291935   7.867   8.009   7.903
30565WAT      O91936   1.811   2.728   5.551
30565WAT     H191937   1.788   2.651   5.492
30565WAT     H291938   1.771   2.812   5.514
30566WAT      O91939   6.449   0.610   2.576
30566WAT     H191940   6.498   0.685   2.532
30566WAT     H291941   6.351   0.630   2.575
30567WAT      O91942   8.844   9.616   9.277
30567WAT     H191943   8.902   9.678   9.331
30567WAT     H291944   8.891   9.527   9.268
30568WAT      O91945   3.253   3.180   8.400
30568WAT     H191946   3.164   3.184   8.355
30568WAT     H291947   3.249   3.227   8.488
30569WAT      O91948   0.786   6.073   0.915
30569WAT     H191949   0.758   6.103   1.006
30569WAT     H291950   0.809   5.976   0.917
30570WAT      O91951   9.439   0.835   7.021
30570WAT     H191952   9.361   0.802   7.074
30570WAT     H291953   9.426   0.814   6.925
30571WAT      O91954   2.500   2.897   8.442
30571WAT     H191955   2.544   2.821   8.489
30571WAT     H291956   2.449   2.863   8.363
30572WAT      O91957   3.517   6.496   8.345
30572WAT     H191958   3.550   6.588   8.322
30572WAT     H291959   3.541   6.475   8.440
30573WAT      O91960   3.914   4.854   0.130
30573WAT     H191961   3.820   4.867   0.161
30573WAT     H291962   3.946   4.936   0.085
30574WAT      O91963   7.188   9.209   3.557
30574WAT     H191964   7.142   9.275   3.498
30574WAT     H291965   7.285   9.206   3.534
30575WAT      O91966   7.009   3.969   9.445
30575WAT     H191967   7.070   3.900   9.407
30575WAT     H291968   6.976   4.028   9.371
30576WAT      O91969   9.222   3.790   5.102
30576WAT     H191970   9.196   3.863   5.165
30576WAT     H291971   9.314   3.808   5.067
30577WAT      O91972   2.587   7.804   0.473
30577WAT     H191973   2.659   7.741   0.502
30577WAT     H291974   2.629   7.887   0.435
30578WAT      O91975   9.087   9.218   7.796
30578WAT     H191976   9.153   9.143   7.803
30578WAT     H291977   9.107   9.272   7.714
30579WAT      O91978   5.454   7.378   4.809
30579WAT     H191979   5.529   7.438   4.783
30579WAT     H291980   5.443   7.380   4.909
30580WAT      O91981   8.433   0.349   9.596
30580WAT     H191982   8.338   0.327   9.576
30580WAT     H291983   8.493   0.295   9.537
30581WAT      O91984   1.139   9.662   4.105
30581WAT     H191985   1.114   9.650   4.201
30581WAT     H291986   1.192   9.746   4.094
30582WAT      O91987   5.711   7.648   2.178
30582WAT     H191988   5.627   7.656   2.231
30582WAT     H291989   5.778   7.595   2.231
30583WAT      O91990   1.010   9.223   4.662
30583WAT     H191991   0.951   9.286   4.612
30583WAT     H291992   1.001   9.131   4.623
30584WAT      O91993   6.879   6.353   2.307
30584WAT     H191994   6.836   6.293   2.240
30584WAT     H291995   6.927   6.298   2.375
30585WAT      O91996   1.019   0.198   7.007
30585WAT     H191997   1.081   0.274   6.989
30585WAT     H291998   1.033   0.126   6.939
30586WAT      O91999   1.927   2.611   0.553
30586WAT     H192000   1.901   2.703   0.579
30586WAT     H292001   1.948   2.557   0.635
30587WAT      O92002   9.701   4.291   1.372
30587WAT     H192003   9.735   4.272   1.280
30587WAT     H292004   9.648   4.212   1.404
30588WAT      O92005   4.748   3.524   8.950
30588WAT     H192006   4.714   3.534   9.043
30588WAT     H292007   4.688   3.461   8.899
30589WAT      O92008   1.629   7.838   7.036
30589WAT     H192009   1.639   7.928   7.077
30589WAT     H292010   1.694   7.774   7.078
30590WAT      O92011   0.030   5.268   0.052
30590WAT     H192012   0.050   5.364   0.072
30590WAT     H292013   0.055   5.248  -0.043
30591WAT      O92014   5.117   0.005   5.199
30591WAT     H192015   5.028  -0.021   5.162
30591WAT     H292016   5.179   0.030   5.124
30592WAT      O92017   3.659   9.090   4.843
30592WAT     H192018   3.684   9.163   4.908
30592WAT     H292019   3.576   9.116   4.795
30593WAT      O92020   0.059   6.013   6.280
30593WAT     H192021   0.059   5.974   6.188
30593WAT     H292022  -0.003   5.960   6.338
30594WAT      O92023   3.758   1.508   5.066
30594WAT     H192024   3.751   1.453   4.982
30594WAT     H292025   3.695   1.472   5.135
30595WAT      O92026   6.508   9.664   3.100
30595WAT     H192027   6.467   9.673   3.009
30595WAT     H292028   6.560   9.747   3.121
30596WAT      O92029   4.592   3.580   9.605
30596WAT     H192030   4.604   3.490   9.563
30596WAT     H292031   4.517   3.628   9.560
30597WAT      O92032   1.834   1.399   8.682
30597WAT     H192033   1.888   1.322   8.647
30597WAT     H292034   1.740   1.370   8.697
30598WAT      O92035   6.370   1.864   7.976
30598WAT     H192036   6.368   1.764   7.988
30598WAT     H292037   6.460   1.891   7.940
30599WAT      O92038   8.621   8.473   0.716
30599WAT     H192039   8.521   8.482   0.711
30599WAT     H292040   8.651   8.482   0.811
30600WAT      O92041   1.433   3.893   0.159
30600WAT     H192042   1.421   3.797   0.134
30600WAT     H292043   1.503   3.935   0.100
30601WAT      O92044   7.625   0.228   7.735
30601WAT     H192045   7.608   0.209   7.831
30601WAT     H292046   7.705   0.177   7.704
30602WAT      O92047   2.090   3.857   8.564
30602WAT     H192048   2.058   3.784   8.504
30602WAT     H292049   2.016   3.922   8.581
30603WAT      O92050   6.620   2.642   7.357
30603WAT     H192051   6.537   2.627   7.303
30603WAT     H292052   6.628   2.569   7.426
30604WAT      O92053   2.373   2.610   1.866
30604WAT     H192054   2.405   2.702   1.843
30604WAT     H292055   2.391   2.590   1.962
30605WAT      O92056   7.977   2.346   4.503
30605WAT     H192057   8.015   2.394   4.424
30605WAT     H292058   7.887   2.309   4.479
30606WAT      O92059   8.229   2.343   9.681
30606WAT     H192060   8.183   2.312   9.764
30606WAT     H292061   8.186   2.299   9.602
30607WAT      O92062   9.558   6.413   7.569
30607WAT     H192063   9.609   6.499   7.576
30607WAT     H292064   9.622   6.337   7.561
30608WAT      O92065   5.447   7.300   7.850
30608WAT     H192066   5.489   7.388   7.874
30608WAT     H292067   5.369   7.316   7.789
30609WAT      O92068   0.242   6.941   2.130
30609WAT     H192069   0.273   6.989   2.048
30609WAT     H292070   0.238   6.843   2.113
30610WAT      O92071   3.129   1.699   5.234
30610WAT     H192072   3.122   1.603   5.209
30610WAT     H292073   3.118   1.755   5.152
30611WAT      O92074   8.028   6.772   9.253
30611WAT     H192075   8.087   6.809   9.181
30611WAT     H292076   7.949   6.727   9.212
30612WAT      O92077   4.068   3.126   4.512
30612WAT     H192078   3.987   3.069   4.518
30612WAT     H292079   4.118   3.105   4.428
30613WAT      O92080   3.904   2.699   6.160
30613WAT     H192081   3.848   2.762   6.212
30613WAT     H292082   3.943   2.747   6.081
30614WAT      O92083   8.178   3.880   7.978
30614WAT     H192084   8.103   3.826   7.939
30614WAT     H292085   8.166   3.888   8.076
30615WAT      O92086   0.105   4.928   6.125
30615WAT     H192087   0.047   4.990   6.072
30615WAT     H292088   0.050   4.851   6.158
30616WAT      O92089   7.245   9.500   1.871
30616WAT     H192090   7.232   9.516   1.969
30616WAT     H292091   7.182   9.429   1.841
30617WAT      O92092   5.465   5.919   4.137
30617WAT     H192093   5.373   5.887   4.159
30617WAT     H292094   5.511   5.850   4.080
30618WAT      O92095   4.829   0.533   2.321
30618WAT     H192096   4.876   0.445   2.328
30618WAT     H292097   4.730   0.518   2.320
30619WAT      O92098   2.135   1.285   9.164
30619WAT     H192099   2.069   1.277   9.238
30619WAT     H292100   2.114   1.365   9.108
30620WAT      O92101   6.389   4.241   1.219
30620WAT     H192102   6.300   4.222   1.179
30620WAT     H292103   6.392   4.336   1.250
30621WAT      O92104   0.985   9.090   3.913
30621WAT     H192105   0.935   9.021   3.965
30621WAT     H292106   1.028   9.155   3.976
30622WAT      O92107   1.250   1.731   0.081
30622WAT     H192108   1.343   1.718   0.115
30622WAT     H292109   1.199   1.646   0.089
30623WAT      O92110   3.841   9.237   3.110
30623WAT     H192111   3.889   9.166   3.161
30623WAT     H292112   3.908   9.303   3.075
30624WAT      O92113   2.791   3.330   8.699
30624WAT     H192114   2.774   3.254   8.763
30624WAT     H292115   2.740   3.314   8.614
30625WAT      O92116   9.791   2.287   2.155
30625WAT     H192117   9.692   2.279   2.146
30625WAT     H292118   9.834   2.200   2.129
30626WAT      O92119   6.288   5.378   9.456
30626WAT     H192120   6.263   5.312   9.384
30626WAT     H292121   6.241   5.465   9.439
30627WAT      O92122   1.951   3.744   2.751
30627WAT     H192123   2.001   3.772   2.833
30627WAT     H292124   1.999   3.776   2.670
30628WAT      O92125   4.108   6.524   8.241
30628WAT     H192126   4.120   6.428   8.267
30628WAT     H292127   4.196   6.562   8.211
30629WAT      O92128   8.074   8.381   0.022
30629WAT     H192129   8.134   8.436  -0.036
30629WAT     H292130   8.059   8.292  -0.020
30630WAT      O92131   5.340   9.616   4.537
30630WAT     H192132   5.412   9.556   4.572
30630WAT     H292133   5.257   9.563   4.520
30631WAT      O92134   8.031   2.173   9.394
30631WAT     H192135   8.087   2.193   9.314
30631WAT     H292136   7.968   2.248   9.410
30632WAT      O92137   7.981   5.911   2.982
30632WAT     H192138   8.066   5.929   3.030
30632WAT     H292139   8.001   5.873   2.892
30633WAT      O92140   9.122   5.807   4.657
30633WAT     H192141   9.158   5.792   4.749
30633WAT     H292142   9.023   5.821   4.661
30634WAT      O92143   4.003   1.799   9.016
30634WAT     H192144   4.045   1.716   9.054
30634WAT     H292145   4.047   1.822   8.929
30635WAT      O92146   3.963   5.501   0.691
30635WAT     H192147   4.010   5.565   0.752
30635WAT     H292148   3.949   5.414   0.739
30636WAT      O92149   0.474   6.107   5.889
30636WAT     H192150   0.455   6.075   5.982
30636WAT     H292151   0.444   6.038   5.823
30637WAT      O92152   4.367   4.961   9.646
30637WAT     H192153   4.323   5.048   9.666
30637WAT     H292154   4.311   4.886   9.681
30638WAT      O92155   0.100   9.797   1.553
30638WAT     H192156   0.127   9.888   1.584
30638WAT     H292157   0.165   9.765   1.484
30639WAT      O92158   6.167   2.569   5.888
30639WAT     H192159   6.250   2.519   5.916
30639WAT     H292160   6.157   2.651   5.944
30640WAT      O92161   4.408   7.461   4.509
30640WAT     H192162   4.353   7.393   4.557
30640WAT     H292163   4.480   7.415   4.457
30641WAT      O92164   3.585   1.828   2.548
30641WAT     H192165   3.614   1.736   2.575
30641WAT     H292166   3.649   1.896   2.586
30642WAT      O92167   2.308   3.886   2.312
30642WAT     H192168   2.367   3.809   2.290
30642WAT     H292169   2.316   3.907   2.410
30643WAT      O92170   7.327   8.971   7.811
30643WAT     H192171   7.357   9.060   7.777
30643WAT     H292172   7.335   8.970   7.911
30644WAT      O92173   5.862   8.476   3.620
30644WAT     H192174   5.936   8.412   3.639
30644WAT     H292175   5.775   8.434   3.642
30645WAT      O92176   7.890   8.961   2.991
30645WAT     H192177   7.978   8.946   3.036
30645WAT     H292178   7.889   9.052   2.950
30646WAT      O92179   0.769   4.923   3.513
30646WAT     H192180   0.771   4.829   3.478
30646WAT     H292181   0.714   4.925   3.596
30647WAT      O92182   3.505   7.726   8.689
30647WAT     H192183   3.482   7.666   8.765
30647WAT     H292184   3.486   7.821   8.714
30648WAT      O92185   3.264   4.117   0.938
30648WAT     H192186   3.229   4.026   0.915
30648WAT     H292187   3.334   4.109   1.008
30649WAT      O92188   8.375   1.532   8.568
30649WAT     H192189   8.393   1.615   8.621
30649WAT     H292190   8.453   1.471   8.573
30650WAT      O92191   8.934   4.577   8.766
30650WAT     H192192   8.932   4.661   8.711
30650WAT     H292193   8.886   4.593   8.852
30651WAT      O92194   7.461   3.722   4.147
30651WAT     H192195   7.514   3.777   4.211
30651WAT     H292196   7.510   3.716   4.060
30652WAT      O92197   0.328   6.936   1.178
30652WAT     H192198   0.368   6.980   1.258
30652WAT     H292199   0.394   6.871   1.139
30653WAT      O92200   0.491   2.816   3.842
30653WAT     H192201   0.552   2.812   3.763
30653WAT     H292202   0.408   2.868   3.817
30654WAT      O92203   7.811   4.559   5.865
30654WAT     H192204   7.786   4.605   5.779
30654WAT     H292205   7.738   4.496   5.891
30655WAT      O92206   8.706   0.879   3.818
30655WAT     H192207   8.757   0.794   3.824
30655WAT     H292208   8.736   0.941   3.891
30656WAT      O92209   0.146   6.196   6.579
30656WAT     H192210   0.081   6.128   6.611
30656WAT     H292211   0.126   6.220   6.483
30657WAT      O92212   3.580   3.393   4.580
30657WAT     H192213   3.511   3.463   4.599
30657WAT     H292214   3.618   3.407   4.489
30658WAT      O92215   9.631   8.044   5.616
30658WAT     H192216   9.614   7.965   5.557
30658WAT     H292217   9.544   8.085   5.643
30659WAT      O92218   9.347   8.381   9.008
30659WAT     H192219   9.375   8.288   8.983
30659WAT     H292220   9.359   8.394   9.106
30660WAT      O92221   6.951   3.888   9.711
30660WAT     H192222   6.986   3.816   9.771
30660WAT     H292223   7.007   3.893   9.628
30661WAT      O92224   1.474   5.936   1.763
30661WAT     H192225   1.478   5.854   1.820
30661WAT     H292226   1.566   5.960   1.733
30662WAT      O92227   3.099   4.083   2.299
30662WAT     H192228   3.084   3.998   2.249
30662WAT     H292229   3.197   4.097   2.314
30663WAT      O92230   8.713   5.803   4.949
30663WAT     H192231   8.693   5.708   4.926
30663WAT     H292232   8.765   5.806   5.035
30664WAT      O92233   2.167   1.522   0.376
30664WAT     H192234   2.159   1.461   0.455
30664WAT     H292235   2.252   1.500   0.327
30665WAT      O92236   8.149   6.127   4.788
30665WAT     H192237   8.201   6.212   4.772
30665WAT     H292238   8.160   6.098   4.883
30666WAT      O92239   5.101   3.915   3.078
30666WAT     H192240   5.080   3.903   3.175
30666WAT     H292241   5.163   3.993   3.067
30667WAT      O92242   7.432   1.470   2.438
30667WAT     H192243   7.460   1.522   2.358
30667WAT     H292244   7.512   1.432   2.484
30668WAT      O92245   9.781   9.506   7.282
30668WAT     H192246   9.842   9.427   7.283
30668WAT     H292247   9.799   9.561   7.201
30669WAT      O92248   9.360   2.853   1.646
30669WAT     H192249   9.394   2.948   1.643
30669WAT     H292250   9.322   2.834   1.736
30670WAT      O92251   9.241   7.740   6.402
30670WAT     H192252   9.232   7.647   6.435
30670WAT     H292253   9.184   7.801   6.457
30671WAT      O92254   7.868   6.549   7.373
30671WAT     H192255   7.778   6.551   7.416
30671WAT     H292256   7.938   6.553   7.444
30672WAT      O92257   4.412   4.842   5.349
30672WAT     H192258   4.445   4.776   5.416
30672WAT     H292259   4.364   4.793   5.275
30673WAT      O92260   5.610   3.496   2.368
30673WAT     H192261   5.679   3.425   2.351
30673WAT     H292262   5.568   3.481   2.458
30674WAT      O92263   2.252   1.727   0.106
30674WAT     H192264   2.292   1.818   0.115
30674WAT     H292265   2.154   1.732   0.122
30675WAT      O92266   2.332   3.440   9.864
30675WAT     H192267   2.305   3.353   9.823
30675WAT     H292268   2.421   3.467   9.829
30676WAT      O92269   8.425   7.437   2.982
30676WAT     H192270   8.409   7.399   3.073
30676WAT     H292271   8.434   7.536   2.988
30677WAT      O92272   8.983   1.652   8.870
30677WAT     H192273   9.049   1.639   8.944
30677WAT     H292274   9.000   1.585   8.798
30678WAT      O92275   4.025   2.273   0.073
30678WAT     H192276   4.077   2.280   0.158
30678WAT     H292277   3.952   2.341   0.073
30679WAT      O92278   9.161   6.021   4.075
30679WAT     H192279   9.250   6.064   4.091
30679WAT     H292280   9.166   5.964   3.993
30680WAT      O92281   8.172   0.510   3.644
30680WAT     H192282   8.197   0.519   3.740
30680WAT     H292283   8.253   0.486   3.591
30681WAT      O92284   2.789   2.127   9.075
30681WAT     H192285   2.794   2.182   9.158
30681WAT     H292286   2.698   2.085   9.067
30682WAT      O92287   3.870   3.965   2.356
30682WAT     H192288   3.844   3.869   2.349
30682WAT     H292289   3.824   4.018   2.286
30683WAT      O92290   6.860   2.706   9.133
30683WAT     H192291   6.916   2.737   9.057
30683WAT     H292292   6.903   2.625   9.175
30684WAT      O92293   3.788   2.875   2.072
30684WAT     H192294   3.882   2.843   2.084
30684WAT     H292295   3.777   2.911   1.980
30685WAT      O92296   2.841   7.245   5.030
30685WAT     H192297   2.785   7.204   5.101
30685WAT     H292298   2.931   7.270   5.067
30686WAT      O92299   2.700   3.849   6.522
30686WAT     H192300   2.615   3.845   6.573
30686WAT     H292301   2.750   3.763   6.533
30687WAT      O92302   2.461   4.641   8.292
30687WAT     H192303   2.528   4.703   8.333
30687WAT     H292304   2.426   4.579   8.362
30688WAT      O92305   7.136   5.134   8.584
30688WAT     H192306   7.133   5.225   8.625
30688WAT     H292307   7.198   5.134   8.506
30689WAT      O92308   3.794   3.020   9.515
30689WAT     H192309   3.844   3.004   9.600
30689WAT     H292310   3.723   2.951   9.505
30690WAT      O92311   1.694   7.615   2.184
30690WAT     H192312   1.611   7.626   2.129
30690WAT     H292313   1.691   7.677   2.262
30691WAT      O92314   6.707   3.310   9.518
30691WAT     H192315   6.794   3.280   9.478
30691WAT     H292316   6.718   3.321   9.617
30692WAT      O92317   6.743   7.511   8.204
30692WAT     H192318   6.835   7.516   8.164
30692WAT     H292319   6.677   7.487   8.134
30693WAT      O92320   7.240   9.507   2.139
30693WAT     H192321   7.199   9.492   2.229
30693WAT     H292322   7.296   9.428   2.114
30694WAT      O92323   9.175   3.553   1.460
30694WAT     H192324   9.239   3.623   1.429
30694WAT     H292325   9.221   3.465   1.463
30695WAT      O92326   3.651   8.099   9.284
30695WAT     H192327   3.716   8.095   9.359
30695WAT     H292328   3.697   8.133   9.202
30696WAT      O92329   6.641   8.033   5.747
30696WAT     H192330   6.550   8.060   5.780
30696WAT     H292331   6.700   8.016   5.826
30697WAT      O92332   1.484   0.055   3.890
30697WAT     H192333   1.559   0.078   3.952
30697WAT     H292334   1.508  -0.026   3.837
30698WAT      O92335   7.551   8.106   4.563
30698WAT     H192336   7.539   8.007   4.573
30698WAT     H292337   7.469   8.152   4.597
30699WAT      O92338   9.795   0.515   7.364
30699WAT     H192339   9.819   0.493   7.269
30699WAT     H292340   9.819   0.610   7.383
30700WAT      O92341   6.083   1.695   6.951
30700WAT     H192342   6.090   1.639   7.034
30700WAT     H292343   6.151   1.769   6.956
30701WAT      O92344   8.773   2.516   9.269
30701WAT     H192345   8.826   2.537   9.352
30701WAT     H292346   8.757   2.600   9.218
30702WAT      O92347   9.594   5.094   3.451
30702WAT     H192348   9.545   5.049   3.526
30702WAT     H292349   9.536   5.097   3.370
30703WAT      O92350   3.853   1.933   4.729
30703WAT     H192351   3.856   2.014   4.670
30703WAT     H292352   3.912   1.946   4.808
30704WAT      O92353   0.606   1.166   0.128
30704WAT     H192354   0.605   1.247   0.069
30704WAT     H292355   0.539   1.179   0.202
30705WAT      O92356   3.616   6.392   6.527
30705WAT     H192357   3.590   6.380   6.431
30705WAT     H292358   3.617   6.489   6.550
30706WAT      O92359   7.597   3.861   2.759
30706WAT     H192360   7.561   3.920   2.831
30706WAT     H292361   7.534   3.862   2.681
30707WAT      O92362   4.334   5.552   3.804
30707WAT     H192363   4.418   5.498   3.793
30707WAT     H292364   4.316   5.566   3.902
30708WAT      O92365   6.185   2.120   8.288
30708WAT     H192366   6.161   2.181   8.212
30708WAT     H292367   6.219   2.033   8.252
30709WAT      O92368   3.699   0.602   9.499
30709WAT     H192369   3.732   0.644   9.584
30709WAT     H292370   3.679   0.673   9.432
30710WAT      O92371   2.240   2.898   3.751
30710WAT     H192372   2.191   2.829   3.803
30710WAT     H292373   2.337   2.876   3.749
30711WAT      O92374   8.557   8.847   1.641
30711WAT     H192375   8.608   8.929   1.666
30711WAT     H292376   8.554   8.784   1.719
30712WAT      O92377   8.197   0.136   3.174
30712WAT     H192378   8.226   0.220   3.220
30712WAT     H292379   8.164   0.159   3.082
30713WAT      O92380   3.747   4.390   1.487
30713WAT     H192381   3.683   4.373   1.412
30713WAT     H292382   3.749   4.310   1.547
30714WAT      O92383   6.554   7.890   7.286
30714WAT     H192384   6.509   7.802   7.296
30714WAT     H292385   6.501   7.948   7.224
30715WAT      O92386   7.240   5.643   2.241
30715WAT     H192387   7.169   5.580   2.273
30715WAT     H292388   7.197   5.724   2.202
30716WAT      O92389   0.602   7.586   4.175
30716WAT     H192390   0.581   7.625   4.265
30716WAT     H292391   0.629   7.659   4.113
30717WAT      O92392   7.703   9.524   2.453
30717WAT     H192393   7.743   9.544   2.542
30717WAT     H292394   7.762   9.460   2.404
30718WAT      O92395   0.786   8.804   5.296
30718WAT     H192396   0.703   8.792   5.241
30718WAT     H292397   0.764   8.855   5.379
30719WAT      O92398   6.283   4.434   7.804
30719WAT     H192399   6.217   4.385   7.860
30719WAT     H292400   6.355   4.472   7.862
30720WAT      O92401   6.174   2.549   7.020
30720WAT     H192402   6.223   2.502   6.946
30720WAT     H292403   6.093   2.594   6.983
30721WAT      O92404   7.708   1.082   4.767
30721WAT     H192405   7.669   0.990   4.763
30721WAT     H292406   7.705   1.124   4.676
30722WAT      O92407   1.166   1.026   0.798
30722WAT     H192408   1.087   0.972   0.769
30722WAT     H292409   1.228   1.040   0.721
30723WAT      O92410   3.379   0.117   3.770
30723WAT     H192411   3.412   0.136   3.677
30723WAT     H292412   3.431   0.173   3.835
30724WAT      O92413   5.650   9.612   7.855
30724WAT     H192414   5.628   9.709   7.840
30724WAT     H292415   5.673   9.569   7.768
30725WAT      O92416   0.064   6.520   4.079
30725WAT     H192417   0.101   6.479   3.996
30725WAT     H292418   0.070   6.454   4.154
30726WAT      O92419   8.666   4.130   6.472
30726WAT     H192420   8.688   4.181   6.555
30726WAT     H292421   8.568   4.109   6.471
30727WAT      O92422   0.573   1.532   3.876
30727WAT     H192423   0.508   1.546   3.951
30727WAT     H292424   0.591   1.434   3.866
30728WAT      O92425   3.387   1.490   2.676
30728WAT     H192426   3.402   1.395   2.702
30728WAT     H292427   3.474   1.531   2.649
30729WAT      O92428   9.544   0.143   4.612
30729WAT     H192429   9.474   0.094   4.560
30729WAT     H292430   9.598   0.200   4.550
30730WAT      O92431   5.765   0.709   7.479
30730WAT     H192432   5.768   0.610   7.462
30730WAT     H292433   5.812   0.757   7.404
30731WAT      O92434   6.764   8.574   8.980
30731WAT     H192435   6.788   8.535   8.892
30731WAT     H292436   6.780   8.506   9.052
30732WAT      O92437   5.908   8.722   4.219
30732WAT     H192438   5.932   8.691   4.311
30732WAT     H292439   5.851   8.804   4.226
30733WAT      O92440   7.899   8.427   1.390
30733WAT     H192441   7.860   8.377   1.467
30733WAT     H292442   7.879   8.379   1.305
30734WAT      O92443   9.108   1.049   2.515
30734WAT     H192444   9.113   1.001   2.428
30734WAT     H292445   9.065   0.991   2.584
30735WAT      O92446   7.481   8.459   0.748
30735WAT     H192447   7.384   8.441   0.735
30735WAT     H292448   7.502   8.552   0.717
30736WAT      O92449   7.594   2.796   2.094
30736WAT     H192450   7.580   2.796   1.995
30736WAT     H292451   7.686   2.829   2.115
30737WAT      O92452   2.007   5.004   8.294
30737WAT     H192453   1.926   5.060   8.310
30737WAT     H292454   1.981   4.921   8.244
30738WAT      O92455   7.874   4.658   4.570
30738WAT     H192456   7.920   4.609   4.644
30738WAT     H292457   7.913   4.750   4.562
30739WAT      O92458   5.089   2.730   7.984
30739WAT     H192459   5.178   2.728   7.939
30739WAT     H292460   5.031   2.798   7.940
30740WAT      O92461   0.875   5.865   0.648
30740WAT     H192462   0.844   5.924   0.574
30740WAT     H292463   0.822   5.780   0.648
30741WAT      O92464   6.370   0.127   8.305
30741WAT     H192465   6.287   0.082   8.270
30741WAT     H292466   6.383   0.213   8.257
30742WAT      O92467   0.603   0.129   8.842
30742WAT     H192468   0.562   0.221   8.842
30742WAT     H292469   0.537   0.064   8.805
30743WAT      O92470   6.175   8.903   2.382
30743WAT     H192471   6.114   8.980   2.398
30743WAT     H292472   6.249   8.932   2.321
30744WAT      O92473   7.874   9.060   5.773
30744WAT     H192474   7.839   9.100   5.689
30744WAT     H292475   7.962   9.016   5.755
30745WAT      O92476   2.803   3.252   1.592
30745WAT     H192477   2.783   3.193   1.515
30745WAT     H292478   2.723   3.310   1.611
30746WAT      O92479   2.757   0.628   8.341
30746WAT     H192480   2.676   0.629   8.399
30746WAT     H292481   2.782   0.722   8.318
30747WAT      O92482   5.965   9.452   8.068
30747WAT     H192483   6.007   9.425   8.155
30747WAT     H292484   5.963   9.552   8.063
30748WAT      O92485   5.208   9.714   6.110
30748WAT     H192486   5.211   9.684   6.205
30748WAT     H292487   5.244   9.806   6.102
30749WAT      O92488   7.265   7.926   5.023
30749WAT     H192489   7.335   7.934   4.952
30749WAT     H292490   7.248   7.830   5.041
30750WAT      O92491   0.549   1.895   8.155
30750WAT     H192492   0.602   1.812   8.173
30750WAT     H292493   0.612   1.970   8.133
30751WAT      O92494   2.087   5.391   6.421
30751WAT     H192495   1.997   5.372   6.382
30751WAT     H292496   2.135   5.457   6.364
30752WAT      O92497   5.283   9.100   5.005
30752WAT     H192498   5.212   9.134   4.944
30752WAT     H292499   5.240   9.048   5.080
30753WAT      O92500   3.860   5.458   1.785
30753WAT     H192501   3.943   5.409   1.758
30753WAT     H292502   3.881   5.554   1.799
30754WAT      O92503   9.467   2.264   4.929
30754WAT     H192504   9.414   2.251   5.013
30754WAT     H292505   9.561   2.290   4.953
30755WAT      O92506   4.484   6.615   0.520
30755WAT     H192507   4.518   6.662   0.438
30755WAT     H292508   4.545   6.634   0.597
30756WAT      O92509   9.262   9.744   7.431
30756WAT     H192510   9.330   9.814   7.453
30756WAT     H292511   9.294   9.655   7.463
30757WAT      O92512   0.686   6.355   8.769
30757WAT     H192513   0.741   6.297   8.829
30757WAT     H292514   0.617   6.299   8.722
30758WAT      O92515   4.564   4.517   5.792
30758WAT     H192516   4.533   4.452   5.723
30758WAT     H292517   4.663   4.523   5.789
30759WAT      O92518   3.377   7.591   2.196
30759WAT     H192519   3.387   7.654   2.273
30759WAT     H292520   3.378   7.497   2.230
30760WAT      O92521   5.742   6.322   1.818
30760WAT     H192522   5.781   6.383   1.886
30760WAT     H292523   5.643   6.314   1.833
30761WAT      O92524   3.033   4.041   6.103
30761WAT     H192525   3.033   4.001   6.195
30761WAT     H292526   3.097   4.117   6.100
30762WAT      O92527   1.486   3.844   4.256
30762WAT     H192528   1.467   3.935   4.218
30762WAT     H292529   1.475   3.847   4.356
30763WAT      O92530   2.864   7.919   8.333
30763WAT     H192531   2.912   7.926   8.246
30763WAT     H292532   2.783   7.861   8.321
30764WAT      O92533   4.613   4.531   2.578
30764WAT     H192534   4.556   4.452   2.555
30764WAT     H292535   4.584   4.569   2.666
30765WAT      O92536   9.367   6.084   8.931
30765WAT     H192537   9.371   5.995   8.977
30765WAT     H292538   9.386   6.073   8.834
30766WAT      O92539   3.341   4.160   9.660
30766WAT     H192540   3.399   4.081   9.680
30766WAT     H292541   3.255   4.152   9.710
30767WAT      O92542   4.822   3.879   8.413
30767WAT     H192543   4.849   3.801   8.469
30767WAT     H292544   4.725   3.897   8.426
30768WAT      O92545   6.210   7.668   4.127
30768WAT     H192546   6.222   7.759   4.087
30768WAT     H292547   6.151   7.674   4.207
30769WAT      O92548   0.130   7.284   8.315
30769WAT     H192549   0.090   7.229   8.389
30769WAT     H292550   0.186   7.225   8.257
30770WAT      O92551   7.738   2.916   8.513
30770WAT     H192552   7.755   2.971   8.595
30770WAT     H292553   7.662   2.955   8.461
30771WAT      O92554   5.638   7.866   5.039
30771WAT     H192555   5.628   7.820   4.950
30771WAT     H292556   5.549   7.893   5.073
30772WAT      O92557   0.851   7.085   1.960
30772WAT     H192558   0.817   7.179   1.954
30772WAT     H292559   0.938   7.085   2.010
30773WAT      O92560   5.716   4.782   8.501
30773WAT     H192561   5.657   4.756   8.578
30773WAT     H292562   5.761   4.701   8.464
30774WAT      O92563   3.600   4.834   9.519
30774WAT     H192564   3.630   4.926   9.491
30774WAT     H292565   3.571   4.836   9.615
30775WAT      O92566   2.868   0.439   0.112
30775WAT     H192567   2.920   0.518   0.145
30775WAT     H292568   2.856   0.446   0.013
30776WAT      O92569   1.021   8.053   6.846
30776WAT     H192570   1.060   8.137   6.883
30776WAT     H292571   1.093   8.001   6.799
30777WAT      O92572   3.010   1.859   8.819
30777WAT     H192573   2.922   1.812   8.808
30777WAT     H292574   3.043   1.890   8.730
30778WAT      O92575   5.810   7.825   9.754
30778WAT     H192576   5.869   7.891   9.708
30778WAT     H292577   5.807   7.740   9.701
30779WAT      O92578   5.423   4.341   9.183
30779WAT     H192579   5.513   4.357   9.225
30779WAT     H292580   5.391   4.250   9.208
30780WAT      O92581   8.103   3.689   1.306
30780WAT     H192582   8.014   3.723   1.338
30780WAT     H292583   8.150   3.762   1.257
30781WAT      O92584   6.678   5.797   1.910
30781WAT     H192585   6.688   5.896   1.899
30781WAT     H292586   6.767   5.753   1.895
30782WAT      O92587   3.877   7.564   1.824
30782WAT     H192588   3.885   7.621   1.905
30782WAT     H292589   3.847   7.472   1.851
30783WAT      O92590   1.069   2.459   8.858
30783WAT     H192591   1.071   2.365   8.824
30783WAT     H292592   0.980   2.501   8.836
30784WAT      O92593   8.575   6.235   1.322
30784WAT     H192594   8.660   6.186   1.340
30784WAT     H292595   8.594   6.322   1.277
30785WAT      O92596   2.842   7.806   5.955
30785WAT     H192597   2.888   7.732   6.005
30785WAT     H292598   2.902   7.885   5.948
30786WAT      O92599   7.614   5.582   6.729
30786WAT     H192600   7.580   5.659   6.783
30786WAT     H292601   7.638   5.507   6.791
30787WAT      O92602   5.440   1.406   9.260
30787WAT     H192603   5.393   1.339   9.202
30787WAT     H292604   5.384   1.488   9.269
30788WAT      O92605   8.405   6.361   3.297
30788WAT     H192606   8.311   6.350   3.265
30788WAT     H292607   8.443   6.447   3.263
30789WAT      O92608   1.979   7.555   9.740
30789WAT     H192609   1.970   7.650   9.710
30789WAT     H292610   2.070   7.521   9.717
30790WAT      O92611   0.248   1.440   5.966
30790WAT     H192612   0.261   1.488   5.879
30790WAT     H292613   0.151   1.443   5.991
30791WAT      O92614   2.247   0.172   2.544
30791WAT     H192615   2.186   0.235   2.593
30791WAT     H292616   2.253   0.086   2.595
30792WAT      O92617   8.070   8.108   5.567
30792WAT     H192618   8.170   8.101   5.572
30792WAT     H292619   8.030   8.069   5.650
30793WAT      O92620   9.490   9.543   9.447
30793WAT     H192621   9.544   9.462   9.472
30793WAT     H292622   9.452   9.584   9.529
30794WAT      O92623   3.450   6.801   6.737
30794WAT     H192624   3.534   6.820   6.789
30794WAT     H292625   3.473   6.750   6.654
30795WAT      O92626   1.504   1.956   5.611
30795WAT     H192627   1.419   2.006   5.597
30795WAT     H292628   1.492   1.891   5.686
30796WAT      O92629   7.335   6.939   0.341
30796WAT     H192630   7.351   7.038   0.346
30796WAT     H292631   7.406   6.897   0.283
30797WAT      O92632   3.895   1.625   6.437
30797WAT     H192633   3.878   1.664   6.528
30797WAT     H292634   3.810   1.590   6.399
30798WAT      O92635   7.090   0.718   2.947
30798WAT     H192636   7.053   0.792   3.003
30798WAT     H292637   7.150   0.755   2.877
30799WAT      O92638   2.972   1.147   9.729
30799WAT     H192639   3.002   1.057   9.761
30799WAT     H292640   2.872   1.153   9.733
30800WAT      O92641   6.363   0.226   2.657
30800WAT     H192642   6.312   0.305   2.690
30800WAT     H292643   6.412   0.250   2.573
30801WAT      O92644   9.005   3.170   1.316
30801WAT     H192645   9.026   3.135   1.407
30801WAT     H292646   9.088   3.172   1.260
30802WAT      O92647   0.400   1.792   1.354
30802WAT     H192648   0.421   1.866   1.290
30802WAT     H292649   0.437   1.815   1.445
30803WAT      O92650   4.390   5.869   9.654
30803WAT     H192651   4.301   5.839   9.687
30803WAT     H292652   4.419   5.811   9.577
30804WAT      O92653   0.023   0.601   6.708
30804WAT     H192654  -0.042   0.639   6.774
30804WAT     H292655  -0.008   0.511   6.678
30805WAT      O92656   7.829   0.378   8.153
30805WAT     H192657   7.845   0.279   8.148
30805WAT     H292658   7.916   0.426   8.164
30806WAT      O92659   6.971   9.276   3.109
30806WAT     H192660   6.962   9.361   3.162
30806WAT     H292661   6.880   9.234   3.098
30807WAT      O92662   7.040   8.676   5.519
30807WAT     H192663   7.046   8.673   5.619
30807WAT     H292664   7.120   8.633   5.479
30808WAT      O92665   7.511   5.166   0.950
30808WAT     H192666   7.434   5.178   0.888
30808WAT     H292667   7.591   5.213   0.914
30809WAT      O92668   4.090   6.741   8.850
30809WAT     H192669   4.171   6.682   8.854
30809WAT     H292670   4.107   6.823   8.904
30810WAT      O92671   7.140   8.098   3.631
30810WAT     H192672   7.125   8.009   3.589
30810WAT     H292673   7.229   8.099   3.677
30811WAT      O92674   9.650   6.180   0.846
30811WAT     H192675   9.590   6.259   0.845
30811WAT     H292676   9.661   6.147   0.940
30812WAT      O92677   6.270   6.497   1.978
30812WAT     H192678   6.212   6.576   1.996
30812WAT     H292679   6.251   6.425   2.045
30813WAT      O92680   6.486   3.691   6.354
30813WAT     H192681   6.476   3.624   6.280
30813WAT     H292682   6.540   3.768   6.322
30814WAT      O92683   3.798   6.871   3.522
30814WAT     H192684   3.798   6.849   3.620
30814WAT     H292685   3.745   6.803   3.472
30815WAT      O92686   7.330   0.143   3.185
30815WAT     H192687   7.369   0.137   3.093
30815WAT     H292688   7.304   0.052   3.216
30816WAT      O92689   4.506   2.446   6.176
30816WAT     H192690   4.554   2.530   6.202
30816WAT     H292691   4.564   2.391   6.116
30817WAT      O92692   4.245   4.979   7.085
30817WAT     H192693   4.195   5.048   7.033
30817WAT     H292694   4.239   4.891   7.040
30818WAT      O92695   0.764   9.226   7.306
30818WAT     H192696   0.748   9.319   7.275
30818WAT     H292697   0.860   9.215   7.330
30819WAT      O92698   0.761   9.283   3.597
30819WAT     H192699   0.695   9.357   3.586
30819WAT     H292700   0.802   9.262   3.508
30820WAT      O92701   2.825   5.023   9.726
30820WAT     H192702   2.802   4.979   9.639
30820WAT     H292703   2.750   5.008   9.791
30821WAT      O92704   3.961   6.899   2.379
30821WAT     H192705   3.898   6.976   2.368
30821WAT     H292706   3.915   6.825   2.428
30822WAT      O92707   7.632   0.508   5.240
30822WAT     H192708   7.590   0.594   5.270
30822WAT     H292709   7.721   0.497   5.284
30823WAT      O92710   6.795   5.718   5.634
30823WAT     H192711   6.782   5.811   5.600
30823WAT     H292712   6.710   5.666   5.621
30824WAT      O92713   7.851   9.567   7.570
30824WAT     H192714   7.858   9.626   7.489
30824WAT     H292715   7.767   9.514   7.565
30825WAT      O92716   1.803   4.033   3.670
30825WAT     H192717   1.883   3.974   3.682
30825WAT     H292718   1.734   4.010   3.739
30826WAT      O92719   9.063   3.741   4.796
30826WAT     H192720   9.044   3.839   4.791
30826WAT     H292721   9.021   3.703   4.879
30827WAT      O92722   6.936   3.907   3.545
30827WAT     H192723   6.858   3.961   3.576
30827WAT     H292724   6.985   3.956   3.473
30828WAT      O92725   0.498   0.101   2.177
30828WAT     H192726   0.547   0.065   2.256
30828WAT     H292727   0.414   0.146   2.207
30829WAT      O92728   4.342   8.901   5.546
30829WAT     H192729   4.377   8.867   5.459
30829WAT     H292730   4.269   8.841   5.579
30830WAT      O92731   2.663   3.618   3.007
30830WAT     H192732   2.678   3.577   3.096
30830WAT     H292733   2.714   3.567   2.937
30831WAT      O92734   7.669   1.490   5.761
30831WAT     H192735   7.675   1.533   5.671
30831WAT     H292736   7.745   1.426   5.774
30832WAT      O92737   0.565   8.855   8.083
30832WAT     H192738   0.585   8.800   8.164
30832WAT     H292739   0.517   8.798   8.016
30833WAT      O92740   7.400   9.283   2.127
30833WAT     H192741   7.480   9.342   2.133
30833WAT     H292742   7.394   9.227   2.209
30834WAT      O92743   6.114   9.801   4.626
30834WAT     H192744   6.178   9.784   4.701
30834WAT     H292745   6.105   9.719   4.571
30835WAT      O92746   9.773   8.690   5.340
30835WAT     H192747   9.854   8.658   5.388
30835WAT     H292748   9.714   8.612   5.317
30836WAT      O92749   1.781   1.641   1.397
30836WAT     H192750   1.778   1.734   1.360
30836WAT     H292751   1.723   1.582   1.341
30837WAT      O92752   9.382   1.002   2.684
30837WAT     H192753   9.429   1.080   2.642
30837WAT     H292754   9.283   1.015   2.674
30838WAT      O92755   1.924   8.262   5.868
30838WAT     H192756   1.916   8.331   5.939
30838WAT     H292757   1.952   8.175   5.909
30839WAT      O92758   0.011   1.840   4.537
30839WAT     H192759  -0.059   1.776   4.502
30839WAT     H292760   0.067   1.794   4.606
30840WAT      O92761   4.141   4.194   6.023
30840WAT     H192762   4.094   4.123   6.076
30840WAT     H292763   4.107   4.284   6.050
30841WAT      O92764   3.715   8.210   7.583
30841WAT     H192765   3.706   8.309   7.593
30841WAT     H292766   3.710   8.186   7.486
30842WAT      O92767   6.661   4.524   6.151
30842WAT     H192768   6.648   4.447   6.089
30842WAT     H292769   6.573   4.567   6.169
30843WAT      O92770   0.229   1.643   6.352
30843WAT     H192771   0.261   1.699   6.276
30843WAT     H292772   0.305   1.589   6.388
30844WAT      O92773   7.545   0.900   6.992
30844WAT     H192774   7.576   0.816   6.947
30844WAT     H292775   7.616   0.933   7.055
30845WAT      O92776   7.364   4.650   3.146
30845WAT     H192777   7.313   4.667   3.231
30845WAT     H292778   7.400   4.557   3.147
30846WAT      O92779   2.385   8.255   0.656
30846WAT     H192780   2.355   8.332   0.712
30846WAT     H292781   2.427   8.186   0.715
30847WAT      O92782   0.536   0.686   8.257
30847WAT     H192783   0.478   0.767   8.250
30847WAT     H292784   0.514   0.636   8.341
30848WAT      O92785   8.326   0.440   8.367
30848WAT     H192786   8.371   0.426   8.455
30848WAT     H292787   8.245   0.498   8.379
30849WAT      O92788   2.279   9.367   5.661
30849WAT     H192789   2.353   9.379   5.728
30849WAT     H292790   2.296   9.426   5.582
30850WAT      O92791   5.092   1.382   2.215
30850WAT     H192792   4.996   1.410   2.206
30850WAT     H292793   5.100   1.284   2.200
30851WAT      O92794   8.939   9.012   6.240
30851WAT     H192795   8.892   9.046   6.322
30851WAT     H292796   8.993   8.931   6.264
30852WAT      O92797   9.859   6.475   5.069
30852WAT     H192798   9.934   6.516   5.120
30852WAT     H292799   9.772   6.495   5.114
30853WAT      O92800   6.914   3.379   5.971
30853WAT     H192801   6.947   3.304   6.028
30853WAT     H292802   6.830   3.416   6.011
30854WAT      O92803   6.852   9.436   0.082
30854WAT     H192804   6.933   9.384   0.111
30854WAT     H292805   6.811   9.391   0.003
30855WAT      O92806   9.148   5.888   3.841
30855WAT     H192807   9.130   5.883   3.743
30855WAT     H292808   9.246   5.898   3.857
30856WAT      O92809   5.284   8.320   7.892
30856WAT     H192810   5.206   8.287   7.841
30856WAT     H292811   5.291   8.420   7.883
30857WAT      O92812   8.383   3.985   7.771
30857WAT     H192813   8.472   3.966   7.812
30857WAT     H292814   8.310   3.958   7.834
30858WAT      O92815   2.372   7.302   0.240
30858WAT     H192816   2.417   7.386   0.270
30858WAT     H292817   2.401   7.226   0.299
30859WAT      O92818   5.011   4.664   4.078
30859WAT     H192819   4.914   4.643   4.067
30859WAT     H292820   5.024   4.763   4.077
30860WAT      O92821   7.516   8.771   1.427
30860WAT     H192822   7.552   8.812   1.511
30860WAT     H292823   7.423   8.804   1.410
30861WAT      O92824   6.066   7.188   7.031
30861WAT     H192825   6.107   7.266   6.983
30861WAT     H292826   6.076   7.106   6.975
30862WAT      O92827   3.925   1.857   7.610
30862WAT     H192828   3.972   1.924   7.667
30862WAT     H292829   3.886   1.902   7.530
30863WAT      O92830   3.820   0.479   2.722
30863WAT     H192831   3.809   0.420   2.802
30863WAT     H292832   3.917   0.498   2.708
30864WAT      O92833   1.116   8.729   3.699
30864WAT     H192834   1.147   8.687   3.613
30864WAT     H292835   1.085   8.823   3.680
30865WAT      O92836   3.219   9.667   7.553
30865WAT     H192837   3.190   9.757   7.522
30865WAT     H292838   3.139   9.609   7.570
30866WAT      O92839   6.679   4.404   7.371
30866WAT     H192840   6.765   4.361   7.342
30866WAT     H292841   6.671   4.494   7.329
30867WAT      O92842   6.941   8.418   5.175
30867WAT     H192843   7.021   8.403   5.116
30867WAT     H292844   6.861   8.372   5.135
30868WAT      O92845   7.470   0.186   0.461
30868WAT     H192846   7.443   0.118   0.393
30868WAT     H292847   7.517   0.140   0.537
30869WAT      O92848   2.971   3.947   6.418
30869WAT     H192849   2.890   3.960   6.475
30869WAT     H292850   3.026   3.872   6.455
30870WAT      O92851   2.541   6.459   1.242
30870WAT     H192852   2.478   6.389   1.276
30870WAT     H292853   2.538   6.539   1.302
30871WAT      O92854   0.371   4.090   8.150
30871WAT     H192855   0.407   4.011   8.100
30871WAT     H292856   0.385   4.173   8.096
30872WAT      O92857   4.632   7.245   1.329
30872WAT     H192858   4.589   7.315   1.386
30872WAT     H292859   4.717   7.282   1.290
30873WAT      O92860   5.730   1.752   3.852
30873WAT     H192861   5.765   1.750   3.945
30873WAT     H292862   5.754   1.667   3.805
30874WAT      O92863   4.732   4.255   4.378
30874WAT     H192864   4.726   4.202   4.293
30874WAT     H292865   4.783   4.339   4.361
30875WAT      O92866   3.098   7.565   0.323
30875WAT     H192867   3.048   7.625   0.386
30875WAT     H292868   3.194   7.594   0.320
30876WAT      O92869   0.367   7.357   9.128
30876WAT     H192870   0.464   7.356   9.151
30876WAT     H292871   0.332   7.264   9.127
30877WAT      O92872   5.535   6.777   6.259
30877WAT     H192873   5.612   6.713   6.255
30877WAT     H292874   5.569   6.870   6.248
30878WAT      O92875   3.278   5.621   4.744
30878WAT     H192876   3.244   5.534   4.708
30878WAT     H292877   3.358   5.604   4.802
30879WAT      O92878   6.192   2.551   0.619
30879WAT     H192879   6.198   2.614   0.542
30879WAT     H292880   6.198   2.603   0.705
30880WAT      O92881   8.128   1.288   2.091
30880WAT     H192882   8.216   1.244   2.106
30880WAT     H292883   8.141   1.386   2.076
30881WAT      O92884   1.215   3.691   7.006
30881WAT     H192885   1.235   3.624   6.935
30881WAT     H292886   1.158   3.649   7.077
30882WAT      O92887   2.400   1.505   5.424
30882WAT     H192888   2.312   1.489   5.468
30882WAT     H292889   2.445   1.418   5.403
30883WAT      O92890   4.044   6.214   8.358
30883WAT     H192891   4.122   6.243   8.414
30883WAT     H292892   3.960   6.250   8.396
30884WAT      O92893   5.589   2.708   5.807
30884WAT     H192894   5.498   2.688   5.841
30884WAT     H292895   5.592   2.802   5.771
30885WAT      O92896   3.182   4.473   9.802
30885WAT     H192897   3.274   4.509   9.786
30885WAT     H292898   3.116   4.547   9.797
30886WAT      O92899   1.599   7.626   7.398
30886WAT     H192900   1.559   7.581   7.318
30886WAT     H292901   1.542   7.608   7.478
30887WAT      O92902   6.126   0.016   8.275
30887WAT     H192903   6.067  -0.063   8.292
30887WAT     H292904   6.070   0.098   8.267
30888WAT      O92905   4.943   6.898   6.405
30888WAT     H192906   4.850   6.914   6.439
30888WAT     H292907   4.961   6.958   6.326
30889WAT      O92908   0.491   3.440   1.494
30889WAT     H192909   0.430   3.470   1.420
30889WAT     H292910   0.453   3.469   1.582
30890WAT      O92911   5.837   4.829   7.157
30890WAT     H192912   5.863   4.756   7.095
30890WAT     H292913   5.839   4.795   7.251
30891WAT      O92914   8.950   6.116   9.844
30891WAT     H192915   8.950   6.090   9.940
30891WAT     H292916   8.983   6.210   9.835
30892WAT      O92917   7.591   9.703   2.299
30892WAT     H192918   7.663   9.771   2.286
30892WAT     H292919   7.621   9.635   2.366
30893WAT      O92920   6.281   3.611   8.518
30893WAT     H192921   6.227   3.606   8.434
30893WAT     H292922   6.228   3.574   8.594
30894WAT      O92923   2.280   7.673   8.757
30894WAT     H192924   2.318   7.754   8.713
30894WAT     H292925   2.275   7.598   8.691
30895WAT      O92926   5.824   6.908   2.088
30895WAT     H192927   5.857   6.896   1.995
30895WAT     H292928   5.837   6.823   2.139
30896WAT      O92929   8.748   3.557   9.263
30896WAT     H192930   8.679   3.612   9.309
30896WAT     H292931   8.758   3.589   9.169
30897WAT      O92932   9.044   4.602   7.362
30897WAT     H192933   9.035   4.553   7.275
30897WAT     H292934   8.956   4.600   7.410
30898WAT      O92935   1.557   2.990   7.785
30898WAT     H192936   1.523   3.081   7.763
30898WAT     H292937   1.625   2.963   7.717
30899WAT      O92938   0.132   6.541   5.320
30899WAT     H192939   0.162   6.619   5.265
30899WAT     H292940   0.067   6.571   5.389
30900WAT      O92941   7.914   0.523   5.897
30900WAT     H192942   7.898   0.612   5.941
30900WAT     H292943   7.957   0.461   5.963
30901WAT      O92944   1.606   4.611   0.676
30901WAT     H192945   1.507   4.624   0.684
30901WAT     H292946   1.639   4.660   0.595
30902WAT      O92947   2.358   7.829   1.901
30902WAT     H192948   2.366   7.823   1.801
30902WAT     H292949   2.291   7.900   1.924
30903WAT      O92950   1.394   8.310   3.698
30903WAT     H192951   1.385   8.340   3.603
30903WAT     H292952   1.490   8.315   3.725
30904WAT      O92953   9.779   2.135   5.479
30904WAT     H192954   9.761   2.044   5.440
30904WAT     H292955   9.877   2.149   5.487
30905WAT      O92956   6.992   5.309   1.374
30905WAT     H192957   6.972   5.286   1.278
30905WAT     H292958   7.026   5.227   1.421
30906WAT      O92959   0.779   5.196   7.567
30906WAT     H192960   0.782   5.107   7.613
30906WAT     H292961   0.812   5.186   7.473
30907WAT      O92962   1.876   8.701   3.892
30907WAT     H192963   1.830   8.673   3.977
30907WAT     H292964   1.812   8.753   3.835
30908WAT      O92965   5.461   0.368   5.837
30908WAT     H192966   5.533   0.378   5.768
30908WAT     H292967   5.489   0.300   5.905
30909WAT      O92968   8.132   8.688   3.550
30909WAT     H192969   8.226   8.723   3.547
30909WAT     H292970   8.105   8.659   3.458
30910WAT      O92971   7.094   4.158   2.843
30910WAT     H192972   7.010   4.205   2.817
30910WAT     H292973   7.145   4.134   2.761
30911WAT      O92974   7.767   5.241   2.327
30911WAT     H192975   7.857   5.260   2.366
30911WAT     H292976   7.712   5.191   2.394
30912WAT      O92977   2.944   0.157   0.128
30912WAT     H192978   2.931   0.256   0.123
30912WAT     H292979   2.899   0.114   0.049
30913WAT      O92980   3.695   0.991   3.022
30913WAT     H192981   3.759   0.915   3.013
30913WAT     H292982   3.684   1.036   2.933
30914WAT      O92983   2.321   0.439   5.823
30914WAT     H192984   2.309   0.537   5.810
30914WAT     H292985   2.414   0.420   5.854
30915WAT      O92986   2.054   0.952   8.354
30915WAT     H192987   2.069   0.908   8.442
30915WAT     H292988   1.994   0.894   8.298
30916WAT      O92989   9.118   8.914   7.134
30916WAT     H192990   9.155   8.988   7.077
30916WAT     H292991   9.107   8.947   7.228
30917WAT      O92992   5.827   2.080   5.481
30917WAT     H192993   5.747   2.066   5.423
30917WAT     H292994   5.800   2.070   5.577
30918WAT      O92995   3.652   7.132   5.155
30918WAT     H192996   3.655   7.138   5.055
30918WAT     H292997   3.620   7.041   5.182
30919WAT      O92998   1.586   0.387   2.414
30919WAT     H192999   1.585   0.389   2.514
30919WAT     H293000   1.680   0.381   2.381
30920WAT      O93001   5.107   0.878   0.473
30920WAT     H193002   5.086   0.783   0.495
30920WAT     H293003   5.083   0.936   0.551
30921WAT      O93004   6.740   0.875   0.811
30921WAT     H193005   6.643   0.867   0.834
30921WAT     H293006   6.795   0.827   0.879
30922WAT      O93007   0.302   1.371   3.877
30922WAT     H193008   0.287   1.433   3.800
30922WAT     H293009   0.393   1.330   3.869
30923WAT      O93010   5.081   4.845   4.757
30923WAT     H193011   5.156   4.868   4.695
30923WAT     H293012   5.117   4.799   4.838
30924WAT      O93013   7.833   6.738   4.501
30924WAT     H193014   7.877   6.717   4.414
30924WAT     H293015   7.737   6.759   4.486
30925WAT      O93016   0.654   7.043   2.405
30925WAT     H193017   0.694   6.954   2.386
30925WAT     H293018   0.562   7.047   2.367
30926WAT      O93019   4.159   9.585   1.813
30926WAT     H193020   4.088   9.531   1.858
30926WAT     H293021   4.247   9.567   1.858
30927WAT      O93022   0.576   0.880   1.305
30927WAT     H193023   0.668   0.846   1.327
30927WAT     H293024   0.514   0.862   1.381
30928WAT      O93025   5.872   9.081   4.495
30928WAT     H193026   5.808   9.134   4.551
30928WAT     H293027   5.966   9.111   4.517
30929WAT      O93028   2.581   8.707   2.855
30929WAT     H193029   2.571   8.633   2.789
30929WAT     H293030   2.495   8.759   2.860
30930WAT      O93031   6.017   3.061   4.676
30930WAT     H193032   6.004   3.121   4.597
30930WAT     H293033   5.939   2.999   4.684
30931WAT      O93034   7.978   9.432   3.636
30931WAT     H193035   7.994   9.486   3.553
30931WAT     H293036   7.881   9.440   3.662
30932WAT      O93037   2.549   4.554   9.304
30932WAT     H193038   2.641   4.553   9.343
30932WAT     H293039   2.485   4.594   9.370
30933WAT      O93040   7.848   5.161   0.843
30933WAT     H193041   7.777   5.092   0.853
30933WAT     H293042   7.813   5.251   0.870
30934WAT      O93043   4.891   2.137   7.656
30934WAT     H193044   4.864   2.082   7.577
30934WAT     H293045   4.811   2.157   7.712
30935WAT      O93046   5.993   8.007   5.251
30935WAT     H193047   6.027   7.933   5.309
30935WAT     H293048   5.947   8.075   5.308
30936WAT      O93049   7.552   6.767   5.950
30936WAT     H193050   7.619   6.799   5.883
30936WAT     H293051   7.484   6.710   5.905
30937WAT      O93052   7.588   6.174   0.813
30937WAT     H193053   7.524   6.236   0.769
30937WAT     H293054   7.659   6.148   0.748
30938WAT      O93055   6.694   4.908   6.088
30938WAT     H193056   6.692   4.839   6.016
30938WAT     H293057   6.651   4.871   6.171
30939WAT      O93058   0.235   4.313   6.857
30939WAT     H193059   0.166   4.284   6.790
30939WAT     H293060   0.256   4.409   6.843
30940WAT      O93061   4.007   2.638   7.223
30940WAT     H193062   3.997   2.576   7.302
30940WAT     H293063   3.917   2.660   7.187
30941WAT      O93064   9.775   8.482   8.437
30941WAT     H193065   9.790   8.565   8.489
30941WAT     H293066   9.772   8.504   8.339
30942WAT      O93067   9.581   6.968   4.806
30942WAT     H193068   9.544   6.875   4.808
30942WAT     H293069   9.526   7.024   4.745
30943WAT      O93070   1.169   6.056   0.517
30943WAT     H193071   1.195   5.969   0.475
30943WAT     H293072   1.126   6.039   0.605
30944WAT      O93073   2.513   5.652   6.267
30944WAT     H193074   2.576   5.583   6.232
30944WAT     H293075   2.550   5.691   6.352
30945WAT      O93076   6.859   1.945   4.931
30945WAT     H193077   6.834   1.913   5.022
30945WAT     H293078   6.822   2.037   4.916
30946WAT      O93079   1.743   5.760   8.353
30946WAT     H193080   1.842   5.744   8.359
30946WAT     H293081   1.700   5.727   8.437
30947WAT      O93082   1.521   1.927   7.997
30947WAT     H193083   1.531   1.847   7.938
30947WAT     H293084   1.466   1.996   7.950
30948WAT      O93085   6.211   9.192   7.836
30948WAT     H193086   6.263   9.112   7.866
30948WAT     H293087   6.203   9.256   7.912
30949WAT      O93088   7.216   7.959   7.129
30949WAT     H193089   7.298   7.925   7.083
30949WAT     H293090   7.238   7.978   7.225
30950WAT      O93091   3.810   0.348   2.408
30950WAT     H193092   3.792   0.355   2.309
30950WAT     H293093   3.828   0.439   2.445
30951WAT      O93094   4.711   5.534   6.679
30951WAT     H193095   4.640   5.604   6.688
30951WAT     H293096   4.799   5.577   6.659
30952WAT      O93097   0.596   5.234   6.212
30952WAT     H193098   0.648   5.148   6.210
30952WAT     H293099   0.615   5.283   6.297
30953WAT      O93100   3.818   1.301   0.680
30953WAT     H193101   3.884   1.306   0.756
30953WAT     H293102   3.858   1.249   0.605
30954WAT      O93103   7.858   0.654   2.345
30954WAT     H193104   7.810   0.585   2.291
30954WAT     H293105   7.896   0.611   2.427
30955WAT      O93106   7.601   5.944   0.046
30955WAT     H193107   7.693   5.963   0.080
30955WAT     H293108   7.541   5.924   0.122
30956WAT      O93109   0.824   4.363   3.218
30956WAT     H193110   0.736   4.345   3.176
30956WAT     H293111   0.887   4.400   3.150
30957WAT      O93112   6.766   4.993   6.495
30957WAT     H193113   6.821   4.978   6.577
30957WAT     H293114   6.785   5.084   6.458
30958WAT      O93115   9.225   1.304   4.578
30958WAT     H193116   9.198   1.392   4.618
30958WAT     H293117   9.184   1.296   4.487
30959WAT      O93118   0.400   1.642   9.103
30959WAT     H193119   0.425   1.652   9.007
30959WAT     H293120   0.314   1.590   9.109
30960WAT      O93121   0.869   5.941   5.471
30960WAT     H193122   0.854   5.843   5.484
30960WAT     H293123   0.921   5.977   5.548
30961WAT      O93124   5.722   5.997   6.513
30961WAT     H193125   5.631   6.024   6.481
30961WAT     H293126   5.785   5.997   6.436
30962WAT      O93127   7.640   8.759   8.457
30962WAT     H193128   7.738   8.754   8.474
30962WAT     H293129   7.609   8.673   8.415
30963WAT      O93130   7.099   9.267   4.118
30963WAT     H193131   7.094   9.261   4.218
30963WAT     H293132   7.159   9.195   4.083
30964WAT      O93133   2.874   5.804   1.343
30964WAT     H193134   2.906   5.721   1.390
30964WAT     H293135   2.860   5.877   1.409
30965WAT      O93136   3.425   3.708   2.845
30965WAT     H193137   3.345   3.657   2.876
30965WAT     H293138   3.397   3.774   2.775
30966WAT      O93139   7.438   5.091   2.895
30966WAT     H193140   7.472   4.999   2.913
30966WAT     H293141   7.496   5.136   2.827
30967WAT      O93142   5.893   1.937   8.032
30967WAT     H193143   5.990   1.941   8.008
30967WAT     H293144   5.859   2.030   8.049
30968WAT      O93145   4.083   6.390   7.113
30968WAT     H193146   3.994   6.407   7.070
30968WAT     H293147   4.126   6.311   7.069
30969WAT      O93148   0.140   6.449   4.332
30969WAT     H193149   0.141   6.526   4.396
30969WAT     H293150   0.234   6.417   4.317
30970WAT      O93151   7.185   4.880   7.190
30970WAT     H193152   7.169   4.912   7.283
30970WAT     H293153   7.100   4.888   7.137
30971WAT      O93154   5.683   1.497   9.263
30971WAT     H193155   5.593   1.455   9.278
30971WAT     H293156   5.689   1.531   9.169
30972WAT      O93157   8.131   0.875   3.985
30972WAT     H193158   8.070   0.949   4.015
30972WAT     H293159   8.135   0.874   3.885
30973WAT      O93160   1.207   1.011   8.910
30973WAT     H193161   1.145   0.938   8.938
30973WAT     H293162   1.221   1.008   8.812
30974WAT      O93163   5.916   5.569   4.930
30974WAT     H193164   5.898   5.478   4.967
30974WAT     H293165   5.845   5.632   4.960
30975WAT      O93166   1.239   7.481   1.890
30975WAT     H193167   1.295   7.460   1.810
30975WAT     H293168   1.148   7.512   1.860
30976WAT      O93169   5.452   1.002   1.886
30976WAT     H193170   5.529   0.983   1.947
30976WAT     H293171   5.480   0.990   1.791
30977WAT      O93172   8.278   2.900   7.751
30977WAT     H193173   8.190   2.871   7.714
30977WAT     H293174   8.295   2.995   7.727
30978WAT      O93175   9.066   2.783   6.607
30978WAT     H193176   9.106   2.822   6.690
30978WAT     H293177   9.104   2.692   6.591
30979WAT      O93178   4.855   4.325   2.498
30979WAT     H193179   4.924   4.387   2.535
30979WAT     H293180   4.771   4.375   2.478
30980WAT      O93181   8.536   2.421   8.898
30980WAT     H193182   8.630   2.390   8.885
30980WAT     H293183   8.528   2.465   8.988
30981WAT      O93184   6.619   4.534   5.088
30981WAT     H193185   6.619   4.478   5.171
30981WAT     H293186   6.586   4.479   5.011
30982WAT      O93187   3.003   8.477   9.488
30982WAT     H193188   2.961   8.407   9.546
30982WAT     H293189   3.102   8.468   9.491
30983WAT      O93190   7.628   6.757   1.052
30983WAT     H193191   7.703   6.717   1.104
30983WAT     H293192   7.541   6.729   1.093
30984WAT      O93193   9.069   4.468   9.373
30984WAT     H193194   8.969   4.472   9.366
30984WAT     H293195   9.109   4.541   9.318
30985WAT      O93196   0.084   7.937   8.298
30985WAT     H193197   0.125   7.954   8.208
30985WAT     H293198   0.135   7.988   8.367
30986WAT      O93199   0.752   6.103   6.601
30986WAT     H193200   0.750   6.049   6.517
30986WAT     H293201   0.752   6.042   6.680
30987WAT      O93202   5.488   7.173   1.486
30987WAT     H193203   5.400   7.129   1.506
30987WAT     H293204   5.540   7.114   1.424
30988WAT      O93205   7.661   4.369   9.251
30988WAT     H193206   7.614   4.289   9.213
30988WAT     H293207   7.636   4.451   9.199
30989WAT      O93208   6.808   1.381   1.534
30989WAT     H193209   6.828   1.438   1.454
30989WAT     H293210   6.874   1.402   1.606
30990WAT      O93211   3.086   8.441   5.437
30990WAT     H193212   3.014   8.503   5.469
30990WAT     H293213   3.146   8.418   5.513
30991WAT      O93214   3.746   2.957   3.562
30991WAT     H193215   3.827   2.919   3.518
30991WAT     H293216   3.775   3.012   3.641
30992WAT      O93217   7.666   6.221   1.781
30992WAT     H193218   7.704   6.211   1.874
30992WAT     H293219   7.644   6.317   1.765
30993WAT      O93220   4.270   7.550   3.594
30993WAT     H193221   4.255   7.625   3.658
30993WAT     H293222   4.246   7.464   3.638
30994WAT      O93223   1.376   2.416   6.680
30994WAT     H193224   1.471   2.439   6.659
30994WAT     H293225   1.351   2.332   6.631
30995WAT      O93226   9.132   4.542   9.616
30995WAT     H193227   9.125   4.497   9.527
30995WAT     H293228   9.052   4.519   9.671
30996WAT      O93229   6.524   5.952   5.154
30996WAT     H193230   6.573   5.943   5.067
30996WAT     H293231   6.559   6.032   5.203
30997WAT      O93232   1.894   1.681   6.298
30997WAT     H193233   1.865   1.587   6.319
30997WAT     H293234   1.969   1.707   6.359
30998WAT      O93235   4.180   1.190   7.523
30998WAT     H193236   4.232   1.154   7.445
30998WAT     H293237   4.155   1.285   7.506
30999WAT      O93238   8.526   0.122   1.652
30999WAT     H193239   8.535   0.221   1.669
30999WAT     H293240   8.518   0.074   1.740
31000WAT      O93241   1.936   5.096   6.586
31000WAT     H193242   1.920   5.030   6.660
31000WAT     H293243   1.985   5.175   6.622
31001WAT      O93244   8.884   5.334   7.574
31001WAT     H193245   8.898   5.264   7.645
31001WAT     H293246   8.819   5.402   7.608
31002WAT      O93247   9.289   7.538   3.579
31002WAT     H193248   9.341   7.495   3.653
31002WAT     H293249   9.339   7.618   3.546
31003WAT      O93250   3.059   5.299   6.203
31003WAT     H193251   3.048   5.397   6.183
31003WAT     H293252   3.153   5.282   6.232
31004WAT      O93253   8.525   9.746   3.329
31004WAT     H193254   8.468   9.737   3.411
31004WAT     H293255   8.606   9.801   3.350
31005WAT      O93256   8.478   4.266   4.603
31005WAT     H193257   8.402   4.321   4.569
31005WAT     H293258   8.453   4.226   4.691
31006WAT      O93259   7.869   7.785   9.699
31006WAT     H193260   7.853   7.785   9.797
31006WAT     H293261   7.853   7.694   9.662
31007WAT      O93262   6.361   2.014   3.047
31007WAT     H193263   6.341   2.057   3.135
31007WAT     H293264   6.452   2.040   3.017
31008WAT      O93265   2.399   7.905   6.162
31008WAT     H193266   2.442   7.938   6.246
31008WAT     H293267   2.358   7.981   6.113
31009WAT      O93268   4.746   8.781   2.388
31009WAT     H193269   4.811   8.708   2.408
31009WAT     H293270   4.667   8.744   2.340
31010WAT      O93271   3.605   9.788   6.908
31010WAT     H193272   3.514   9.828   6.908
31010WAT     H293273   3.612   9.721   6.834
31011WAT      O93274   8.426   0.887   4.429
31011WAT     H193275   8.512   0.848   4.460
31011WAT     H293276   8.403   0.849   4.339
31012WAT      O93277   0.742   0.509   1.122
31012WAT     H193278   0.786   0.585   1.073
31012WAT     H293279   0.778   0.505   1.215
31013WAT      O93280   2.822   9.403   2.205
31013WAT     H193281   2.888   9.335   2.175
31013WAT     H293282   2.740   9.357   2.240
31014WAT      O93283   0.591   4.966   6.427
31014WAT     H193284   0.515   5.018   6.466
31014WAT     H293285   0.586   4.970   6.327
31015WAT      O93286   3.122   3.116   6.782
31015WAT     H193287   3.172   3.030   6.775
31015WAT     H293288   3.138   3.170   6.699
31016WAT      O93289   2.476   6.931   8.762
31016WAT     H193290   2.416   6.920   8.841
31016WAT     H293291   2.420   6.938   8.679
31017WAT      O93292   0.450   6.736   5.613
31017WAT     H193293   0.380   6.669   5.589
31017WAT     H293294   0.535   6.714   5.565
31018WAT      O93295   6.614   0.353   0.788
31018WAT     H193296   6.682   0.370   0.860
31018WAT     H293297   6.660   0.337   0.701
31019WAT      O93298   9.452   0.026   2.448
31019WAT     H193299   9.456   0.126   2.447
31019WAT     H293300   9.399  -0.004   2.528
31020WAT      O93301   0.376   6.889   4.375
31020WAT     H193302   0.329   6.970   4.408
31020WAT     H293303   0.377   6.819   4.447
31021WAT      O93304   2.611   0.639   6.675
31021WAT     H193305   2.664   0.674   6.752
31021WAT     H293306   2.519   0.677   6.677
31022WAT      O93307   4.512   6.745   5.656
31022WAT     H193308   4.554   6.655   5.665
31022WAT     H293309   4.441   6.757   5.725
31023WAT      O93310   7.676   5.735   4.013
31023WAT     H193311   7.756   5.682   4.039
31023WAT     H293312   7.705   5.823   3.975
31024WAT      O93313   1.111   2.492   5.737
31024WAT     H193314   1.053   2.515   5.659
31024WAT     H293315   1.190   2.440   5.705
31025WAT      O93316   5.896   8.396   2.844
31025WAT     H193317   5.976   8.442   2.805
31025WAT     H293318   5.892   8.413   2.943
31026WAT      O93319   3.814   3.421   7.335
31026WAT     H193320   3.864   3.347   7.291
31026WAT     H293321   3.867   3.455   7.413
31027WAT      O93322   7.599   6.566   0.874
31027WAT     H193323   7.682   6.539   0.825
31027WAT     H293324   7.622   6.633   0.944
31028WAT      O93325   9.411   4.683   4.322
31028WAT     H193326   9.408   4.783   4.324
31028WAT     H293327   9.318   4.647   4.325
31029WAT      O93328   0.078   3.638   9.746
31029WAT     H193329   0.161   3.654   9.693
31029WAT     H293330   0.083   3.689   9.832
31030WAT      O93331   7.756   7.808   7.622
31030WAT     H193332   7.702   7.847   7.547
31030WAT     H293333   7.780   7.881   7.686
31031WAT      O93334   3.742   1.634   1.475
31031WAT     H193335   3.794   1.692   1.412
31031WAT     H293336   3.668   1.687   1.516
31032WAT      O93337   0.082   7.336   3.152
31032WAT     H193338   0.144   7.371   3.221
31032WAT     H293339   0.050   7.412   3.095
31033WAT      O93340   9.240   9.149   8.067
31033WAT     H193341   9.157   9.114   8.111
31033WAT     H293342   9.247   9.111   7.975
31034WAT      O93343   0.527   5.654   2.900
31034WAT     H193344   0.575   5.740   2.917
31034WAT     H293345   0.432   5.662   2.933
31035WAT      O93346   8.621   7.807   0.937
31035WAT     H193347   8.627   7.729   0.874
31035WAT     H293348   8.532   7.805   0.983
31036WAT      O93349   3.925   8.517   5.467
31036WAT     H193350   3.871   8.491   5.547
31036WAT     H293351   4.011   8.465   5.468
31037WAT      O93352   5.228   6.857   8.907
31037WAT     H193353   5.202   6.820   8.818
31037WAT     H293354   5.261   6.950   8.896
31038WAT      O93355   0.895   8.271   5.416
31038WAT     H193356   0.995   8.264   5.417
31038WAT     H293357   0.869   8.367   5.423
31039WAT      O93358   1.153   0.479   2.544
31039WAT     H193359   1.156   0.522   2.634
31039WAT     H293360   1.209   0.396   2.545
31040WAT      O93361   8.783   0.387   1.359
31040WAT     H193362   8.718   0.360   1.288
31040WAT     H293363   8.832   0.307   1.393
31041WAT      O93364   4.738   2.924   3.070
31041WAT     H193365   4.678   2.989   3.117
31041WAT     H293366   4.702   2.905   2.979
31042WAT      O93367   5.195   8.360   6.296
31042WAT     H193368   5.258   8.342   6.372
31042WAT     H293369   5.115   8.410   6.330
31043WAT      O93370   1.607   7.686   1.562
31043WAT     H193371   1.510   7.675   1.585
31043WAT     H293372   1.626   7.782   1.545
31044WAT      O93373   5.522   4.004   1.394
31044WAT     H193374   5.575   3.922   1.412
31044WAT     H293375   5.479   3.997   1.304
31045WAT      O93376   5.609   7.162   0.042
31045WAT     H193377   5.575   7.240   0.094
31045WAT     H293378   5.596   7.078   0.095
31046WAT      O93379   7.195   4.756   1.508
31046WAT     H193380   7.150   4.788   1.591
31046WAT     H293381   7.165   4.812   1.430
31047WAT      O93382   5.949   7.778   6.486
31047WAT     H193383   5.923   7.684   6.466
31047WAT     H293384   5.879   7.821   6.542
31048WAT      O93385   4.883   6.283   3.488
31048WAT     H193386   4.824   6.204   3.504
31048WAT     H293387   4.916   6.282   3.394
31049WAT      O93388   3.580   0.164   0.791
31049WAT     H193389   3.590   0.073   0.831
31049WAT     H293390   3.666   0.190   0.746
31050WAT      O93391   8.462   0.035   7.887
31050WAT     H193392   8.521   0.115   7.883
31050WAT     H293393   8.477  -0.022   7.807
31051WAT      O93394   4.179   0.213   3.526
31051WAT     H193395   4.278   0.222   3.530
31051WAT     H293396   4.137   0.304   3.520
31052WAT      O93397   7.086   4.409   0.313
31052WAT     H193398   7.106   4.321   0.357
31052WAT     H293399   7.024   4.394   0.236
31053WAT      O93400   3.744   5.994   6.188
31053WAT     H193401   3.660   5.954   6.151
31053WAT     H293402   3.788   5.929   6.250
31054WAT      O93403   4.585   6.000   2.282
31054WAT     H193404   4.541   6.085   2.312
31054WAT     H293405   4.683   6.016   2.270
31055WAT      O93406   5.304   6.810   9.453
31055WAT     H193407   5.375   6.748   9.422
31055WAT     H293408   5.291   6.800   9.551
31056WAT      O93409   4.141   7.103   5.339
31056WAT     H193410   4.053   7.084   5.297
31056WAT     H293411   4.206   7.032   5.314
31057WAT      O93412   6.814   7.999   7.269
31057WAT     H193413   6.726   7.967   7.303
31057WAT     H293414   6.881   7.999   7.343
31058WAT      O93415   8.689   8.379   4.744
31058WAT     H193416   8.748   8.430   4.807
31058WAT     H293417   8.745   8.319   4.687
31059WAT      O93418   5.797   4.082   9.813
31059WAT     H193419   5.725   4.149   9.796
31059WAT     H293420   5.846   4.106   9.897
31060WAT      O93421   4.459   0.191   4.510
31060WAT     H193422   4.407   0.258   4.565
31060WAT     H293423   4.463   0.223   4.415
31061WAT      O93424   0.898   5.899   3.097
31061WAT     H193425   0.941   5.810   3.083
31061WAT     H293426   0.969   5.969   3.106
31062WAT      O93427   1.159   8.410   2.876
31062WAT     H193428   1.080   8.395   2.817
31062WAT     H293429   1.131   8.402   2.972
31063WAT      O93430   3.051   1.081   8.622
31063WAT     H193431   3.070   0.983   8.610
31063WAT     H293432   2.967   1.092   8.676
31064WAT      O93433   3.530   4.366   9.745
31064WAT     H193434   3.602   4.346   9.678
31064WAT     H293435   3.460   4.295   9.741
31065WAT      O93436   8.507   1.937   1.432
31065WAT     H193437   8.493   1.848   1.475
31065WAT     H293438   8.430   1.958   1.371
31066WAT      O93439   0.780   2.413   1.806
31066WAT     H193440   0.764   2.390   1.710
31066WAT     H293441   0.826   2.502   1.811
31067WAT      O93442   9.815   5.866   5.199
31067WAT     H193443   9.843   5.806   5.125
31067WAT     H293444   9.839   5.826   5.287
31068WAT      O93445   5.311   8.783   3.590
31068WAT     H193446   5.371   8.790   3.511
31068WAT     H293447   5.271   8.691   3.593
31069WAT      O93448   9.823   6.987   3.360
31069WAT     H193449   9.803   7.072   3.312
31069WAT     H293450   9.915   6.991   3.398
31070WAT      O93451   4.969   6.645   6.336
31070WAT     H193452   4.962   6.741   6.362
31070WAT     H293453   4.898   6.592   6.381
31071WAT      O93454   6.132   8.943   8.850
31071WAT     H193455   6.078   8.859   8.843
31071WAT     H293456   6.140   8.986   8.760
31072WAT      O93457   7.177   4.827   2.931
31072WAT     H193458   7.217   4.735   2.931
31072WAT     H293459   7.191   4.868   2.841
31073WAT      O93460   7.678   3.643   7.530
31073WAT     H193461   7.692   3.740   7.549
31073WAT     H293462   7.638   3.632   7.438
31074WAT      O93463   9.244   3.040   0.661
31074WAT     H193464   9.225   3.040   0.563
31074WAT     H293465   9.339   3.065   0.677
31075WAT      O93466   9.651   0.419   2.063
31075WAT     H193467   9.704   0.404   1.979
31075WAT     H293468   9.676   0.350   2.131
31076WAT      O93469   4.591   0.949   9.311
31076WAT     H193470   4.665   0.921   9.373
31076WAT     H293471   4.516   0.988   9.364
31077WAT      O93472   4.938   2.263   7.130
31077WAT     H193473   4.851   2.298   7.095
31077WAT     H293474   4.955   2.172   7.093
31078WAT      O93475   1.425   7.443   6.141
31078WAT     H193476   1.330   7.414   6.151
31078WAT     H293477   1.468   7.392   6.066
31079WAT      O93478   3.936   8.703   0.542
31079WAT     H193479   3.861   8.663   0.595
31079WAT     H293480   3.939   8.802   0.556
31080WAT      O93481   0.591   5.542   5.635
31080WAT     H193482   0.684   5.534   5.671
31080WAT     H293483   0.529   5.488   5.692
31081WAT      O93484   3.192   4.895   4.144
31081WAT     H193485   3.214   4.953   4.222
31081WAT     H293486   3.096   4.866   4.151
31082WAT      O93487   1.754   5.341   0.302
31082WAT     H193488   1.797   5.329   0.391
31082WAT     H293489   1.811   5.299   0.231
31083WAT      O93490   8.747   4.551   3.308
31083WAT     H193491   8.783   4.513   3.393
31083WAT     H293492   8.666   4.499   3.279
31084WAT      O93493   0.608   5.858   5.283
31084WAT     H193494   0.583   5.856   5.380
31084WAT     H293495   0.599   5.952   5.249
31085WAT      O93496   5.366   8.018   2.335
31085WAT     H193497   5.418   7.986   2.256
31085WAT     H293498   5.428   8.056   2.403
31086WAT      O93499   7.534   0.595   0.480
31086WAT     H193500   7.555   0.676   0.426
31086WAT     H293501   7.567   0.513   0.433
31087WAT      O93502   8.117   6.398   3.580
31087WAT     H193503   8.074   6.408   3.490
31087WAT     H293504   8.207   6.355   3.569
31088WAT      O93505   5.393   2.551   0.496
31088WAT     H193506   5.410   2.598   0.583
31088WAT     H293507   5.449   2.469   0.491
31089WAT      O93508   0.712   5.884   8.684
31089WAT     H193509   0.615   5.867   8.667
31089WAT     H293510   0.758   5.797   8.703
31090WAT      O93511   8.263   3.775   3.441
31090WAT     H193512   8.281   3.704   3.373
31090WAT     H293513   8.194   3.742   3.505
31091WAT      O93514   0.866   0.605   8.392
31091WAT     H193515   0.922   0.611   8.474
31091WAT     H293516   0.828   0.513   8.384
31092WAT      O93517   9.807   3.768   2.026
31092WAT     H193518   9.906   3.786   2.019
31092WAT     H293519   9.756   3.847   1.993
31093WAT      O93520   1.121   7.920   2.800
31093WAT     H193521   1.169   7.981   2.737
31093WAT     H293522   1.187   7.874   2.859
31094WAT      O93523   5.068   5.996   4.381
31094WAT     H193524   5.019   5.926   4.433
31094WAT     H293525   5.012   6.079   4.377
31095WAT      O93526   3.273   0.739   9.139
31095WAT     H193527   3.174   0.735   9.135
31095WAT     H293528   3.304   0.725   9.233
31096WAT      O93529   5.896   3.443   0.702
31096WAT     H193530   5.953   3.475   0.626
31096WAT     H293531   5.934   3.477   0.788
31097WAT      O93532   1.257   4.971   0.066
31097WAT     H193533   1.336   5.020   0.029
31097WAT     H293534   1.283   4.877   0.088
31098WAT      O93535   9.539   6.887   2.511
31098WAT     H193536   9.470   6.957   2.531
31098WAT     H293537   9.521   6.805   2.565
31099WAT      O93538   0.557   1.819   9.825
31099WAT     H193539   0.531   1.795   9.731
31099WAT     H293540   0.648   1.783   9.844
31100WAT      O93541   8.223   9.171   2.682
31100WAT     H193542   8.128   9.177   2.649
31100WAT     H293543   8.285   9.198   2.608
31101WAT      O93544   5.898   3.645   2.031
31101WAT     H193545   5.851   3.680   2.112
31101WAT     H293546   5.979   3.700   2.012
31102WAT      O93547   7.017   4.883   8.271
31102WAT     H193548   7.077   4.807   8.243
31102WAT     H293549   7.019   4.891   8.371
31103WAT      O93550   5.040   2.568   9.859
31103WAT     H193551   4.986   2.507   9.916
31103WAT     H293552   5.132   2.531   9.848
31104WAT      O93553   9.763   0.735   7.570
31104WAT     H193554   9.745   0.678   7.650
31104WAT     H293555   9.694   0.807   7.564
31105WAT      O93556   0.981   8.932   6.091
31105WAT     H193557   1.032   8.909   6.009
31105WAT     H293558   0.963   8.849   6.144
31106WAT      O93559   5.707   4.726   9.833
31106WAT     H193560   5.697   4.812   9.882
31106WAT     H293561   5.761   4.741   9.750
31107WAT      O93562   3.760   4.099   5.923
31107WAT     H193563   3.748   4.048   5.838
31107WAT     H293564   3.785   4.036   5.996
31108WAT      O93565   8.030   4.820   0.598
31108WAT     H193566   8.045   4.728   0.633
31108WAT     H293567   8.070   4.827   0.506
31109WAT      O93568   2.751   8.916   8.138
31109WAT     H193569   2.845   8.884   8.135
31109WAT     H293570   2.689   8.838   8.142
31110WAT      O93571   8.005   1.074   3.129
31110WAT     H193572   7.959   1.075   3.040
31110WAT     H293573   8.085   1.014   3.125
31111WAT      O93574   7.762   5.249   3.504
31111WAT     H193575   7.802   5.173   3.554
31111WAT     H293576   7.665   5.231   3.487
31112WAT      O93577   8.864   1.020   6.096
31112WAT     H193578   8.895   0.932   6.132
31112WAT     H293579   8.907   1.094   6.147
31113WAT      O93580   2.804   2.842   3.501
31113WAT     H193581   2.785   2.934   3.534
31113WAT     H293582   2.820   2.845   3.402
31114WAT      O93583   6.848   0.134   5.780
31114WAT     H193584   6.929   0.187   5.808
31114WAT     H293585   6.843   0.133   5.681
31115WAT      O93586   1.189   1.295   5.578
31115WAT     H193587   1.132   1.373   5.603
31115WAT     H293588   1.206   1.238   5.658
31116WAT      O93589   3.055   7.662   4.690
31116WAT     H193590   3.096   7.587   4.742
31116WAT     H293591   3.125   7.732   4.672
31117WAT      O93592   9.453   6.718   2.247
31117WAT     H193593   9.502   6.632   2.236
31117WAT     H293594   9.519   6.792   2.261
31118WAT      O93595   9.253   6.451   9.114
31118WAT     H193596   9.236   6.367   9.064
31118WAT     H293597   9.315   6.432   9.191
31119WAT      O93598   2.410   8.438   6.144
31119WAT     H193599   2.466   8.487   6.077
31119WAT     H293600   2.375   8.502   6.212
31120WAT      O93601   9.043   7.706   1.294
31120WAT     H193602   8.946   7.688   1.313
31120WAT     H293603   9.066   7.672   1.203
31121WAT      O93604   3.038   8.323   1.385
31121WAT     H193605   3.113   8.258   1.381
31121WAT     H293606   2.993   8.329   1.296
31122WAT      O93607   5.406   0.151   6.728
31122WAT     H193608   5.364   0.060   6.725
31122WAT     H293609   5.448   0.165   6.818
31123WAT      O93610   9.592   9.771   6.444
31123WAT     H193611   9.632   9.703   6.506
31123WAT     H293612   9.506   9.736   6.407
31124WAT      O93613   4.735   2.157   7.370
31124WAT     H193614   4.813   2.123   7.316
31124WAT     H293615   4.725   2.101   7.452
31125WAT      O93616   8.159   3.990   4.506
31125WAT     H193617   8.170   3.953   4.599
31125WAT     H293618   8.176   3.917   4.440
31126WAT      O93619   5.152   8.249   3.811
31126WAT     H193620   5.223   8.192   3.853
31126WAT     H293621   5.074   8.255   3.873
31127WAT      O93622   9.070   7.369   6.924
31127WAT     H193623   9.030   7.457   6.900
31127WAT     H293624   9.001   7.311   6.968
31128WAT      O93625   9.428   3.673   2.897
31128WAT     H193626   9.404   3.639   2.988
31128WAT     H293627   9.527   3.676   2.888
31129WAT      O93628   7.361   1.695   7.138
31129WAT     H193629   7.404   1.757   7.204
31129WAT     H293630   7.428   1.628   7.107
31130WAT      O93631   1.252   9.707   6.286
31130WAT     H193632   1.153   9.716   6.295
31130WAT     H293633   1.277   9.610   6.290
31131WAT      O93634   1.120   1.339   5.907
31131WAT     H193635   1.209   1.307   5.941
31131WAT     H293636   1.128   1.433   5.875
31132WAT      O93637   1.666   4.824   6.431
31132WAT     H193638   1.733   4.780   6.491
31132WAT     H293639   1.575   4.788   6.450
31133WAT      O93640   7.555   1.667   9.826
31133WAT     H193641   7.544   1.759   9.786
31133WAT     H293642   7.527   1.598   9.759
31134WAT      O93643   4.916   1.396   9.852
31134WAT     H193644   4.860   1.464   9.804
31134WAT     H293645   5.000   1.379   9.801
31135WAT      O93646   4.573   8.012   0.371
31135WAT     H193647   4.635   8.091   0.364
31135WAT     H293648   4.541   7.987   0.280
31136WAT      O93649   0.523   2.057   7.806
31136WAT     H193650   0.537   2.044   7.708
31136WAT     H293651   0.480   1.975   7.844
31137WAT      O93652   0.505   3.585   3.421
31137WAT     H193653   0.436   3.608   3.490
31137WAT     H293654   0.480   3.500   3.375
31138WAT      O93655   0.717   6.730   9.009
31138WAT     H193656   0.643   6.723   8.941
31138WAT     H293657   0.790   6.788   8.973
31139WAT      O93658   9.583   4.275   0.137
31139WAT     H193659   9.493   4.273   0.094
31139WAT     H293660   9.601   4.367   0.172
31140WAT      O93661   4.427   7.018   1.705
31140WAT     H193662   4.367   6.940   1.688
31140WAT     H293663   4.376   7.090   1.753
31141WAT      O93664   2.043   6.686   4.456
31141WAT     H193665   2.027   6.728   4.367
31141WAT     H293666   1.955   6.666   4.500
31142WAT      O93667   5.456   3.146   9.738
31142WAT     H193668   5.383   3.101   9.788
31142WAT     H293669   5.438   3.244   9.733
31143WAT      O93670   3.530   7.974   8.801
31143WAT     H193671   3.500   7.982   8.896
31143WAT     H293672   3.474   8.034   8.744
31144WAT      O93673   1.752   3.149   0.456
31144WAT     H193674   1.774   3.079   0.388
31144WAT     H293675   1.824   3.152   0.525
31145WAT      O93676   7.733   2.374   2.092
31145WAT     H193677   7.794   2.317   2.147
31145WAT     H293678   7.671   2.316   2.039
31146WAT      O93679   0.831   9.820   2.672
31146WAT     H193680   0.907   9.810   2.738
31146WAT     H293681   0.856   9.775   2.586
31147WAT      O93682   5.634   1.599   5.950
31147WAT     H193683   5.604   1.543   5.873
31147WAT     H293684   5.729   1.628   5.934
31148WAT      O93685   0.830   7.851   5.894
31148WAT     H193686   0.810   7.923   5.828
31148WAT     H293687   0.916   7.873   5.941
31149WAT      O93688   1.511   3.586   5.504
31149WAT     H193689   1.436   3.553   5.447
31149WAT     H293690   1.548   3.670   5.466
31150WAT      O93691   5.544   6.943   3.832
31150WAT     H193692   5.449   6.914   3.820
31150WAT     H293693   5.605   6.868   3.806
31151WAT      O93694   1.398   2.440   2.109
31151WAT     H193695   1.393   2.389   2.195
31151WAT     H293696   1.450   2.388   2.042
31152WAT      O93697   5.593   0.462   7.047
31152WAT     H193698   5.610   0.413   7.133
31152WAT     H293699   5.499   0.447   7.018
31153WAT      O93700   1.094   8.033   4.051
31153WAT     H193701   1.005   7.997   4.080
31153WAT     H293702   1.103   8.128   4.079
31154WAT      O93703   4.624   9.391   2.424
31154WAT     H193704   4.610   9.490   2.420
31154WAT     H293705   4.537   9.345   2.441
31155WAT      O93706   7.371   7.376   0.895
31155WAT     H193707   7.387   7.296   0.954
31155WAT     H293708   7.459   7.416   0.870
31156WAT      O93709   4.595   6.786   3.737
31156WAT     H193710   4.553   6.702   3.702
31156WAT     H293711   4.675   6.762   3.792
31157WAT      O93712   3.653   4.571   1.696
31157WAT     H193713   3.578   4.597   1.634
31157WAT     H293714   3.709   4.500   1.652
31158WAT      O93715   5.989   4.410   8.189
31158WAT     H193716   5.955   4.341   8.252
31158WAT     H293717   6.055   4.469   8.237
31159WAT      O93718   0.900   7.159   0.371
31159WAT     H193719   0.846   7.236   0.337
31159WAT     H293720   0.902   7.162   0.471
31160WAT      O93721   5.444   1.028   7.832
31160WAT     H193722   5.514   1.049   7.764
31160WAT     H293723   5.463   1.078   7.917
31161WAT      O93724   4.516   7.625   3.492
31161WAT     H193725   4.489   7.715   3.457
31161WAT     H293726   4.443   7.588   3.548
31162WAT      O93727   5.788   7.093   4.591
31162WAT     H193728   5.859   7.048   4.537
31162WAT     H293729   5.737   7.157   4.533
31163WAT      O93730   9.282   3.490   1.093
31163WAT     H193731   9.252   3.585   1.103
31163WAT     H293732   9.284   3.446   1.183
31164WAT      O93733   1.297   9.784   7.791
31164WAT     H193734   1.318   9.727   7.870
31164WAT     H293735   1.371   9.849   7.775
31165WAT      O93736   8.657   5.309   2.775
31165WAT     H193737   8.752   5.328   2.800
31165WAT     H293738   8.637   5.212   2.789
31166WAT      O93739   0.040   4.540   1.012
31166WAT     H193740  -0.039   4.534   1.074
31166WAT     H293741   0.104   4.609   1.046
31167WAT      O93742   9.086   4.279   5.316
31167WAT     H193743   9.013   4.347   5.308
31167WAT     H293744   9.152   4.310   5.384
31168WAT      O93745   1.977   0.808   1.499
31168WAT     H193746   2.077   0.815   1.504
31168WAT     H293747   1.938   0.820   1.590
31169WAT      O93748   6.973   4.585   1.759
31169WAT     H193749   7.052   4.532   1.728
31169WAT     H293750   6.980   4.602   1.858
31170WAT      O93751   6.512   9.459   5.828
31170WAT     H193752   6.498   9.437   5.924
31170WAT     H293753   6.589   9.405   5.793
31171WAT      O93754   4.821   0.127   9.208
31171WAT     H193755   4.754   0.156   9.276
31171WAT     H293756   4.872   0.207   9.175
31172WAT      O93757   8.279   3.932   7.120
31172WAT     H193758   8.361   3.911   7.067
31172WAT     H293759   8.251   3.851   7.171
31173WAT      O93760   1.058   6.422   7.088
31173WAT     H193761   1.099   6.368   7.162
31173WAT     H293762   1.026   6.361   7.016
31174WAT      O93763   1.303   6.746   8.663
31174WAT     H193764   1.218   6.701   8.635
31174WAT     H293765   1.291   6.845   8.661
31175WAT      O93766   7.054   6.892   0.318
31175WAT     H193767   7.006   6.967   0.363
31175WAT     H293768   7.153   6.905   0.327
31176WAT      O93769   7.619   3.495   8.026
31176WAT     H193770   7.533   3.544   8.040
31176WAT     H293771   7.677   3.506   8.107
31177WAT      O93772   3.176   1.873   3.886
31177WAT     H193773   3.252   1.931   3.915
31177WAT     H293774   3.165   1.797   3.950
31178WAT      O93775   9.230   7.331   0.970
31178WAT     H193776   9.272   7.245   1.001
31178WAT     H293777   9.283   7.408   1.006
31179WAT      O93778   2.374   7.994   6.587
31179WAT     H193779   2.294   7.934   6.577
31179WAT     H293780   2.348   8.075   6.639
31180WAT      O93781   2.912   0.487   5.623
31180WAT     H193782   2.842   0.552   5.595
31180WAT     H293783   2.911   0.407   5.562
31181WAT      O93784   8.168   5.378   4.977
31181WAT     H193785   8.159   5.401   4.880
31181WAT     H293786   8.172   5.279   4.988
31182WAT      O93787   7.335   5.331   8.948
31182WAT     H193788   7.311   5.403   8.883
31182WAT     H293789   7.313   5.242   8.909
31183WAT      O93790   9.239   3.882   2.472
31183WAT     H193791   9.171   3.883   2.545
31183WAT     H293792   9.318   3.937   2.499
31184WAT      O93793   6.439   4.241   6.349
31184WAT     H193794   6.532   4.275   6.368
31184WAT     H293795   6.412   4.270   6.258
31185WAT      O93796   7.469   3.931   3.211
31185WAT     H193797   7.433   3.839   3.224
31185WAT     H293798   7.561   3.938   3.252
31186WAT      O93799   4.820   7.227   6.356
31186WAT     H193800   4.822   7.185   6.265
31186WAT     H293801   4.804   7.156   6.424
31187WAT      O93802   0.193   1.826   2.679
31187WAT     H193803   0.154   1.912   2.713
31187WAT     H293804   0.155   1.806   2.589
31188WAT      O93805   3.519   1.210   7.383
31188WAT     H193806   3.553   1.290   7.335
31188WAT     H293807   3.475   1.148   7.318
31189WAT      O93808   6.754   7.053   8.905
31189WAT     H193809   6.724   6.959   8.887
31189WAT     H293810   6.679   7.105   8.944
31190WAT      O93811   2.865   2.662   7.060
31190WAT     H193812   2.809   2.717   6.998
31190WAT     H293813   2.816   2.649   7.146
31191WAT      O93814   3.443   9.512   5.203
31191WAT     H193815   3.387   9.544   5.280
31191WAT     H293816   3.539   9.511   5.229
31192WAT      O93817   8.278   2.793   4.414
31192WAT     H193818   8.323   2.706   4.394
31192WAT     H293819   8.274   2.807   4.512
31193WAT      O93820   6.142   2.603   6.300
31193WAT     H193821   6.188   2.618   6.387
31193WAT     H293822   6.209   2.605   6.226
31194WAT      O93823   1.382   4.736   0.911
31194WAT     H193824   1.361   4.726   0.814
31194WAT     H293825   1.341   4.661   0.963
31195WAT      O93826   0.323   9.414   4.945
31195WAT     H193827   0.342   9.317   4.960
31195WAT     H293828   0.230   9.425   4.910
31196WAT      O93829   0.629   9.745   4.760
31196WAT     H193830   0.648   9.775   4.667
31196WAT     H293831   0.669   9.811   4.825
31197WAT      O93832   5.223   5.210   9.797
31197WAT     H193833   5.177   5.135   9.844
31197WAT     H293834   5.171   5.295   9.810
31198WAT      O93835   2.027   7.761   5.985
31198WAT     H193836   2.055   7.673   5.947
31198WAT     H293837   1.945   7.748   6.040
31199WAT      O93838   7.794   7.029   2.938
31199WAT     H193839   7.825   7.121   2.962
31199WAT     H293840   7.768   7.026   2.841
31200WAT      O93841   3.980   4.082   4.007
31200WAT     H193842   3.989   4.003   3.946
31200WAT     H293843   3.958   4.163   3.952
31201WAT      O93844   0.421   4.150   8.791
31201WAT     H193845   0.323   4.165   8.777
31201WAT     H293846   0.439   4.140   8.889
31202WAT      O93847   2.881   8.844   0.141
31202WAT     H193848   2.927   8.851   0.053
31202WAT     H293849   2.822   8.764   0.142
31203WAT      O93850   1.635   8.341   9.330
31203WAT     H193851   1.545   8.382   9.342
31203WAT     H293852   1.688   8.352   9.414
31204WAT      O93853   3.383   9.699   8.009
31204WAT     H193854   3.366   9.754   8.091
31204WAT     H293855   3.395   9.760   7.930
31205WAT      O93856   4.339   0.929   1.803
31205WAT     H193857   4.424   0.947   1.753
31205WAT     H293858   4.295   0.847   1.767
31206WAT      O93859   1.882   8.642   0.846
31206WAT     H193860   1.976   8.647   0.814
31206WAT     H293861   1.860   8.725   0.898
31207WAT      O93862   6.612   4.751   5.596
31207WAT     H193863   6.546   4.825   5.607
31207WAT     H293864   6.564   4.665   5.583
31208WAT      O93865   6.423   2.866   3.853
31208WAT     H193866   6.523   2.867   3.854
31208WAT     H293867   6.391   2.793   3.792
31209WAT      O93868   7.605   0.983   0.789
31209WAT     H193869   7.679   1.015   0.847
31209WAT     H293870   7.598   0.884   0.794
31210WAT      O93871   4.686   4.749   9.400
31210WAT     H193872   4.718   4.702   9.318
31210WAT     H293873   4.587   4.740   9.407
31211WAT      O93874   5.195   2.986   3.090
31211WAT     H193875   5.278   2.933   3.105
31211WAT     H293876   5.115   2.927   3.102
31212WAT      O93877   0.691   3.070   0.007
31212WAT     H193878   0.619   3.092  -0.059
31212WAT     H293879   0.650   3.033   0.091
31213WAT      O93880   6.359   9.135   0.879
31213WAT     H193881   6.435   9.081   0.841
31213WAT     H293882   6.379   9.232   0.869
31214WAT      O93883   0.511   6.921   7.233
31214WAT     H193884   0.598   6.939   7.278
31214WAT     H293885   0.465   7.007   7.213
31215WAT      O93886   3.676   2.929   6.637
31215WAT     H193887   3.697   3.026   6.645
31215WAT     H293888   3.592   2.917   6.585
31216WAT      O93889   7.283   2.869   4.957
31216WAT     H193890   7.312   2.884   5.052
31216WAT     H293891   7.240   2.952   4.922
31217WAT      O93892   9.737   3.425   3.569
31217WAT     H193893   9.666   3.394   3.632
31217WAT     H293894   9.713   3.399   3.476
31218WAT      O93895   0.735   2.546   9.465
31218WAT     H193896   0.785   2.608   9.405
31218WAT     H293897   0.777   2.455   9.462
31219WAT      O93898   6.908   1.337   0.424
31219WAT     H193899   6.962   1.377   0.499
31219WAT     H293900   6.969   1.315   0.348
31220WAT      O93901   6.503   4.840   1.994
31220WAT     H193902   6.419   4.814   1.946
31220WAT     H293903   6.532   4.764   2.052
31221WAT      O93904   8.673   3.675   3.546
31221WAT     H193905   8.736   3.672   3.469
31221WAT     H293906   8.619   3.759   3.542
31222WAT      O93907   1.146   6.397   7.840
31222WAT     H193908   1.137   6.306   7.800
31222WAT     H293909   1.232   6.438   7.810
31223WAT      O93910   0.472   6.976   1.819
31223WAT     H193911   0.537   6.965   1.894
31223WAT     H293912   0.504   7.048   1.757
31224WAT      O93913   4.930   3.648   2.620
31224WAT     H193914   4.891   3.712   2.554
31224WAT     H293915   4.891   3.665   2.710
31225WAT      O93916   3.086   6.568   4.153
31225WAT     H193917   3.058   6.505   4.226
31225WAT     H293918   3.161   6.626   4.186
31226WAT      O93919   2.123   6.817   6.342
31226WAT     H193920   2.190   6.778   6.405
31226WAT     H293921   2.169   6.844   6.257
31227WAT      O93922   1.627   5.207   5.127
31227WAT     H193923   1.674   5.224   5.040
31227WAT     H293924   1.529   5.220   5.114
31228WAT      O93925   5.483   3.224   5.540
31228WAT     H193926   5.460   3.280   5.619
31228WAT     H293927   5.454   3.270   5.456
31229WAT      O93928   8.091   7.446   5.455
31229WAT     H193929   8.043   7.360   5.438
31229WAT     H293930   8.030   7.522   5.434
31230WAT      O93931   1.976   2.034   8.444
31230WAT     H193932   1.971   2.027   8.344
31230WAT     H293933   2.030   1.958   8.480
31231WAT      O93934   7.794   1.022   5.336
31231WAT     H193935   7.880   1.063   5.307
31231WAT     H293936   7.807   0.924   5.351
31232WAT      O93937   3.855   4.307   7.845
31232WAT     H193938   3.800   4.242   7.897
31232WAT     H293939   3.795   4.370   7.796
31233WAT      O93940   9.000   9.097   4.115
31233WAT     H193941   9.083   9.066   4.161
31233WAT     H293942   8.938   9.019   4.103
31234WAT      O93943   4.766   5.367   3.540
31234WAT     H193944   4.691   5.353   3.605
31234WAT     H293945   4.853   5.360   3.588
31235WAT      O93946   9.430   0.557   4.810
31235WAT     H193947   9.443   0.587   4.715
31235WAT     H293948   9.355   0.609   4.852
31236WAT      O93949   8.880   7.934   7.448
31236WAT     H193950   8.834   8.014   7.411
31236WAT     H293951   8.820   7.854   7.441
31237WAT      O93952   8.144   2.272   4.721
31237WAT     H193953   8.086   2.310   4.648
31237WAT     H293954   8.225   2.330   4.733
31238WAT      O93955   6.790   6.540   4.994
31238WAT     H193956   6.759   6.615   5.053
31238WAT     H293957   6.738   6.458   5.015
31239WAT      O93958   3.779   4.130   6.352
31239WAT     H193959   3.825   4.196   6.293
31239WAT     H293960   3.821   4.131   6.442
31240WAT      O93961   3.470   6.299   3.964
31240WAT     H193962   3.393   6.358   3.937
31240WAT     H293963   3.539   6.354   4.012
31241WAT      O93964   8.260   2.045   8.723
31241WAT     H193965   8.321   2.059   8.645
31241WAT     H293966   8.281   2.113   8.794
31242WAT      O93967   7.884   5.937   5.667
31242WAT     H193968   7.975   5.950   5.707
31242WAT     H293969   7.822   6.007   5.702
31243WAT      O93970   2.403   4.980   5.183
31243WAT     H193971   2.398   4.986   5.083
31243WAT     H293972   2.356   5.058   5.223
31244WAT      O93973   8.129   2.343   1.098
31244WAT     H193974   8.133   2.443   1.107
31244WAT     H293975   8.033   2.314   1.097
31245WAT      O93976   8.524   2.368   7.418
31245WAT     H193977   8.465   2.389   7.339
31245WAT     H293978   8.529   2.269   7.430
31246WAT      O93979   4.532   3.958   3.435
31246WAT     H193980   4.435   3.942   3.455
31246WAT     H293981   4.541   4.029   3.366
31247WAT      O93982   1.752   9.159   7.709
31247WAT     H193983   1.743   9.190   7.614
31247WAT     H293984   1.846   9.130   7.725
31248WAT      O93985   8.524   2.806   9.894
31248WAT     H193986   8.479   2.723   9.926
31248WAT     H293987   8.570   2.788   9.807
31249WAT      O93988   8.019   1.191   9.332
31249WAT     H193989   8.029   1.291   9.335
31249WAT     H293990   8.012   1.161   9.236
31250WAT      O93991   7.083   7.856   5.615
31250WAT     H193992   7.182   7.852   5.602
31250WAT     H293993   7.039   7.878   5.528
31251WAT      O93994   7.479   4.317   0.261
31251WAT     H193995   7.412   4.391   0.265
31251WAT     H293996   7.480   4.278   0.169
31252WAT      O93997   1.871   7.632   6.387
31252WAT     H193998   1.786   7.611   6.339
31252WAT     H293999   1.937   7.671   6.323
31253WAT      O94000   5.044   0.497   6.834
31253WAT     H194001   5.099   0.462   6.758
31253WAT     H294002   4.973   0.558   6.798
31254WAT      O94003   6.898   9.511   3.562
31254WAT     H194004   6.985   9.491   3.517
31254WAT     H294005   6.823   9.472   3.509
31255WAT      O94006   2.867   4.443   4.039
31255WAT     H194007   2.825   4.358   4.069
31255WAT     H294008   2.856   4.454   3.941
31256WAT      O94009   0.613   6.556   4.639
31256WAT     H194010   0.637   6.545   4.543
31256WAT     H294011   0.560   6.477   4.669
31257WAT      O94012   0.724   3.766   3.387
31257WAT     H194013   0.799   3.729   3.332
31257WAT     H294014   0.645   3.704   3.381
31258WAT      O94015   9.054   6.358   9.887
31258WAT     H194016   9.023   6.400   9.972
31258WAT     H294017   9.136   6.406   9.854
31259WAT      O94018   1.767   9.843   4.602
31259WAT     H194019   1.703   9.801   4.666
31259WAT     H294020   1.832   9.773   4.569
31260WAT      O94021   8.040   2.438   3.456
31260WAT     H194022   8.112   2.494   3.415
31260WAT     H294023   7.958   2.494   3.469
31261WAT      O94024   5.357   2.851   6.678
31261WAT     H194025   5.393   2.772   6.727
31261WAT     H294026   5.378   2.935   6.729
31262WAT      O94027   1.096   5.452   7.534
31262WAT     H194028   1.144   5.527   7.491
31262WAT     H294029   1.141   5.365   7.512
31263WAT      O94030   8.127   2.285   3.669
31263WAT     H194031   8.080   2.366   3.634
31263WAT     H294032   8.115   2.209   3.605
31264WAT      O94033   5.846   3.772   0.384
31264WAT     H194034   5.775   3.841   0.394
31264WAT     H294035   5.805   3.684   0.361
31265WAT      O94036   5.000   9.344   8.491
31265WAT     H194037   4.987   9.419   8.426
31265WAT     H294038   5.085   9.296   8.470
31266WAT      O94039   8.100   9.541   2.319
31266WAT     H194040   8.095   9.498   2.410
31266WAT     H294041   8.154   9.483   2.258
31267WAT      O94042   3.911   3.084   5.559
31267WAT     H194043   3.844   3.151   5.527
31267WAT     H294044   3.976   3.063   5.486
31268WAT      O94045   9.744   7.599   6.762
31268WAT     H194046   9.688   7.585   6.843
31268WAT     H294047   9.823   7.656   6.784
31269WAT      O94048   9.804   6.212   5.041
31269WAT     H194049   9.828   6.309   5.037
31269WAT     H294050   9.874   6.162   5.092
31270WAT      O94051   5.230   5.493   1.647
31270WAT     H194052   5.142   5.475   1.692
31270WAT     H294053   5.239   5.435   1.567
31271WAT      O94054   1.000   8.312   3.133
31271WAT     H194055   1.024   8.409   3.130
31271WAT     H294056   0.996   8.282   3.228
31272WAT      O94057   3.020   2.857   7.406
31272WAT     H194058   3.066   2.813   7.329
31272WAT     H294059   2.984   2.787   7.468
31273WAT      O94060   1.269   0.334   3.193
31273WAT     H194061   1.215   0.268   3.246
31273WAT     H294062   1.230   0.343   3.101
31274WAT      O94063   2.452   4.602   1.909
31274WAT     H194064   2.391   4.676   1.940
31274WAT     H294065   2.399   4.537   1.855
31275WAT      O94066   9.274   0.658   9.292
31275WAT     H194067   9.330   0.626   9.369
31275WAT     H294068   9.195   0.709   9.326
31276WAT      O94069   3.271   6.199   2.918
31276WAT     H194070   3.196   6.153   2.870
31276WAT     H294071   3.283   6.157   3.008
31277WAT      O94072   4.517   6.725   6.252
31277WAT     H194073   4.442   6.694   6.194
31277WAT     H294074   4.480   6.771   6.333
31278WAT      O94075   7.341   5.777   9.760
31278WAT     H194076   7.389   5.820   9.836
31278WAT     H294077   7.366   5.822   9.675
31279WAT      O94078   2.451   7.520   2.522
31279WAT     H194079   2.390   7.540   2.445
31279WAT     H294080   2.499   7.603   2.549
31280WAT      O94081   7.141   8.034   3.185
31280WAT     H194082   7.049   8.031   3.147
31280WAT     H294083   7.194   8.105   3.138
31281WAT      O94084   9.845   8.129   0.578
31281WAT     H194085   9.807   8.037   0.563
31281WAT     H294086   9.771   8.196   0.577
31282WAT      O94087   5.257   8.481   8.644
31282WAT     H194088   5.239   8.573   8.611
31282WAT     H294089   5.172   8.437   8.672
31283WAT      O94090   1.716   1.634   6.063
31283WAT     H194091   1.629   1.659   6.107
31283WAT     H294092   1.792   1.660   6.122
31284WAT      O94093   7.978   7.713   5.436
31284WAT     H194094   7.988   7.686   5.340
31284WAT     H294095   8.069   7.730   5.475
31285WAT      O94096   0.957   2.582   3.029
31285WAT     H194097   1.031   2.637   3.068
31285WAT     H294098   0.980   2.559   2.935
31286WAT      O94099   5.542   9.060   6.053
31286WAT     H194100   5.523   8.983   5.992
31286WAT     H294101   5.591   9.131   6.003
31287WAT      O94102   8.033   8.839   0.467
31287WAT     H194103   8.024   8.856   0.565
31287WAT     H294104   8.109   8.776   0.452
31288WAT      O94105   3.084   4.866   5.643
31288WAT     H194106   3.134   4.951   5.657
31288WAT     H294107   2.989   4.877   5.671
31289WAT      O94108   8.585   7.449   5.215
31289WAT     H194109   8.529   7.379   5.171
31289WAT     H294110   8.632   7.504   5.146
31290WAT      O94111   0.335   6.055   9.100
31290WAT     H194112   0.253   6.031   9.048
31290WAT     H294113   0.325   6.026   9.195
31291WAT      O94114   7.199   7.529   2.546
31291WAT     H194115   7.263   7.540   2.622
31291WAT     H294116   7.249   7.531   2.459
31292WAT      O94117   6.343   0.784   7.151
31292WAT     H194118   6.251   0.823   7.148
31292WAT     H294119   6.410   0.857   7.151
31293WAT      O94120   2.302   9.751   0.710
31293WAT     H194121   2.324   9.683   0.640
31293WAT     H294122   2.207   9.782   0.698
31294WAT      O94123   1.319   1.975   1.481
31294WAT     H194124   1.299   1.980   1.579
31294WAT     H294125   1.394   2.038   1.459
31295WAT      O94126   8.023   1.315   1.291
31295WAT     H194127   8.048   1.412   1.297
31295WAT     H294128   7.943   1.304   1.233
31296WAT      O94129   0.995   3.980   7.723
31296WAT     H194130   0.990   3.882   7.739
31296WAT     H294131   1.091   4.008   7.713
31297WAT      O94132   5.979   8.338   0.224
31297WAT     H194133   5.953   8.331   0.127
31297WAT     H294134   6.033   8.421   0.238
31298WAT      O94135   4.954   5.790   0.658
31298WAT     H194136   4.942   5.882   0.622
31298WAT     H294137   4.892   5.727   0.612
31299WAT      O94138   2.550   5.193   1.315
31299WAT     H194139   2.571   5.128   1.388
31299WAT     H294140   2.600   5.168   1.232
31300WAT      O94141   9.785   9.307   2.632
31300WAT     H194142   9.713   9.373   2.652
31300WAT     H294143   9.815   9.264   2.717
31301WAT      O94144   2.244   3.252   5.389
31301WAT     H194145   2.196   3.178   5.342
31301WAT     H294146   2.329   3.217   5.427
31302WAT      O94147   0.468   5.378   3.116
31302WAT     H194148   0.536   5.397   3.045
31302WAT     H294149   0.504   5.406   3.204
31303WAT      O94150   1.170   7.341   6.171
31303WAT     H194151   1.091   7.359   6.113
31303WAT     H294152   1.155   7.256   6.221
31304WAT      O94153   6.562   3.373   3.652
31304WAT     H194154   6.646   3.319   3.646
31304WAT     H294155   6.564   3.447   3.585
31305WAT      O94156   6.557   3.262   0.982
31305WAT     H194157   6.610   3.179   0.998
31305WAT     H294158   6.526   3.263   0.886
31306WAT      O94159   1.830   6.390   3.098
31306WAT     H194160   1.794   6.470   3.048
31306WAT     H294161   1.763   6.316   3.094
31307WAT      O94162   1.007   0.582   4.705
31307WAT     H194163   0.907   0.584   4.694
31307WAT     H294164   1.050   0.583   4.615
31308WAT      O94165   2.603   0.170   9.415
31308WAT     H194166   2.567   0.159   9.322
31308WAT     H294167   2.608   0.267   9.437
31309WAT      O94168   0.415   1.464   2.891
31309WAT     H194169   0.396   1.389   2.954
31309WAT     H294170   0.503   1.448   2.845
31310WAT      O94171   9.348   3.265   8.578
31310WAT     H194172   9.364   3.195   8.648
31310WAT     H294173   9.411   3.251   8.502
31311WAT      O94174   8.763   8.300   6.014
31311WAT     H194175   8.753   8.317   6.112
31311WAT     H294176   8.685   8.338   5.965
31312WAT      O94177   6.393   0.650   8.277
31312WAT     H194178   6.316   0.611   8.328
31312WAT     H294179   6.377   0.748   8.264
31313WAT      O94180   2.722   1.237   3.777
31313WAT     H194181   2.627   1.207   3.766
31313WAT     H294182   2.745   1.300   3.703
31314WAT      O94183   8.150   2.188   0.005
31314WAT     H194184   8.094   2.222   0.080
31314WAT     H294185   8.157   2.088   0.010
31315WAT      O94186   5.696   8.724   8.896
31315WAT     H194187   5.720   8.750   8.803
31315WAT     H294188   5.606   8.681   8.897
31316WAT      O94189   1.176   2.152   9.725
31316WAT     H194190   1.126   2.108   9.800
31316WAT     H294191   1.138   2.243   9.710
31317WAT      O94192   1.863   0.747   3.418
31317WAT     H194193   1.883   0.649   3.412
31317WAT     H294194   1.842   0.771   3.513
31318WAT      O94195   8.300   0.436   0.574
31318WAT     H194196   8.324   0.525   0.613
31318WAT     H294197   8.381   0.395   0.532
31319WAT      O94198   9.745   7.129   5.721
31319WAT     H194199   9.825   7.177   5.685
31319WAT     H294200   9.751   7.123   5.820
31320WAT      O94201   0.549   1.126   5.298
31320WAT     H194202   0.469   1.187   5.296
31320WAT     H294203   0.632   1.181   5.312
31321WAT      O94204   3.588   7.769   2.061
31321WAT     H194205   3.548   7.691   2.111
31321WAT     H294206   3.562   7.854   2.107
31322WAT      O94207   6.770   1.448   6.200
31322WAT     H194208   6.800   1.420   6.108
31322WAT     H294209   6.675   1.420   6.214
31323WAT      O94210   8.963   8.909   0.364
31323WAT     H194211   8.939   8.934   0.458
31323WAT     H294212   8.948   8.987   0.304
31324WAT      O94213   2.410   8.577   7.827
31324WAT     H194214   2.361   8.638   7.889
31324WAT     H294215   2.358   8.566   7.742
31325WAT      O94216   1.560   1.810   5.855
31325WAT     H194217   1.593   1.864   5.933
31325WAT     H294218   1.633   1.751   5.823
31326WAT      O94219   2.464   7.198   5.384
31326WAT     H194220   2.448   7.147   5.469
31326WAT     H294221   2.559   7.185   5.356
31327WAT      O94222   1.750   8.626   7.287
31327WAT     H194223   1.705   8.600   7.201
31327WAT     H294224   1.804   8.709   7.272
31328WAT      O94225   8.803   6.882   1.779
31328WAT     H194226   8.901   6.878   1.759
31328WAT     H294227   8.787   6.850   1.872
31329WAT      O94228   9.600   7.356   4.779
31329WAT     H194229   9.592   7.440   4.832
31329WAT     H294230   9.600   7.277   4.841
31330WAT      O94231   3.631   7.653   2.406
31330WAT     H194232   3.602   7.573   2.459
31330WAT     H294233   3.557   7.720   2.403
31331WAT      O94234   3.153   6.315   9.332
31331WAT     H194235   3.059   6.282   9.325
31331WAT     H294236   3.204   6.284   9.251
31332WAT      O94237   5.832   6.256   5.407
31332WAT     H194238   5.894   6.313   5.461
31332WAT     H294239   5.860   6.161   5.414
31333WAT      O94240   8.811   8.434   8.631
31333WAT     H194241   8.834   8.462   8.538
31333WAT     H294242   8.752   8.353   8.628
31334WAT      O94243   5.600   7.886   8.437
31334WAT     H194244   5.659   7.924   8.509
31334WAT     H294245   5.520   7.945   8.424
31335WAT      O94246   5.350   6.643   0.554
31335WAT     H194247   5.351   6.655   0.654
31335WAT     H294248   5.384   6.552   0.531
31336WAT      O94249   1.067   6.108   1.675
31336WAT     H194250   0.976   6.143   1.655
31336WAT     H294251   1.130   6.132   1.601
31337WAT      O94252   6.598   8.852   5.892
31337WAT     H194253   6.504   8.837   5.863
31337WAT     H294254   6.630   8.773   5.945
31338WAT      O94255   3.558   8.478   9.804
31338WAT     H194256   3.474   8.434   9.837
31338WAT     H294257   3.619   8.408   9.767
31339WAT      O94258   9.502   0.220   8.922
31339WAT     H194259   9.560   0.226   8.841
31339WAT     H294260   9.420   0.275   8.908
31340WAT      O94261   3.867   2.399   8.941
31340WAT     H194262   3.774   2.433   8.954
31340WAT     H294263   3.922   2.467   8.892
31341WAT      O94264   5.376   4.064   0.468
31341WAT     H194265   5.283   4.029   0.458
31341WAT     H294266   5.434   4.029   0.394
31342WAT      O94267   7.504   0.983   9.187
31342WAT     H194268   7.419   1.029   9.160
31342WAT     H294269   7.508   0.977   9.286
31343WAT      O94270   3.094   8.216   9.883
31343WAT     H194271   3.161   8.155   9.925
31343WAT     H294272   3.038   8.258   9.955
31344WAT      O94273   0.473   2.876   8.041
31344WAT     H194274   0.502   2.969   8.061
31344WAT     H294275   0.380   2.877   8.003
31345WAT      O94276   8.777   3.702   9.039
31345WAT     H194277   8.796   3.741   8.949
31345WAT     H294278   8.695   3.745   9.077
31346WAT      O94279   4.634   4.560   4.670
31346WAT     H194280   4.682   4.620   4.606
31346WAT     H294281   4.570   4.501   4.620
31347WAT      O94282   1.863   4.754   0.825
31347WAT     H194283   1.822   4.664   0.844
31347WAT     H294284   1.952   4.741   0.782
31348WAT      O94285   0.957   3.493   4.598
31348WAT     H194286   0.978   3.568   4.536
31348WAT     H294287   0.862   3.465   4.586
31349WAT      O94288   4.615   5.705   0.953
31349WAT     H194289   4.690   5.752   0.999
31349WAT     H294290   4.626   5.606   0.963
31350WAT      O94291   0.898   3.526   3.770
31350WAT     H194292   0.919   3.549   3.865
31350WAT     H294293   0.983   3.503   3.722
31351WAT      O94294   4.739   3.547   9.844
31351WAT     H194295   4.669   3.523   9.911
31351WAT     H294296   4.695   3.582   9.761
31352WAT      O94297   5.854   1.428   5.600
31352WAT     H194298   5.924   1.483   5.554
31352WAT     H294299   5.763   1.460   5.572
31353WAT      O94300   0.194   4.576   7.657
31353WAT     H194301   0.154   4.651   7.604
31353WAT     H294302   0.221   4.503   7.595
31354WAT      O94303   7.203   6.714   3.755
31354WAT     H194304   7.233   6.654   3.681
31354WAT     H294305   7.177   6.659   3.834
31355WAT      O94306   8.773   1.786   2.740
31355WAT     H194307   8.857   1.767   2.791
31355WAT     H294308   8.708   1.833   2.800
31356WAT      O94309   6.540   7.485   1.923
31356WAT     H194310   6.639   7.497   1.909
31356WAT     H294311   6.505   7.560   1.979
31357WAT      O94312   6.146   5.113   3.211
31357WAT     H194313   6.137   5.038   3.277
31357WAT     H294314   6.059   5.162   3.205
31358WAT      O94315   4.129   8.838   3.242
31358WAT     H194316   4.215   8.845   3.191
31358WAT     H294317   4.061   8.792   3.185
31359WAT      O94318   2.129   3.453   7.296
31359WAT     H194319   2.227   3.461   7.315
31359WAT     H294320   2.113   3.375   7.235
31360WAT      O94321   2.396   0.110   9.609
31360WAT     H194322   2.438   0.131   9.521
31360WAT     H294323   2.298   0.094   9.596
31361WAT      O94324   4.489   9.332   7.405
31361WAT     H194325   4.555   9.315   7.478
31361WAT     H294326   4.416   9.263   7.408
31362WAT      O94327   8.773   3.247   0.920
31362WAT     H194328   8.762   3.308   0.842
31362WAT     H294329   8.822   3.294   0.994
31363WAT      O94330   6.146   8.784   6.343
31363WAT     H194331   6.141   8.724   6.263
31363WAT     H294332   6.083   8.861   6.330
31364WAT      O94333   8.856   6.950   2.378
31364WAT     H194334   8.940   6.990   2.340
31364WAT     H294335   8.787   6.944   2.305
31365WAT      O94336   3.539   7.411   0.968
31365WAT     H194337   3.614   7.367   1.018
31365WAT     H294338   3.455   7.357   0.979
31366WAT      O94339   0.352   4.841   6.972
31366WAT     H194340   0.284   4.815   7.040
31366WAT     H294341   0.312   4.904   6.906
31367WAT      O94342   3.033   2.703   5.135
31367WAT     H194343   3.094   2.701   5.056
31367WAT     H294344   3.035   2.615   5.181
31368WAT      O94345   7.373   9.754   2.924
31368WAT     H194346   7.282   9.771   2.963
31368WAT     H294347   7.409   9.840   2.887
31369WAT      O94348   0.108   6.586   6.337
31369WAT     H194349   0.034   6.540   6.288
31369WAT     H294350   0.146   6.524   6.406
31370WAT      O94351   3.684   0.611   9.881
31370WAT     H194352   3.776   0.605   9.842
31370WAT     H294353   3.687   0.663   9.966
31371WAT      O94354   1.908   2.316   3.178
31371WAT     H194355   1.911   2.416   3.188
31371WAT     H294356   1.856   2.293   3.096
31372WAT      O94357   2.252   5.351   0.717
31372WAT     H194358   2.186   5.424   0.734
31372WAT     H294359   2.246   5.282   0.789
31373WAT      O94360   1.577   4.403   7.397
31373WAT     H194361   1.543   4.358   7.480
31373WAT     H294362   1.567   4.502   7.406
31374WAT      O94363   8.983   7.733   8.514
31374WAT     H194364   9.076   7.760   8.537
31374WAT     H294365   8.924   7.745   8.594
31375WAT      O94366   5.084   4.364   1.861
31375WAT     H194367   5.163   4.306   1.842
31375WAT     H294368   5.114   4.445   1.911
31376WAT      O94369   6.730   6.780   1.834
31376WAT     H194370   6.681   6.845   1.891
31376WAT     H294371   6.730   6.690   1.877
31377WAT      O94372   6.214   9.032   3.443
31377WAT     H194373   6.265   9.093   3.382
31377WAT     H294374   6.221   8.938   3.409
31378WAT      O94375   9.073   9.365   7.529
31378WAT     H194376   8.976   9.388   7.522
31378WAT     H294377   9.128   9.446   7.511
31379WAT      O94378   7.398   6.045   2.039
31379WAT     H194379   7.442   6.065   1.951
31379WAT     H294380   7.387   6.129   2.092
31380WAT      O94381   3.008   0.392   7.184
31380WAT     H194382   2.915   0.415   7.211
31380WAT     H294383   3.056   0.352   7.263
31381WAT      O94384   7.944   0.388   0.975
31381WAT     H194385   7.944   0.445   0.893
31381WAT     H294386   7.937   0.445   1.056
31382WAT      O94387   1.603   7.929   6.349
31382WAT     H194388   1.702   7.921   6.337
31382WAT     H294389   1.571   7.854   6.406
31383WAT      O94390   5.729   0.916   5.015
31383WAT     H194391   5.791   0.980   4.969
31383WAT     H294392   5.640   0.960   5.028
31384WAT      O94393   7.168   5.858   7.521
31384WAT     H194394   7.192   5.784   7.458
31384WAT     H294395   7.081   5.898   7.494
31385WAT      O94396   8.474   8.619   0.140
31385WAT     H194397   8.400   8.679   0.110
31385WAT     H294398   8.434   8.538   0.184
31386WAT      O94399   6.881   6.424   3.945
31386WAT     H194400   6.869   6.327   3.965
31386WAT     H294401   6.951   6.462   4.006
31387WAT      O94402   4.435   5.587   0.725
31387WAT     H194403   4.497   5.626   0.792
31387WAT     H294404   4.344   5.576   0.765
31388WAT      O94405   3.963   1.950   6.934
31388WAT     H194406   3.954   1.932   6.837
31388WAT     H294407   4.002   2.041   6.948
31389WAT      O94408   4.123   9.546   0.141
31389WAT     H194409   4.096   9.534   0.046
31389WAT     H294410   4.167   9.635   0.153
31390WAT      O94411   6.775   2.948   6.325
31390WAT     H194412   6.778   2.863   6.378
31390WAT     H294413   6.828   3.019   6.372
31391WAT      O94414   3.227   3.039   2.778
31391WAT     H194415   3.274   3.084   2.854
31391WAT     H294416   3.128   3.046   2.792
31392WAT      O94417   2.071   6.045   8.724
31392WAT     H194418   2.165   6.078   8.721
31392WAT     H294419   2.024   6.086   8.801
31393WAT      O94420   1.909   3.840   0.790
31393WAT     H194421   1.839   3.834   0.719
31393WAT     H294422   1.995   3.872   0.750
31394WAT      O94423   9.429   7.801   0.987
31394WAT     H194424   9.524   7.792   0.955
31394WAT     H294425   9.426   7.865   1.063
31395WAT      O94426   2.337   9.094   0.841
31395WAT     H194427   2.327   8.995   0.845
31395WAT     H294428   2.422   9.117   0.795
31396WAT      O94429   9.006   1.947   1.853
31396WAT     H194430   8.906   1.946   1.849
31396WAT     H294431   9.044   1.956   1.761
31397WAT      O94432   9.110   5.851   5.255
31397WAT     H194433   9.206   5.846   5.280
31397WAT     H294434   9.094   5.932   5.199
31398WAT      O94435   3.144   5.308   1.516
31398WAT     H194436   3.137   5.367   1.436
31398WAT     H294437   3.239   5.305   1.547
31399WAT      O94438   7.152   1.813   8.176
31399WAT     H194439   7.241   1.791   8.215
31399WAT     H294440   7.108   1.884   8.231
31400WAT      O94441   3.274   7.733   1.093
31400WAT     H194442   3.218   7.743   1.011
31400WAT     H294443   3.233   7.666   1.154
31401WAT      O94444   1.941   4.083   5.651
31401WAT     H194445   1.911   4.018   5.581
31401WAT     H294446   1.862   4.116   5.702
31402WAT      O94447   0.433   2.594   0.516
31402WAT     H194448   0.503   2.661   0.493
31402WAT     H294449   0.470   2.526   0.579
31403WAT      O94450   7.221   4.258   1.320
31403WAT     H194451   7.202   4.344   1.368
31403WAT     H294452   7.155   4.246   1.246
31404WAT      O94453   0.018   0.921   2.061
31404WAT     H194454  -0.015   1.015   2.069
31404WAT     H294455   0.030   0.881   2.152
31405WAT      O94456   4.839   2.389   8.765
31405WAT     H194457   4.924   2.437   8.744
31405WAT     H294458   4.798   2.428   8.847
31406WAT      O94459   6.886   1.832   2.512
31406WAT     H194460   6.799   1.870   2.543
31406WAT     H294461   6.947   1.822   2.590
31407WAT      O94462   3.445   1.800   3.744
31407WAT     H194463   3.362   1.743   3.746
31407WAT     H294464   3.512   1.759   3.683
31408WAT      O94465   1.408   4.044   8.596
31408WAT     H194466   1.318   4.087   8.607
31408WAT     H294467   1.424   3.981   8.672
31409WAT      O94468   7.407   2.436   4.939
31409WAT     H194469   7.370   2.523   4.906
31409WAT     H294470   7.446   2.448   5.030
31410WAT      O94471   8.729   4.872   1.304
31410WAT     H194472   8.776   4.959   1.318
31410WAT     H294473   8.768   4.826   1.225
31411WAT      O94474   0.463   4.913   4.892
31411WAT     H194475   0.559   4.899   4.916
31411WAT     H294476   0.435   5.005   4.920
31412WAT      O94477   7.470   4.181   0.020
31412WAT     H194478   7.448   4.216  -0.071
31412WAT     H294479   7.538   4.108   0.013
31413WAT      O94480   8.005   1.190   0.965
31413WAT     H194481   8.020   1.259   0.894
31413WAT     H294482   8.090   1.173   1.013
31414WAT      O94483   9.259   8.223   1.925
31414WAT     H194484   9.343   8.217   1.870
31414WAT     H294485   9.186   8.264   1.871
31415WAT      O94486   0.386   3.203   8.336
31415WAT     H194487   0.469   3.209   8.391
31415WAT     H294488   0.350   3.295   8.320
31416WAT      O94489   8.316   5.354   1.966
31416WAT     H194490   8.230   5.405   1.965
31416WAT     H294491   8.391   5.415   1.937
31417WAT      O94492   2.426   4.252   9.530
31417WAT     H194493   2.513   4.203   9.532
31417WAT     H294494   2.400   4.269   9.435
31418WAT      O94495   2.776   3.880   8.641
31418WAT     H194496   2.813   3.907   8.730
31418WAT     H294497   2.697   3.821   8.655
31419WAT      O94498   5.976   1.412   7.672
31419WAT     H194499   6.030   1.364   7.741
31419WAT     H294500   6.014   1.395   7.581
31420WAT      O94501   4.760   2.804   4.677
31420WAT     H194502   4.719   2.891   4.651
31420WAT     H294503   4.770   2.746   4.597
31421WAT      O94504   4.888   7.721   4.689
31421WAT     H194505   4.829   7.730   4.769
31421WAT     H294506   4.932   7.631   4.690
31422WAT      O94507   7.234   7.677   7.792
31422WAT     H194508   7.275   7.700   7.881
31422WAT     H294509   7.303   7.685   7.721
31423WAT      O94510   4.463   5.432   9.001
31423WAT     H194511   4.408   5.351   9.022
31423WAT     H294512   4.453   5.499   9.074
31424WAT      O94513   6.761   1.174   7.338
31424WAT     H194514   6.768   1.273   7.328
31424WAT     H294515   6.821   1.130   7.272
31425WAT      O94516   8.838   0.760   7.686
31425WAT     H194517   8.827   0.697   7.763
31425WAT     H294518   8.930   0.799   7.688
31426WAT      O94519   8.774   2.960   7.957
31426WAT     H194520   8.832   3.038   7.979
31426WAT     H294521   8.750   2.963   7.860
31427WAT      O94522   5.949   9.311   0.240
31427WAT     H194523   5.958   9.249   0.162
31427WAT     H294524   5.912   9.262   0.318
31428WAT      O94525   6.918   3.741   6.023
31428WAT     H194526   6.942   3.644   6.015
31428WAT     H294527   6.977   3.794   5.962
31429WAT      O94528   3.818   1.928   8.237
31429WAT     H194529   3.766   1.978   8.307
31429WAT     H294530   3.755   1.898   8.165
31430WAT      O94531   3.705   0.058   6.290
31430WAT     H194532   3.762   0.126   6.337
31430WAT     H294533   3.625   0.103   6.252
31431WAT      O94534   0.563   3.470   5.275
31431WAT     H194535   0.656   3.469   5.238
31431WAT     H294536   0.498   3.477   5.200
31432WAT      O94537   1.922   6.527   8.887
31432WAT     H194538   2.018   6.539   8.862
31432WAT     H294539   1.866   6.591   8.835
31433WAT      O94540   7.035   8.942   5.479
31433WAT     H194541   7.007   8.972   5.571
31433WAT     H294542   7.040   8.842   5.478
31434WAT      O94543   5.263   2.672   9.577
31434WAT     H194544   5.310   2.584   9.583
31434WAT     H294545   5.330   2.746   9.569
31435WAT      O94546   2.549   4.074   8.517
31435WAT     H194547   2.547   4.173   8.528
31435WAT     H294548   2.579   4.032   8.603
31436WAT      O94549   3.978   2.557   3.311
31436WAT     H194550   3.934   2.471   3.339
31436WAT     H294551   4.037   2.589   3.384
31437WAT      O94552   5.561   7.317   3.084
31437WAT     H194553   5.496   7.257   3.129
31437WAT     H294554   5.622   7.358   3.151
31438WAT      O94555   9.317   0.622   0.907
31438WAT     H194556   9.327   0.523   0.893
31438WAT     H294557   9.233   0.654   0.862
31439WAT      O94558   2.470   4.271   8.700
31439WAT     H194559   2.457   4.356   8.750
31439WAT     H294560   2.440   4.194   8.756
31440WAT      O94561   3.495   5.860   2.028
31440WAT     H194562   3.401   5.884   2.052
31440WAT     H294563   3.497   5.766   1.992
31441WAT      O94564   9.377   9.655   4.027
31441WAT     H194565   9.403   9.653   4.123
31441WAT     H294566   9.294   9.600   4.013
31442WAT      O94567   1.177   2.251   4.438
31442WAT     H194568   1.103   2.187   4.461
31442WAT     H294569   1.165   2.283   4.344
31443WAT      O94570   7.181   9.771   4.998
31443WAT     H194571   7.125   9.753   4.917
31443WAT     H294572   7.126   9.818   5.067
31444WAT      O94573   4.666   2.594   0.064
31444WAT     H194574   4.606   2.552  -0.004
31444WAT     H294575   4.619   2.671   0.106
31445WAT      O94576   2.224   2.471   9.563
31445WAT     H194577   2.212   2.446   9.659
31445WAT     H294578   2.232   2.570   9.554
31446WAT      O94579   5.588   4.630   0.686
31446WAT     H194580   5.533   4.688   0.627
31446WAT     H294581   5.659   4.584   0.632
31447WAT      O94582   7.287   7.316   4.843
31447WAT     H194583   7.303   7.403   4.888
31447WAT     H294584   7.254   7.249   4.909
31448WAT      O94585   9.483   1.790   2.810
31448WAT     H194586   9.420   1.726   2.767
31448WAT     H294587   9.543   1.831   2.741
31449WAT      O94588   2.928   3.414   1.903
31449WAT     H194589   2.957   3.337   1.960
31449WAT     H294590   2.964   3.499   1.941
31450WAT      O94591   0.644   3.896   5.921
31450WAT     H194592   0.590   3.864   5.843
31450WAT     H294593   0.729   3.937   5.889
31451WAT      O94594   6.901   7.810   5.057
31451WAT     H194595   6.960   7.889   5.037
31451WAT     H294596   6.890   7.755   4.975
31452WAT      O94597   5.752   2.216   2.726
31452WAT     H194598   5.732   2.135   2.780
31452WAT     H294599   5.685   2.287   2.746
31453WAT      O94600   1.747   1.818   1.999
31453WAT     H194601   1.839   1.805   2.037
31453WAT     H294602   1.700   1.730   1.993
31454WAT      O94603   7.874   8.037   5.102
31454WAT     H194604   7.910   8.097   5.173
31454WAT     H294605   7.921   8.055   5.016
31455WAT      O94606   8.002   8.187   5.283
31455WAT     H194607   8.040   8.177   5.375
31455WAT     H294608   8.072   8.163   5.215
31456WAT      O94609   8.339   1.146   4.350
31456WAT     H194610   8.402   1.223   4.350
31456WAT     H294611   8.390   1.060   4.338
31457WAT      O94612   3.487   4.088   0.423
31457WAT     H194613   3.551   4.032   0.369
31457WAT     H294614   3.527   4.178   0.437
31458WAT      O94615   9.217   4.042   9.581
31458WAT     H194616   9.193   3.951   9.549
31458WAT     H294617   9.230   4.103   9.503
31459WAT      O94618   5.127   9.288   4.665
31459WAT     H194619   5.168   9.251   4.582
31459WAT     H294620   5.095   9.381   4.647
31460WAT      O94621   1.801   9.563   9.818
31460WAT     H194622   1.838   9.614   9.896
31460WAT     H294623   1.830   9.607   9.733
31461WAT      O94624   7.675   7.475   9.078
31461WAT     H194625   7.728   7.518   9.152
31461WAT     H294626   7.664   7.377   9.098
31462WAT      O94627   0.200   2.363   8.218
31462WAT     H194628   0.260   2.417   8.277
31462WAT     H294629   0.179   2.414   8.135
31463WAT      O94630   2.511   4.184   0.804
31463WAT     H194631   2.539   4.280   0.813
31463WAT     H294632   2.413   4.176   0.822
31464WAT      O94633   7.355   9.697   3.205
31464WAT     H194634   7.340   9.688   3.106
31464WAT     H294635   7.453   9.693   3.225
31465WAT      O94636   0.352   7.970   2.039
31465WAT     H194637   0.441   8.013   2.053
31465WAT     H294638   0.300   8.023   1.972
31466WAT      O94639   0.024   1.792   7.463
31466WAT     H194640  -0.034   1.732   7.517
31466WAT     H294641   0.107   1.815   7.515
31467WAT      O94642   6.702   5.293   6.317
31467WAT     H194643   6.742   5.380   6.344
31467WAT     H294644   6.613   5.282   6.360
31468WAT      O94645   5.447   6.399   2.039
31468WAT     H194646   5.466   6.310   1.998
31468WAT     H294647   5.349   6.420   2.030
31469WAT      O94648   1.632   1.081   8.747
31469WAT     H194649   1.665   0.990   8.721
31469WAT     H294650   1.680   1.112   8.829
31470WAT      O94651   5.177   6.190   3.991
31470WAT     H194652   5.150   6.241   3.910
31470WAT     H294653   5.247   6.242   4.041
31471WAT      O94654   3.927   6.362   1.974
31471WAT     H194655   3.950   6.432   2.041
31471WAT     H294656   3.934   6.271   2.016
31472WAT      O94657   1.605   1.316   4.046
31472WAT     H194658   1.612   1.347   4.141
31472WAT     H294659   1.655   1.231   4.035
31473WAT      O94660   9.796   4.633   1.286
31473WAT     H194661   9.819   4.700   1.357
31473WAT     H294662   9.729   4.672   1.224
31474WAT      O94663   1.186   0.862   6.731
31474WAT     H194664   1.265   0.877   6.790
31474WAT     H294665   1.206   0.894   6.638
31475WAT      O94666   5.893   8.010   5.002
31475WAT     H194667   5.946   7.997   5.086
31475WAT     H294668   5.798   7.984   5.017
31476WAT      O94669   5.496   6.648   0.131
31476WAT     H194670   5.426   6.713   0.101
31476WAT     H294671   5.530   6.675   0.221
31477WAT      O94672   2.145   8.337   6.957
31477WAT     H194673   2.093   8.344   7.042
31477WAT     H294674   2.221   8.401   6.958
31478WAT      O94675   5.469   8.960   4.917
31478WAT     H194676   5.389   9.010   4.952
31478WAT     H294677   5.546   8.973   4.979
31479WAT      O94678   8.561   9.543   8.815
31479WAT     H194679   8.497   9.537   8.738
31479WAT     H294680   8.641   9.597   8.787
31480WAT      O94681   8.496   5.295   4.094
31480WAT     H194682   8.469   5.208   4.054
31480WAT     H294683   8.595   5.296   4.107
31481WAT      O94684   0.346   5.318   8.084
31481WAT     H194685   0.265   5.362   8.046
31481WAT     H294686   0.323   5.226   8.115
31482WAT      O94687   4.606   2.118   9.348
31482WAT     H194688   4.570   2.106   9.256
31482WAT     H294689   4.530   2.126   9.413
31483WAT      O94690   3.555   2.035   7.147
31483WAT     H194691   3.501   1.966   7.098
31483WAT     H294692   3.522   2.043   7.241
31484WAT      O94693   7.495   7.274   7.918
31484WAT     H194694   7.449   7.317   7.996
31484WAT     H294695   7.432   7.211   7.873
31485WAT      O94696   9.665   5.019   6.877
31485WAT     H194697   9.632   5.098   6.825
31485WAT     H294698   9.750   4.986   6.836
31486WAT      O94699   1.599   7.122   6.970
31486WAT     H194700   1.598   7.082   7.062
31486WAT     H294701   1.693   7.131   6.938
31487WAT      O94702   0.389   5.647   0.479
31487WAT     H194703   0.457   5.583   0.441
31487WAT     H294704   0.326   5.598   0.538
31488WAT      O94705   7.516   0.399   9.625
31488WAT     H194706   7.602   0.350   9.619
31488WAT     H294707   7.517   0.477   9.562
31489WAT      O94708   5.067   0.463   0.027
31489WAT     H194709   5.069   0.525   0.105
31489WAT     H294710   5.153   0.410   0.025
31490WAT      O94711   1.831   2.576   5.125
31490WAT     H194712   1.892   2.637   5.174
31490WAT     H294713   1.872   2.485   5.118
31491WAT      O94714   7.312   5.146   4.222
31491WAT     H194715   7.339   5.242   4.225
31491WAT     H294716   7.222   5.136   4.263
31492WAT      O94717   0.900   5.162   1.027
31492WAT     H194718   0.830   5.214   1.077
31492WAT     H294719   0.905   5.195   0.933
31493WAT      O94720   7.085   8.346   3.520
31493WAT     H194721   7.006   8.341   3.459
31493WAT     H294722   7.117   8.253   3.539
31494WAT      O94723   1.395   9.135   2.624
31494WAT     H194724   1.411   9.095   2.714
31494WAT     H294725   1.475   9.188   2.596
31495WAT      O94726   7.582   3.864   6.263
31495WAT     H194727   7.633   3.780   6.244
31495WAT     H294728   7.646   3.939   6.276
31496WAT      O94729   5.312   0.152   6.058
31496WAT     H194730   5.411   0.169   6.048
31496WAT     H294731   5.291   0.140   6.155
31497WAT      O94732   2.862   5.783   1.083
31497WAT     H194733   2.862   5.798   1.182
31497WAT     H294734   2.793   5.842   1.041
31498WAT      O94735   7.159   7.111   3.691
31498WAT     H194736   7.103   7.035   3.722
31498WAT     H294737   7.104   7.194   3.687
31499WAT      O94738   5.748   1.497   6.577
31499WAT     H194739   5.683   1.533   6.510
31499WAT     H294740   5.833   1.472   6.531
31500WAT      O94741   8.257   1.312   5.806
31500WAT     H194742   8.230   1.405   5.780
31500WAT     H294743   8.346   1.315   5.853
31501WAT      O94744   6.569   6.961   5.849
31501WAT     H194745   6.501   7.032   5.864
31501WAT     H294746   6.610   6.934   5.936
31502WAT      O94747   1.064   5.533   1.381
31502WAT     H194748   1.085   5.442   1.416
31502WAT     H294749   1.006   5.581   1.448
31503WAT      O94750   6.709   4.504   9.844
31503WAT     H194751   6.756   4.443   9.781
31503WAT     H294752   6.612   4.510   9.820
31504WAT      O94753   4.259   9.006   4.383
31504WAT     H194754   4.282   9.061   4.463
31504WAT     H294755   4.258   9.064   4.301
31505WAT      O94756   1.162   8.787   9.638
31505WAT     H194757   1.121   8.827   9.720
31505WAT     H294758   1.147   8.848   9.560
31506WAT      O94759   5.115   2.066   8.891
31506WAT     H194760   5.017   2.086   8.893
31506WAT     H294761   5.149   2.061   8.985
31507WAT      O94762   3.719   0.661   8.356
31507WAT     H194763   3.761   0.741   8.399
31507WAT     H294764   3.785   0.618   8.294
31508WAT      O94765   7.349   1.545   4.742
31508WAT     H194766   7.384   1.564   4.650
31508WAT     H294767   7.358   1.627   4.798
31509WAT      O94768   8.736   5.708   5.338
31509WAT     H194769   8.799   5.688   5.262
31509WAT     H294770   8.682   5.626   5.357
31510WAT      O94771   2.932   3.061   8.100
31510WAT     H194772   2.841   3.066   8.060
31510WAT     H294773   2.968   2.968   8.090
31511WAT      O94774   4.329   8.833   4.705
31511WAT     H194775   4.250   8.894   4.710
31511WAT     H294776   4.353   8.802   4.796
31512WAT      O94777   3.363   1.324   8.349
31512WAT     H194778   3.297   1.283   8.412
31512WAT     H294779   3.315   1.385   8.285
31513WAT      O94780   8.052   9.544   6.003
31513WAT     H194781   7.968   9.530   6.057
31513WAT     H294782   8.130   9.508   6.053
31514WAT      O94783   2.364   6.466   3.558
31514WAT     H194784   2.342   6.520   3.477
31514WAT     H294785   2.443   6.506   3.605
31515WAT      O94786   3.109   4.728   0.674
31515WAT     H194787   3.155   4.669   0.740
31515WAT     H294788   3.074   4.674   0.598
31516WAT      O94789   0.255   8.843   0.393
31516WAT     H194790   0.187   8.780   0.357
31516WAT     H294791   0.333   8.791   0.428
31517WAT      O94792   3.779   8.518   6.662
31517WAT     H194793   3.825   8.607   6.662
31517WAT     H294794   3.708   8.517   6.592
31518WAT      O94795   9.601   2.175   1.504
31518WAT     H194796   9.614   2.259   1.451
31518WAT     H294797   9.690   2.133   1.522
31519WAT      O94798   5.309   7.827   8.570
31519WAT     H194799   5.357   7.905   8.610
31519WAT     H294800   5.234   7.799   8.630
31520WAT      O94801   3.817   7.276   3.020
31520WAT     H194802   3.720   7.267   3.000
31520WAT     H294803   3.868   7.206   2.970
31521WAT      O94804   0.730   6.916   9.698
31521WAT     H194805   0.678   6.886   9.618
31521WAT     H294806   0.671   6.917   9.779
31522WAT      O94807   2.565   7.723   2.671
31522WAT     H194808   2.601   7.755   2.759
31522WAT     H294809   2.548   7.801   2.611
31523WAT      O94810   3.681   4.811   1.155
31523WAT     H194811   3.772   4.818   1.197
31523WAT     H294812   3.655   4.715   1.150
31524WAT      O94813   8.712   6.859   7.570
31524WAT     H194814   8.725   6.956   7.592
31524WAT     H294815   8.780   6.831   7.502
31525WAT      O94816   8.130   3.380   0.471
31525WAT     H194817   8.106   3.338   0.559
31525WAT     H294818   8.228   3.369   0.455
31526WAT      O94819   6.226   0.474   5.594
31526WAT     H194820   6.136   0.430   5.591
31526WAT     H294821   6.273   0.461   5.506
31527WAT      O94822   3.146   8.746   6.469
31527WAT     H194823   3.242   8.764   6.489
31527WAT     H294824   3.098   8.721   6.553
31528WAT      O94825   9.757   8.678   4.547
31528WAT     H194826   9.702   8.667   4.630
31528WAT     H294827   9.821   8.753   4.559
31529WAT      O94828   0.471   1.087   6.290
31529WAT     H194829   0.422   1.128   6.214
31529WAT     H294830   0.420   1.103   6.375
31530WAT      O94831   6.026   7.573   5.262
31530WAT     H194832   6.027   7.629   5.345
31530WAT     H294833   6.055   7.480   5.284
31531WAT      O94834   0.331   8.737   5.315
31531WAT     H194835   0.348   8.823   5.362
31531WAT     H294836   0.418   8.697   5.287
31532WAT      O94837   8.198   1.586   2.063
31532WAT     H194838   8.266   1.565   1.992
31532WAT     H294839   8.203   1.682   2.087
31533WAT      O94840   1.918   9.649   8.880
31533WAT     H194841   1.949   9.566   8.836
31533WAT     H294842   1.940   9.646   8.978
31534WAT      O94843   2.163   0.671   2.915
31534WAT     H194844   2.095   0.598   2.923
31534WAT     H294845   2.247   0.644   2.963
31535WAT      O94846   9.094   9.585   6.532
31535WAT     H194847   9.171   9.612   6.475
31535WAT     H294848   9.125   9.526   6.606
31536WAT      O94849   3.350   0.052   9.855
31536WAT     H194850   3.285   0.123   9.826
31536WAT     H294851   3.356   0.051   9.955
31537WAT      O94852   4.033   8.642   0.309
31537WAT     H194853   3.992   8.703   0.241
31537WAT     H294854   4.000   8.667   0.400
31538WAT      O94855   5.836   1.320   1.805
31538WAT     H194856   5.853   1.222   1.804
31538WAT     H294857   5.850   1.356   1.897
31539WAT      O94858   8.341   0.953   4.658
31539WAT     H194859   8.386   0.930   4.571
31539WAT     H294860   8.406   1.001   4.717
31540WAT      O94861   6.623   2.537   2.863
31540WAT     H194862   6.573   2.595   2.928
31540WAT     H294863   6.720   2.558   2.869
31541WAT      O94864   6.232   5.359   1.085
31541WAT     H194865   6.243   5.370   0.986
31541WAT     H294866   6.298   5.418   1.132
31542WAT      O94867   6.038   4.342   6.730
31542WAT     H194868   5.942   4.344   6.701
31542WAT     H294869   6.097   4.366   6.652
31543WAT      O94870   8.560   3.569   2.419
31543WAT     H194871   8.601   3.659   2.407
31543WAT     H294872   8.545   3.526   2.330
31544WAT      O94873   2.951   5.525   6.724
31544WAT     H194874   3.035   5.503   6.775
31544WAT     H294875   2.875   5.472   6.761
31545WAT      O94876   3.737   8.353   2.887
31545WAT     H194877   3.718   8.257   2.908
31545WAT     H294878   3.657   8.408   2.911
31546WAT      O94879   1.477   4.765   9.125
31546WAT     H194880   1.449   4.751   9.220
31546WAT     H294881   1.398   4.794   9.071
31547WAT      O94882   5.952   4.521   7.764
31547WAT     H194883   5.994   4.494   7.850
31547WAT     H294884   6.001   4.477   7.688
31548WAT      O94885   5.796   0.451   1.093
31548WAT     H194886   5.763   0.360   1.116
31548WAT     H294887   5.892   0.445   1.066
31549WAT      O94888   8.486   6.800   9.207
31549WAT     H194889   8.430   6.793   9.125
31549WAT     H294890   8.510   6.896   9.223
31550WAT      O94891   8.506   1.504   6.615
31550WAT     H194892   8.485   1.544   6.704
31550WAT     H294893   8.511   1.405   6.623
31551WAT      O94894   3.709   5.992   7.786
31551WAT     H194895   3.697   6.091   7.784
31551WAT     H294896   3.625   5.949   7.819
31552WAT      O94897   8.285   0.716   6.795
31552WAT     H194898   8.313   0.646   6.861
31552WAT     H294899   8.321   0.693   6.705
31553WAT      O94900   0.863   7.238   2.437
31553WAT     H194901   0.941   7.176   2.438
31553WAT     H294902   0.780   7.187   2.414
31554WAT      O94903   8.767   7.157   7.261
31554WAT     H194904   8.700   7.107   7.315
31554WAT     H294905   8.720   7.210   7.191
31555WAT      O94906   4.931   8.848   4.390
31555WAT     H194907   4.965   8.891   4.306
31555WAT     H294908   4.937   8.749   4.381
31556WAT      O94909   0.430   8.402   0.566
31556WAT     H194910   0.337   8.372   0.546
31556WAT     H294911   0.427   8.486   0.620
31557WAT      O94912   2.611   5.354   0.052
31557WAT     H194913   2.672   5.423   0.013
31557WAT     H294914   2.519   5.393   0.064
31558WAT      O94915   1.257   6.802   2.231
31558WAT     H194916   1.319   6.874   2.200
31558WAT     H294917   1.285   6.715   2.190
31559WAT      O94918   7.237   2.284   7.419
31559WAT     H194919   7.240   2.242   7.328
31559WAT     H294920   7.204   2.378   7.411
31560WAT      O94921   1.393   9.426   6.607
31560WAT     H194922   1.454   9.459   6.679
31560WAT     H294923   1.434   9.346   6.564
31561WAT      O94924   2.174   2.091   4.927
31561WAT     H194925   2.104   2.158   4.901
31561WAT     H294926   2.179   2.020   4.857
31562WAT      O94927   8.046   8.581   1.223
31562WAT     H194928   8.100   8.654   1.266
31562WAT     H294929   7.997   8.530   1.293
31563WAT      O94930   9.179   0.449   0.580
31563WAT     H194931   9.091   0.456   0.532
31563WAT     H294932   9.247   0.411   0.518
31564WAT      O94933   5.547   8.777   1.609
31564WAT     H194934   5.575   8.783   1.705
31564WAT     H294935   5.617   8.729   1.556
31565WAT      O94936   0.151   8.999   2.773
31565WAT     H194937   0.138   9.036   2.681
31565WAT     H294938   0.071   8.946   2.799
31566WAT      O94939   2.375   9.070   1.514
31566WAT     H194940   2.343   9.158   1.548
31566WAT     H294941   2.316   8.997   1.548
31567WAT      O94942   4.262   0.146   3.168
31567WAT     H194943   4.328   0.074   3.190
31567WAT     H294944   4.310   0.233   3.158
31568WAT      O94945   4.742   1.559   6.908
31568WAT     H194946   4.742   1.467   6.946
31568WAT     H294947   4.799   1.619   6.965
31569WAT      O94948   4.323   9.133   1.520
31569WAT     H194949   4.297   9.147   1.616
31569WAT     H294950   4.354   9.220   1.481
31570WAT      O94951   6.392   7.846   6.282
31570WAT     H194952   6.490   7.825   6.275
31570WAT     H294953   6.345   7.771   6.328
31571WAT      O94954   6.714   1.079   4.508
31571WAT     H194955   6.778   1.052   4.436
31571WAT     H294956   6.762   1.085   4.595
31572WAT      O94957   5.780   0.836   1.736
31572WAT     H194958   5.813   0.897   1.663
31572WAT     H294959   5.684   0.813   1.720
31573WAT      O94960   9.250   5.221   3.909
31573WAT     H194961   9.211   5.227   3.817
31573WAT     H294962   9.340   5.266   3.911
31574WAT      O94963   1.585   2.391   2.446
31574WAT     H194964   1.649   2.441   2.388
31574WAT     H294965   1.497   2.384   2.399
31575WAT      O94966   5.133   4.618   1.046
31575WAT     H194967   5.105   4.704   1.003
31575WAT     H294968   5.195   4.637   1.122
31576WAT      O94969   8.602   8.109   1.186
31576WAT     H194970   8.513   8.063   1.184
31576WAT     H294971   8.622   8.139   1.280
31577WAT      O94972   5.990   4.304   2.875
31577WAT     H194973   5.935   4.230   2.915
31577WAT     H294974   5.929   4.370   2.831
31578WAT      O94975   7.917   4.672   1.441
31578WAT     H194976   7.886   4.723   1.521
31578WAT     H294977   8.007   4.705   1.413
31579WAT      O94978   6.182   9.031   1.810
31579WAT     H194979   6.222   8.960   1.753
31579WAT     H294980   6.083   9.030   1.801
31580WAT      O94981   8.372   4.061   6.588
31580WAT     H194982   8.287   4.051   6.536
31580WAT     H294983   8.375   3.993   6.662
31581WAT      O94984   1.146   0.377   0.180
31581WAT     H194985   1.151   0.475   0.161
31581WAT     H294986   1.137   0.328   0.093
31582WAT      O94987   3.256   7.176   4.234
31582WAT     H194988   3.277   7.104   4.301
31582WAT     H294989   3.157   7.184   4.222
31583WAT      O94990   3.621   0.399   0.546
31583WAT     H194991   3.544   0.338   0.567
31583WAT     H294992   3.668   0.367   0.464
31584WAT      O94993   0.196   4.604   1.478
31584WAT     H194994   0.114   4.655   1.453
31584WAT     H294995   0.196   4.515   1.431
31585WAT      O94996   9.021   8.176   4.206
31585WAT     H194997   8.997   8.120   4.286
31585WAT     H294998   9.121   8.181   4.198
31586WAT      O94999   0.941   4.997   9.315
31586WAT     H195000   0.843   4.983   9.332
31586WAT     H295001   0.991   4.916   9.347
31587WAT      O95002   5.896   0.063   5.892
31587WAT     H195003   5.851  -0.017   5.930
31587WAT     H295004   5.995   0.055   5.903
31588WAT      O95005   9.451   4.373   6.450
31588WAT     H195006   9.537   4.323   6.443
31588WAT     H295007   9.425   4.381   6.547
31589WAT      O95008   0.788   6.525   1.630
31589WAT     H195009   0.699   6.562   1.602
31589WAT     H295010   0.810   6.558   1.722
31590WAT      O95011   3.617   1.772   6.246
31590WAT     H195012   3.589   1.758   6.151
31590WAT     H295013   3.709   1.813   6.248
31591WAT      O95014   1.973   8.767   8.136
31591WAT     H195015   2.042   8.702   8.168
31591WAT     H295016   1.894   8.766   8.196
31592WAT      O95017   4.619   0.815   5.794
31592WAT     H195018   4.655   0.735   5.842
31592WAT     H295019   4.529   0.838   5.832
31593WAT      O95020   6.119   6.025   5.977
31593WAT     H195021   6.164   6.006   5.889
31593WAT     H295022   6.042   5.962   5.989
31594WAT      O95023   3.716   4.629   9.376
31594WAT     H195024   3.676   4.541   9.399
31594WAT     H295025   3.683   4.698   9.440
31595WAT      O95026   6.716   1.157   3.728
31595WAT     H195027   6.700   1.255   3.735
31595WAT     H295028   6.649   1.117   3.666
31596WAT      O95029   1.493   1.290   1.784
31596WAT     H195030   1.545   1.345   1.720
31596WAT     H295031   1.497   1.193   1.757
31597WAT      O95032   1.650   8.311   5.160
31597WAT     H195033   1.720   8.360   5.212
31597WAT     H295034   1.643   8.350   5.069
31598WAT      O95035   0.025   6.802   1.399
31598WAT     H195036   0.020   6.900   1.380
31598WAT     H295037   0.120   6.777   1.418
31599WAT      O95038   3.595   3.287   7.908
31599WAT     H195039   3.620   3.354   7.837
31599WAT     H295040   3.576   3.199   7.865
31600WAT      O95041   1.367   4.882   3.290
31600WAT     H195042   1.334   4.909   3.381
31600WAT     H295043   1.313   4.804   3.258
31601WAT      O95044   8.373   5.069   1.432
31601WAT     H195045   8.394   5.128   1.354
31601WAT     H295046   8.407   4.976   1.414
31602WAT      O95047   0.794   4.530   9.525
31602WAT     H195048   0.796   4.581   9.439
31602WAT     H295049   0.843   4.444   9.514
31603WAT      O95050   0.226   3.228   2.800
31603WAT     H195051   0.317   3.247   2.837
31603WAT     H295052   0.197   3.305   2.743
31604WAT      O95053   9.369   5.271   7.028
31604WAT     H195054   9.297   5.259   7.097
31604WAT     H295055   9.449   5.314   7.071
31605WAT      O95056   3.465   6.662   0.037
31605WAT     H195057   3.534   6.617   0.093
31605WAT     H295058   3.419   6.733   0.090
31606WAT      O95059   1.812   0.851   1.289
31606WAT     H195060   1.854   0.814   1.372
31606WAT     H295061   1.840   0.946   1.277
31607WAT      O95062   4.057   3.792   5.376
31607WAT     H195063   4.037   3.889   5.390
31607WAT     H295064   4.132   3.783   5.311
31608WAT      O95065   0.694   6.151   5.120
31608WAT     H195066   0.726   6.088   5.049
31608WAT     H295067   0.763   6.157   5.192
31609WAT      O95068   9.474   6.704   4.814
31609WAT     H195069   9.513   6.613   4.795
31609WAT     H295070   9.403   6.724   4.748
31610WAT      O95071   4.908   9.034   6.336
31610WAT     H195072   4.824   8.980   6.328
31610WAT     H295073   4.941   9.058   6.245
31611WAT      O95074   1.582   3.597   9.497
31611WAT     H195075   1.508   3.542   9.535
31611WAT     H295076   1.594   3.576   9.400
31612WAT      O95077   1.961   7.595   3.308
31612WAT     H195078   1.877   7.611   3.360
31612WAT     H295079   1.948   7.628   3.214
31613WAT      O95080   3.185   2.415   2.650
31613WAT     H195081   3.243   2.453   2.722
31613WAT     H295082   3.090   2.410   2.683
31614WAT      O95083   6.458   2.635   9.668
31614WAT     H195084   6.543   2.583   9.663
31614WAT     H295085   6.417   2.622   9.758
31615WAT      O95086   5.048   5.623   2.260
31615WAT     H195087   5.036   5.553   2.331
31615WAT     H295088   5.085   5.581   2.178
31616WAT      O95089   6.005   1.623   5.490
31616WAT     H195090   6.026   1.670   5.405
31616WAT     H295091   5.951   1.683   5.549
31617WAT      O95092   1.078   7.997   3.126
31617WAT     H195093   1.171   7.960   3.122
31617WAT     H295094   1.074   8.081   3.072
31618WAT      O95095   7.629   3.199   8.285
31618WAT     H195096   7.575   3.275   8.321
31618WAT     H295097   7.622   3.120   8.347
31619WAT      O95098   2.181   7.217   7.227
31619WAT     H195099   2.185   7.316   7.212
31619WAT     H295100   2.148   7.172   7.145
31620WAT      O95101   8.758   3.373   9.460
31620WAT     H195102   8.667   3.371   9.500
31620WAT     H295103   8.760   3.437   9.383
31621WAT      O95104   0.729   2.772   5.170
31621WAT     H195105   0.634   2.757   5.146
31621WAT     H295106   0.739   2.862   5.213
31622WAT      O95107   2.652   0.465   8.713
31622WAT     H195108   2.631   0.528   8.639
31622WAT     H295109   2.596   0.488   8.793
31623WAT      O95110   4.748   6.392   6.686
31623WAT     H195111   4.802   6.449   6.749
31623WAT     H295112   4.807   6.359   6.612
31624WAT      O95113   4.731   7.971   4.951
31624WAT     H195114   4.794   7.923   5.013
31624WAT     H295115   4.782   8.038   4.898
31625WAT      O95116   2.102   9.423   1.787
31625WAT     H195117   2.143   9.472   1.864
31625WAT     H295118   2.034   9.358   1.820
31626WAT      O95119   1.791   8.270   0.665
31626WAT     H195120   1.885   8.260   0.631
31626WAT     H295121   1.761   8.364   0.650
31627WAT      O95122   4.676   3.732   3.310
31627WAT     H195123   4.715   3.719   3.401
31627WAT     H295124   4.601   3.798   3.315
31628WAT      O95125   1.328   5.731   8.346
31628WAT     H195126   1.334   5.791   8.266
31628WAT     H295127   1.255   5.665   8.332
31629WAT      O95128   0.278   7.806   8.104
31629WAT     H195129   0.241   7.744   8.173
31629WAT     H295130   0.274   7.762   8.014
31630WAT      O95131   4.908   6.059   4.932
31630WAT     H195132   4.864   6.008   5.005
31630WAT     H295133   4.925   6.153   4.963
31631WAT      O95134   6.534   2.876   1.645
31631WAT     H195135   6.559   2.834   1.558
31631WAT     H295136   6.446   2.923   1.635
31632WAT      O95137   2.922   6.009   1.561
31632WAT     H195138   3.017   5.988   1.583
31632WAT     H295139   2.919   6.074   1.486
31633WAT      O95140   7.633   7.815   9.250
31633WAT     H195141   7.701   7.742   9.249
31633WAT     H295142   7.628   7.855   9.342
31634WAT      O95143   1.148   4.387   9.211
31634WAT     H195144   1.247   4.386   9.197
31634WAT     H295145   1.127   4.413   9.305
31635WAT      O95146   0.235   6.106   4.022
31635WAT     H195147   0.148   6.140   4.055
31635WAT     H295148   0.244   6.126   3.924
31636WAT      O95149   1.802   2.290   8.841
31636WAT     H195150   1.707   2.313   8.859
31636WAT     H295151   1.807   2.199   8.798
31637WAT      O95152   9.867   6.350   0.891
31637WAT     H195153   9.779   6.308   0.912
31637WAT     H295154   9.935   6.321   0.958
31638WAT      O95155   5.877   1.111   7.714
31638WAT     H195156   5.858   1.054   7.794
31638WAT     H295157   5.928   1.193   7.743
31639WAT      O95158   8.194   3.929   3.970
31639WAT     H195159   8.186   4.004   4.037
31639WAT     H295160   8.290   3.909   3.953
31640WAT      O95161   3.077   2.612   3.079
31640WAT     H195162   3.060   2.708   3.054
31640WAT     H295163   3.021   2.552   3.023
31641WAT      O95164   5.531   0.238   9.788
31641WAT     H195165   5.508   0.317   9.731
31641WAT     H295166   5.485   0.157   9.752
31642WAT      O95167   2.561   7.341   0.765
31642WAT     H195168   2.469   7.369   0.795
31642WAT     H295169   2.555   7.254   0.717
31643WAT      O95170   6.431   3.927   2.295
31643WAT     H195171   6.487   3.895   2.372
31643WAT     H295172   6.468   3.891   2.210
31644WAT      O95173   8.861   1.567   4.160
31644WAT     H195174   8.771   1.599   4.132
31644WAT     H295175   8.931   1.611   4.103
31645WAT      O95176   7.020   1.779   0.590
31645WAT     H195177   6.930   1.759   0.552
31645WAT     H295178   7.011   1.845   0.665
31646WAT      O95179   7.805   3.536   7.782
31646WAT     H195180   7.745   3.562   7.706
31646WAT     H295181   7.753   3.541   7.868
31647WAT      O95182   6.156   7.804   7.346
31647WAT     H195183   6.058   7.789   7.360
31647WAT     H295184   6.180   7.783   7.251
31648WAT      O95185   2.316   1.400   2.702
31648WAT     H195186   2.403   1.440   2.731
31648WAT     H295187   2.243   1.467   2.714
31649WAT      O95188   5.940   5.791   5.398
31649WAT     H195189   6.002   5.752   5.330
31649WAT     H295190   5.851   5.809   5.357
31650WAT      O95191   2.109   7.585   1.645
31650WAT     H195192   2.028   7.536   1.678
31650WAT     H295193   2.087   7.682   1.633
31651WAT      O95194   5.654   8.677   7.154
31651WAT     H195195   5.626   8.738   7.079
31651WAT     H295196   5.736   8.714   7.198
31652WAT      O95197   2.301   3.833   4.941
31652WAT     H195198   2.348   3.779   4.872
31652WAT     H295199   2.265   3.773   5.012
31653WAT      O95200   2.945   7.682   7.191
31653WAT     H195201   2.950   7.689   7.091
31653WAT     H295202   2.931   7.587   7.217
31654WAT      O95203   0.609   6.396   9.419
31654WAT     H195204   0.550   6.460   9.468
31654WAT     H295205   0.584   6.302   9.444
31655WAT      O95206   3.508   1.502   5.208
31655WAT     H195207   3.448   1.557   5.266
31655WAT     H295208   3.520   1.412   5.249
31656WAT      O95209   0.234   1.830   6.136
31656WAT     H195210   0.230   1.913   6.191
31656WAT     H295211   0.286   1.848   6.052
31657WAT      O95212   6.052   1.125   2.816
31657WAT     H195213   6.105   1.092   2.894
31657WAT     H295214   5.960   1.087   2.819
31658WAT      O95215   8.257   8.821   0.120
31658WAT     H195216   8.198   8.880   0.174
31658WAT     H295217   8.228   8.824   0.024
31659WAT      O95218   2.553   2.626   0.476
31659WAT     H195219   2.458   2.657   0.473
31659WAT     H295220   2.610   2.689   0.422
31660WAT      O95221   4.411   7.510   1.089
31660WAT     H195222   4.416   7.607   1.113
31660WAT     H295223   4.363   7.460   1.160
31661WAT      O95224   9.147   5.244   0.911
31661WAT     H195225   9.086   5.221   0.986
31661WAT     H295226   9.095   5.248   0.826
31662WAT      O95227   1.262   9.117   5.033
31662WAT     H195228   1.296   9.140   5.124
31662WAT     H295229   1.162   9.109   5.035
31663WAT      O95230   6.236   8.344   5.362
31663WAT     H195231   6.249   8.255   5.405
31663WAT     H295232   6.139   8.363   5.355
31664WAT      O95233   4.186   0.899   4.854
31664WAT     H195234   4.236   0.839   4.792
31664WAT     H295235   4.232   0.988   4.859
31665WAT      O95236   9.441   5.405   4.933
31665WAT     H195237   9.427   5.312   4.898
31665WAT     H295238   9.355   5.440   4.970
31666WAT      O95239   2.570   1.015   2.946
31666WAT     H195240   2.543   1.059   3.032
31666WAT     H295241   2.509   1.043   2.873
31667WAT      O95242   3.572   1.494   6.434
31667WAT     H195243   3.610   1.572   6.484
31667WAT     H295244   3.633   1.470   6.359
31668WAT      O95245   7.546   2.728   6.844
31668WAT     H195246   7.560   2.790   6.767
31668WAT     H295247   7.453   2.691   6.840
31669WAT      O95248   2.982   1.775   7.601
31669WAT     H195249   2.914   1.816   7.663
31669WAT     H295250   2.938   1.751   7.515
31670WAT      O95251   8.781   7.707   0.187
31670WAT     H195252   8.878   7.731   0.190
31670WAT     H295253   8.753   7.691   0.093
31671WAT      O95254   1.773   5.241   4.579
31671WAT     H195255   1.714   5.300   4.524
31671WAT     H295256   1.868   5.252   4.550
31672WAT      O95257   9.192   9.616   3.660
31672WAT     H195258   9.133   9.628   3.741
31672WAT     H295259   9.175   9.526   3.619
31673WAT      O95260   7.319   5.111   9.259
31673WAT     H195261   7.336   5.105   9.357
31673WAT     H295262   7.400   5.081   9.209
31674WAT      O95263   1.901   6.292   5.676
31674WAT     H195264   1.922   6.287   5.774
31674WAT     H295265   1.968   6.237   5.626
31675WAT      O95266   5.156   8.533   1.421
31675WAT     H195267   5.137   8.435   1.430
31675WAT     H295268   5.079   8.578   1.377
31676WAT      O95269   6.568   5.620   4.734
31676WAT     H195270   6.499   5.656   4.796
31676WAT     H295271   6.523   5.570   4.660
31677WAT      O95272   1.607   7.348   3.473
31677WAT     H195273   1.666   7.282   3.519
31677WAT     H295274   1.591   7.426   3.534
31678WAT      O95275   2.806   1.833   6.417
31678WAT     H195276   2.818   1.928   6.444
31678WAT     H295277   2.740   1.789   6.479
31679WAT      O95278   1.030   1.324   4.622
31679WAT     H195279   1.112   1.285   4.665
31679WAT     H295280   1.005   1.267   4.543
31680WAT      O95281   6.321   7.674   1.246
31680WAT     H195282   6.249   7.723   1.295
31680WAT     H295283   6.410   7.701   1.283
31681WAT      O95284   0.672   2.914   9.512
31681WAT     H195285   0.688   2.971   9.431
31681WAT     H295286   0.582   2.935   9.550
31682WAT      O95287   0.279   0.574   7.361
31682WAT     H195288   0.328   0.646   7.312
31682WAT     H295289   0.269   0.600   7.457
31683WAT      O95290   3.036   6.365   1.501
31683WAT     H195291   2.996   6.451   1.533
31683WAT     H295292   2.965   6.310   1.457
31684WAT      O95293   0.570   4.370   3.079
31684WAT     H195294   0.505   4.394   3.007
31684WAT     H295295   0.522   4.322   3.153
31685WAT      O95296   3.348   2.339   5.951
31685WAT     H195297   3.444   2.332   5.925
31685WAT     H295298   3.340   2.349   6.050
31686WAT      O95299   6.752   2.244   0.192
31686WAT     H195300   6.826   2.271   0.129
31686WAT     H295301   6.720   2.153   0.168
31687WAT      O95302   7.559   5.662   0.402
31687WAT     H195303   7.620   5.588   0.431
31687WAT     H295304   7.504   5.632   0.325
31688WAT      O95305   8.714   7.341   8.423
31688WAT     H195306   8.680   7.430   8.454
31688WAT     H295307   8.812   7.333   8.446
31689WAT      O95308   1.370   7.053   4.575
31689WAT     H195309   1.320   7.134   4.607
31689WAT     H295310   1.374   7.053   4.475
31690WAT      O95311   5.697   4.551   7.864
31690WAT     H195312   5.786   4.525   7.826
31690WAT     H295313   5.711   4.590   7.955
31691WAT      O95314   7.957   3.668   5.661
31691WAT     H195315   7.916   3.627   5.742
31691WAT     H295316   8.001   3.754   5.686
31692WAT      O95317   7.240   0.912   3.765
31692WAT     H195318   7.175   0.974   3.808
31692WAT     H295319   7.192   0.835   3.725
31693WAT      O95320   0.554   0.376   4.701
31693WAT     H195321   0.527   0.455   4.757
31693WAT     H295322   0.578   0.300   4.760
31694WAT      O95323   1.892   7.505   4.500
31694WAT     H195324   1.976   7.454   4.517
31694WAT     H295325   1.875   7.511   4.402
31695WAT      O95326   8.332   4.253   5.501
31695WAT     H195327   8.286   4.217   5.420
31695WAT     H295328   8.264   4.298   5.560
31696WAT      O95329   6.521   3.963   1.104
31696WAT     H195330   6.495   3.951   1.200
31696WAT     H295331   6.572   3.883   1.073
31697WAT      O95332   2.270   3.513   5.806
31697WAT     H195333   2.173   3.521   5.830
31697WAT     H295334   2.300   3.419   5.820
31698WAT      O95335   3.879   6.325   6.339
31698WAT     H195336   3.974   6.296   6.331
31698WAT     H295337   3.825   6.253   6.382
31699WAT      O95338   2.869   6.385   0.477
31699WAT     H195339   2.907   6.295   0.499
31699WAT     H295340   2.848   6.433   0.562
31700WAT      O95341   5.621   7.105   7.343
31700WAT     H195342   5.544   7.129   7.283
31700WAT     H295343   5.625   7.169   7.420
31701WAT      O95344   0.411   7.612   3.296
31701WAT     H195345   0.417   7.604   3.196
31701WAT     H295346   0.349   7.542   3.331
31702WAT      O95347   8.898   2.655   5.460
31702WAT     H195348   8.933   2.726   5.520
31702WAT     H295349   8.854   2.697   5.380
31703WAT      O95350   3.872   5.111   9.051
31703WAT     H195351   3.966   5.107   9.017
31703WAT     H295352   3.809   5.119   8.973
31704WAT      O95353   0.027   1.459   5.014
31704WAT     H195354  -0.027   1.543   5.017
31704WAT     H295355   0.117   1.479   4.976
31705WAT      O95356   6.619   1.095   9.489
31705WAT     H195357   6.656   1.182   9.458
31705WAT     H295358   6.564   1.109   9.571
31706WAT      O95359   5.633   6.691   1.731
31706WAT     H195360   5.635   6.672   1.829
31706WAT     H295361   5.627   6.790   1.716
31707WAT      O95362   2.413   2.576   8.177
31707WAT     H195363   2.440   2.671   8.163
31707WAT     H295364   2.445   2.545   8.266
31708WAT      O95365   0.180   0.586   7.067
31708WAT     H195366   0.231   0.598   7.152
31708WAT     H295367   0.239   0.543   6.998
31709WAT      O95368   3.507   8.723   3.430
31709WAT     H195369   3.536   8.680   3.516
31709WAT     H295370   3.535   8.819   3.429
31710WAT      O95371   2.543   6.632   2.511
31710WAT     H195372   2.523   6.535   2.495
31710WAT     H295373   2.639   6.650   2.491
31711WAT      O95374   3.377   4.686   1.068
31711WAT     H195375   3.374   4.749   1.146
31711WAT     H295376   3.463   4.636   1.069
31712WAT      O95377   3.424   5.625   8.779
31712WAT     H195378   3.487   5.626   8.857
31712WAT     H295379   3.448   5.549   8.719
31713WAT      O95380   4.333   3.123   2.372
31713WAT     H195381   4.278   3.042   2.356
31713WAT     H295382   4.428   3.105   2.346
31714WAT      O95383   4.866   6.238   3.866
31714WAT     H195384   4.888   6.162   3.806
31714WAT     H295385   4.849   6.320   3.811
31715WAT      O95386   0.740   2.339   5.445
31715WAT     H195387   0.717   2.434   5.465
31715WAT     H295388   0.669   2.299   5.388
31716WAT      O95389   5.597   9.458   9.083
31716WAT     H195390   5.573   9.449   8.987
31716WAT     H295391   5.651   9.541   9.096
31717WAT      O95392   3.158   1.617   9.753
31717WAT     H195393   3.107   1.597   9.670
31717WAT     H295394   3.141   1.545   9.821
31718WAT      O95395   5.589   4.794   4.130
31718WAT     H195396   5.538   4.800   4.216
31718WAT     H295397   5.684   4.823   4.146
31719WAT      O95398   2.480   5.720   0.956
31719WAT     H195399   2.402   5.739   1.016
31719WAT     H295400   2.454   5.649   0.890
31720WAT      O95401   4.359   0.442   8.309
31720WAT     H195402   4.318   0.483   8.390
31720WAT     H295403   4.389   0.514   8.246
31721WAT      O95404   0.360   6.391   6.193
31721WAT     H195405   0.459   6.394   6.211
31721WAT     H295406   0.343   6.408   6.096
31722WAT      O95407   6.967   3.726   2.757
31722WAT     H195408   7.022   3.806   2.784
31722WAT     H295409   6.894   3.712   2.824
31723WAT      O95410   4.374   5.310   0.886
31723WAT     H195411   4.275   5.296   0.876
31723WAT     H295412   4.420   5.281   0.802
31724WAT      O95413   3.085   0.160   6.419
31724WAT     H195414   3.174   0.193   6.450
31724WAT     H295415   3.054   0.085   6.478
31725WAT      O95416   4.948   3.107   8.031
31725WAT     H195417   4.920   3.186   7.977
31725WAT     H295418   4.949   3.026   7.973
31726WAT      O95419   9.327   5.999   0.485
31726WAT     H195420   9.285   6.087   0.464
31726WAT     H295421   9.292   5.929   0.423
31727WAT      O95422   7.857   2.467   2.734
31727WAT     H195423   7.784   2.501   2.675
31727WAT     H295424   7.944   2.506   2.704
31728WAT      O95425   1.474   8.321   4.172
31728WAT     H195426   1.409   8.390   4.140
31728WAT     H295427   1.448   8.291   4.264
31729WAT      O95428   6.408   7.161   2.303
31729WAT     H195429   6.343   7.230   2.335
31729WAT     H295430   6.429   7.177   2.206
31730WAT      O95431   8.642   2.961   5.968
31730WAT     H195432   8.636   2.904   6.050
31730WAT     H295433   8.719   3.023   5.976
31731WAT      O95434   6.739   8.938   5.670
31731WAT     H195435   6.713   8.878   5.746
31731WAT     H295436   6.824   8.985   5.692
31732WAT      O95437   4.570   5.491   6.011
31732WAT     H195438   4.591   5.394   5.994
31732WAT     H295439   4.635   5.528   6.077
31733WAT      O95440   8.445   5.773   3.535
31733WAT     H195441   8.354   5.806   3.562
31733WAT     H295442   8.435   5.693   3.476
31734WAT      O95443   2.876   0.495   8.118
31734WAT     H195444   2.825   0.526   8.199
31734WAT     H295445   2.824   0.518   8.035
31735WAT      O95446   7.802   3.850   5.819
31735WAT     H195447   7.759   3.934   5.852
31735WAT     H295448   7.869   3.818   5.886
31736WAT      O95449   2.672   0.355   9.071
31736WAT     H195450   2.596   0.385   9.013
31736WAT     H295451   2.734   0.431   9.086
31737WAT      O95452   7.909   4.453   2.366
31737WAT     H195453   7.924   4.549   2.344
31737WAT     H295454   7.886   4.444   2.463
31738WAT      O95455   2.185   2.515   9.160
31738WAT     H195456   2.122   2.561   9.222
31738WAT     H295457   2.140   2.436   9.119
31739WAT      O95458   8.208   0.763   6.525
31739WAT     H195459   8.199   0.854   6.564
31739WAT     H295460   8.304   0.734   6.529
31740WAT      O95461   0.146   2.226   5.407
31740WAT     H195462   0.138   2.292   5.332
31740WAT     H295463   0.166   2.275   5.492
31741WAT      O95464   5.203   3.350   4.847
31741WAT     H195465   5.154   3.331   4.762
31741WAT     H295466   5.289   3.298   4.849
31742WAT      O95467   4.395   5.386   5.805
31742WAT     H195468   4.466   5.330   5.762
31742WAT     H295469   4.433   5.433   5.884
31743WAT      O95470   5.526   8.448   6.726
31743WAT     H195471   5.491   8.533   6.686
31743WAT     H295472   5.449   8.389   6.751
31744WAT      O95473   9.160   6.361   4.076
31744WAT     H195474   9.157   6.302   3.995
31744WAT     H295475   9.200   6.449   4.052
31745WAT      O95476   1.292   7.298   9.414
31745WAT     H195477   1.349   7.379   9.397
31745WAT     H295478   1.324   7.223   9.356
31746WAT      O95479   6.816   8.753   6.449
31746WAT     H195480   6.906   8.796   6.456
31746WAT     H295481   6.793   8.709   6.537
31747WAT      O95482   4.030   2.086   8.398
31747WAT     H195483   3.958   2.113   8.461
31747WAT     H295484   3.993   2.024   8.329
31748WAT      O95485   6.174   5.361   4.099
31748WAT     H195486   6.147   5.361   4.003
31748WAT     H295487   6.221   5.276   4.120
31749WAT      O95488   4.915   2.510   1.191
31749WAT     H195489   4.839   2.497   1.255
31749WAT     H295490   4.943   2.422   1.154
31750WAT      O95491   0.902   6.181   5.284
31750WAT     H195492   0.904   6.185   5.384
31750WAT     H295493   0.980   6.233   5.247
31751WAT      O95494   4.378   7.137   0.304
31751WAT     H195495   4.305   7.200   0.278
31751WAT     H295496   4.393   7.071   0.230
31752WAT      O95497   5.319   8.238   5.271
31752WAT     H195498   5.309   8.308   5.341
31752WAT     H295499   5.400   8.258   5.215
31753WAT      O95500   7.147   2.270   6.835
31753WAT     H195501   7.210   2.341   6.867
31753WAT     H295502   7.139   2.275   6.736
31754WAT      O95503   0.779   4.484   6.191
31754WAT     H195504   0.845   4.517   6.257
31754WAT     H295505   0.775   4.547   6.113
31755WAT      O95506   0.513   1.772   3.316
31755WAT     H195507   0.549   1.687   3.279
31755WAT     H295508   0.545   1.784   3.410
31756WAT      O95509   4.511   2.521   9.162
31756WAT     H195510   4.430   2.477   9.125
31756WAT     H295511   4.507   2.619   9.143
31757WAT      O95512   3.118   3.195   7.978
31757WAT     H195513   3.097   3.292   7.986
31757WAT     H295514   3.040   3.140   8.008
31758WAT      O95515   0.864   1.484   9.887
31758WAT     H195516   0.871   1.521   9.795
31758WAT     H295517   0.774   1.443   9.900
31759WAT      O95518   4.015   1.822   8.090
31759WAT     H195519   4.095   1.882   8.096
31759WAT     H295520   3.937   1.867   8.135
31760WAT      O95521   4.440   4.198   1.732
31760WAT     H195522   4.476   4.277   1.682
31760WAT     H295523   4.456   4.211   1.829
31761WAT      O95524   5.231   3.315   0.770
31761WAT     H195525   5.243   3.274   0.679
31761WAT     H295526   5.141   3.358   0.775
31762WAT      O95527   2.117   8.866   0.116
31762WAT     H195528   2.064   8.853   0.033
31762WAT     H295529   2.073   8.937   0.172
31763WAT      O95530   1.388   2.418   4.409
31763WAT     H195531   1.351   2.503   4.448
31763WAT     H295532   1.318   2.347   4.412
31764WAT      O95533   1.820   3.310   5.055
31764WAT     H195534   1.873   3.235   5.015
31764WAT     H295535   1.736   3.322   5.002
31765WAT      O95536   4.275   2.987   7.089
31765WAT     H195537   4.309   2.907   7.039
31765WAT     H295538   4.338   3.009   7.163
31766WAT      O95539   0.534   7.210   1.614
31766WAT     H195540   0.597   7.263   1.557
31766WAT     H295541   0.495   7.269   1.685
31767WAT      O95542   7.361   8.138   1.259
31767WAT     H195543   7.343   8.040   1.260
31767WAT     H295544   7.406   8.163   1.173
31768WAT      O95545   2.758   1.728   8.456
31768WAT     H195546   2.718   1.777   8.533
31768WAT     H295547   2.734   1.631   8.462
31769WAT      O95548   8.259   8.385   4.560
31769WAT     H195549   8.306   8.313   4.509
31769WAT     H295550   8.242   8.353   4.653
31770WAT      O95551   7.059   8.478   1.047
31770WAT     H195552   7.139   8.422   1.027
31770WAT     H295553   6.982   8.449   0.990
31771WAT      O95554   2.604   0.010   0.097
31771WAT     H195555   2.579   0.093   0.046
31771WAT     H295556   2.649  -0.054   0.035
31772WAT      O95557   2.034   8.032   8.388
31772WAT     H195558   2.017   8.113   8.332
31772WAT     H295559   2.128   8.002   8.375
31773WAT      O95560   1.206   3.259   5.674
31773WAT     H195561   1.183   3.352   5.645
31773WAT     H295562   1.211   3.256   5.774
31774WAT      O95563   0.828   6.445   1.124
31774WAT     H195564   0.890   6.412   1.053
31774WAT     H295565   0.875   6.515   1.178
31775WAT      O95566   3.639   6.431   2.584
31775WAT     H195567   3.680   6.343   2.562
31775WAT     H295568   3.540   6.420   2.596
31776WAT      O95569   6.589   4.795   0.821
31776WAT     H195570   6.658   4.726   0.799
31776WAT     H295571   6.624   4.886   0.797
31777WAT      O95572   2.970   8.702   6.970
31777WAT     H195573   2.957   8.799   6.985
31777WAT     H295574   3.057   8.673   7.009
31778WAT      O95575   7.757   3.591   1.255
31778WAT     H195576   7.684   3.637   1.306
31778WAT     H295577   7.763   3.496   1.284
31779WAT      O95578   5.464   9.553   5.760
31779WAT     H195579   5.520   9.623   5.715
31779WAT     H295580   5.488   9.549   5.857
31780WAT      O95581   6.822   7.645   8.961
31780WAT     H195582   6.908   7.634   8.911
31780WAT     H295583   6.765   7.565   8.948
31781WAT      O95584   3.268   5.716   2.393
31781WAT     H195585   3.224   5.782   2.454
31781WAT     H295586   3.199   5.674   2.334
31782WAT      O95587   5.307   6.350   6.295
31782WAT     H195588   5.389   6.394   6.332
31782WAT     H295589   5.322   6.327   6.199
31783WAT      O95590   9.503   9.452   1.939
31783WAT     H195591   9.547   9.446   2.029
31783WAT     H295592   9.544   9.386   1.877
31784WAT      O95593   1.402   6.630   0.058
31784WAT     H195594   1.363   6.551   0.104
31784WAT     H295595   1.328   6.689   0.023
31785WAT      O95596   4.890   8.711   5.149
31785WAT     H195597   4.823   8.775   5.109
31785WAT     H295598   4.950   8.761   5.212
31786WAT      O95599   2.497   3.067   5.427
31786WAT     H195600   2.563   3.112   5.367
31786WAT     H295601   2.490   2.970   5.402
31787WAT      O95602   1.579   4.596   1.926
31787WAT     H195603   1.480   4.611   1.919
31787WAT     H295604   1.604   4.517   1.870
31788WAT      O95605   0.654   4.405   2.542
31788WAT     H195606   0.648   4.440   2.449
31788WAT     H295607   0.586   4.334   2.556
31789WAT      O95608   7.912   8.937   2.599
31789WAT     H195609   7.894   9.032   2.624
31789WAT     H295610   7.986   8.933   2.533
31790WAT      O95611   7.612   1.246   0.105
31790WAT     H195612   7.596   1.148   0.110
31790WAT     H295613   7.532   1.291   0.065
31791WAT      O95614   8.541   9.252   6.867
31791WAT     H195615   8.471   9.186   6.891
31791WAT     H295616   8.506   9.345   6.881
31792WAT      O95617   4.629   5.790   5.909
31792WAT     H195618   4.581   5.737   5.979
31792WAT     H295619   4.699   5.733   5.866
31793WAT      O95620   2.516   0.449   7.732
31793WAT     H195621   2.578   0.374   7.708
31793WAT     H295622   2.423   0.426   7.700
31794WAT      O95623   4.549   7.795   5.964
31794WAT     H195624   4.598   7.874   6.000
31794WAT     H295625   4.559   7.792   5.865
31795WAT      O95626   2.542   0.678   7.115
31795WAT     H195627   2.604   0.673   7.037
31795WAT     H295628   2.594   0.698   7.199
31796WAT      O95629   1.974   6.716   2.921
31796WAT     H195630   2.022   6.752   3.002
31796WAT     H295631   1.878   6.699   2.944
31797WAT      O95632   9.472   9.200   6.875
31797WAT     H195633   9.504   9.285   6.916
31797WAT     H295634   9.538   9.170   6.805
31798WAT      O95635   8.864   2.260   7.215
31798WAT     H195636   8.855   2.168   7.253
31798WAT     H295637   8.958   2.273   7.183
31799WAT      O95638   0.199   8.480   1.652
31799WAT     H195639   0.241   8.515   1.737
31799WAT     H295640   0.140   8.551   1.613
31800WAT      O95641   6.595   6.088   4.875
31800WAT     H195642   6.533   6.074   4.798
31800WAT     H295643   6.630   6.000   4.906
31801WAT      O95644   1.777   8.083   5.009
31801WAT     H195645   1.809   8.174   5.035
31801WAT     H295646   1.680   8.086   4.987
31802WAT      O95647   1.988   7.256   7.415
31802WAT     H195648   2.061   7.237   7.349
31802WAT     H295649   1.903   7.276   7.367
31803WAT      O95650   4.634   8.600   6.628
31803WAT     H195651   4.668   8.693   6.643
31803WAT     H295652   4.665   8.567   6.539
31804WAT      O95653   6.818   1.833   6.537
31804WAT     H195654   6.844   1.887   6.616
31804WAT     H295655   6.900   1.791   6.497
31805WAT      O95656   2.263   3.958   7.956
31805WAT     H195657   2.207   3.936   7.876
31805WAT     H295658   2.242   3.894   8.030
31806WAT      O95659   7.042   6.137   9.732
31806WAT     H195660   6.970   6.201   9.758
31806WAT     H295661   7.004   6.045   9.725
31807WAT      O95662   2.137   9.448   8.953
31807WAT     H195663   2.171   9.373   8.896
31807WAT     H295664   2.074   9.412   9.021
31808WAT      O95665   9.415   7.634   2.088
31808WAT     H195666   9.342   7.604   2.149
31808WAT     H295667   9.469   7.555   2.059
31809WAT      O95668   4.192   7.008   0.475
31809WAT     H195669   4.114   7.070   0.482
31809WAT     H295670   4.267   7.054   0.428
31810WAT      O95671   6.618   2.343   7.120
31810WAT     H195672   6.680   2.355   7.197
31810WAT     H295673   6.622   2.424   7.061
31811WAT      O95674   2.616   7.861   7.026
31811WAT     H195675   2.578   7.880   6.936
31811WAT     H295676   2.630   7.947   7.075
31812WAT      O95677   3.701   4.501   7.137
31812WAT     H195678   3.628   4.546   7.190
31812WAT     H295679   3.726   4.415   7.181
31813WAT      O95680   5.915   6.285   2.880
31813WAT     H195681   5.902   6.199   2.831
31813WAT     H295682   5.994   6.333   2.843
31814WAT      O95683   3.111   4.928   7.400
31814WAT     H195684   3.207   4.940   7.426
31814WAT     H295685   3.055   4.994   7.451
31815WAT      O95686   5.240   6.513   1.034
31815WAT     H195687   5.163   6.554   1.083
31815WAT     H295688   5.220   6.417   1.014
31816WAT      O95689   0.340   1.081   9.382
31816WAT     H195690   0.426   1.064   9.430
31816WAT     H295691   0.304   1.170   9.408
31817WAT      O95692   0.037   3.596   3.678
31817WAT     H195693  -0.016   3.533   3.622
31817WAT     H295694  -0.019   3.627   3.756
31818WAT      O95695   7.342   7.939   3.373
31818WAT     H195696   7.276   7.980   3.311
31818WAT     H295697   7.417   8.003   3.391
31819WAT      O95698   9.150   2.677   1.538
31819WAT     H195699   9.238   2.717   1.562
31819WAT     H295700   9.136   2.593   1.590
31820WAT      O95701   9.566   0.460   9.029
31820WAT     H195702   9.641   0.524   9.008
31820WAT     H295703   9.587   0.371   8.990
31821WAT      O95704   6.862   2.476   4.379
31821WAT     H195705   6.816   2.413   4.316
31821WAT     H295706   6.853   2.570   4.345
31822WAT      O95707   0.996   2.262   2.812
31822WAT     H195708   1.019   2.338   2.751
31822WAT     H295709   1.076   2.202   2.821
31823WAT      O95710   7.149   3.293   4.128
31823WAT     H195711   7.092   3.293   4.210
31823WAT     H295712   7.205   3.211   4.126
31824WAT      O95713   2.521   0.344   4.558
31824WAT     H195714   2.614   0.371   4.530
31824WAT     H295715   2.512   0.245   4.550
31825WAT      O95716   8.184   0.534   4.170
31825WAT     H195717   8.224   0.545   4.261
31825WAT     H295718   8.170   0.436   4.151
31826WAT      O95719   2.170   9.346   2.232
31826WAT     H195720   2.180   9.343   2.331
31826WAT     H295721   2.212   9.264   2.191
31827WAT      O95722   5.620   7.527   8.788
31827WAT     H195723   5.576   7.451   8.741
31827WAT     H295724   5.694   7.563   8.731
31828WAT      O95725   0.169   1.014   0.613
31828WAT     H195726   0.207   1.105   0.600
31828WAT     H295727   0.093   0.999   0.549
31829WAT      O95728   8.230   4.624   4.192
31829WAT     H195729   8.234   4.705   4.133
31829WAT     H295730   8.283   4.641   4.275
31830WAT      O95731   0.697   7.927   0.179
31830WAT     H195732   0.659   7.835   0.180
31830WAT     H295733   0.714   7.955   0.084
31831WAT      O95734   6.998   0.864   3.143
31831WAT     H195735   7.015   0.855   3.241
31831WAT     H295736   6.934   0.939   3.127
31832WAT      O95737   6.192   0.442   5.101
31832WAT     H195738   6.147   0.362   5.061
31832WAT     H295739   6.150   0.525   5.064
31833WAT      O95740   3.501   7.648   4.020
31833WAT     H195741   3.433   7.590   3.974
31833WAT     H295742   3.567   7.681   3.952
31834WAT      O95743   8.280   8.223   1.616
31834WAT     H195744   8.235   8.227   1.527
31834WAT     H295745   8.307   8.128   1.635
31835WAT      O95746   9.764   2.607   6.061
31835WAT     H195747   9.775   2.517   6.103
31835WAT     H295748   9.734   2.672   6.130
31836WAT      O95749   9.850   7.098   9.043
31836WAT     H195750   9.845   7.008   9.086
31836WAT     H295751   9.759   7.123   9.009
31837WAT      O95752   2.333   3.081   1.071
31837WAT     H195753   2.386   3.105   1.153
31837WAT     H295754   2.350   3.147   0.999
31838WAT      O95755   6.266   0.517   9.444
31838WAT     H195756   6.249   0.430   9.398
31838WAT     H295757   6.364   0.535   9.446
31839WAT      O95758   3.432   0.157   5.148
31839WAT     H195759   3.411   0.252   5.169
31839WAT     H295760   3.401   0.098   5.223
31840WAT      O95761   0.701   8.550   2.836
31840WAT     H195762   0.698   8.561   2.736
31840WAT     H295763   0.609   8.561   2.873
31841WAT      O95764   6.925   4.586   2.588
31841WAT     H195765   6.898   4.596   2.684
31841WAT     H295766   7.024   4.593   2.581
31842WAT      O95767   5.481   5.024   1.021
31842WAT     H195768   5.502   5.114   0.984
31842WAT     H295769   5.470   5.030   1.120
31843WAT      O95770   8.898   3.933   8.369
31843WAT     H195771   8.962   3.893   8.303
31843WAT     H295772   8.901   3.881   8.454
31844WAT      O95773   5.953   7.460   3.703
31844WAT     H195774   5.882   7.390   3.716
31844WAT     H295775   5.985   7.493   3.792
31845WAT      O95776   7.435   3.925   6.037
31845WAT     H195777   7.484   3.911   6.123
31845WAT     H295778   7.424   3.837   5.990
31846WAT      O95779   7.573   1.533   7.036
31846WAT     H195780   7.663   1.492   7.050
31846WAT     H295781   7.548   1.528   6.939
31847WAT      O95782   1.815   1.150   3.202
31847WAT     H195783   1.859   1.205   3.273
31847WAT     H295784   1.845   1.055   3.210
31848WAT      O95785   1.994   6.530   9.389
31848WAT     H195786   1.997   6.548   9.487
31848WAT     H295787   2.049   6.599   9.341
31849WAT      O95788   2.410   7.998   4.207
31849WAT     H195789   2.490   7.944   4.183
31849WAT     H295790   2.427   8.048   4.292
31850WAT      O95791   6.201   4.814   6.272
31850WAT     H195792   6.146   4.897   6.280
31850WAT     H295793   6.148   4.736   6.304
31851WAT      O95794   6.881   4.437   4.653
31851WAT     H195795   6.842   4.495   4.724
31851WAT     H295796   6.822   4.438   4.572
31852WAT      O95797   9.048   3.183   6.505
31852WAT     H195798   9.113   3.207   6.578
31852WAT     H295799   9.093   3.191   6.416
31853WAT      O95800   7.203   7.338   5.981
31853WAT     H195801   7.283   7.396   5.972
31853WAT     H295802   7.164   7.320   5.890
31854WAT      O95803   3.957   4.047   3.021
31854WAT     H195804   3.975   4.014   2.929
31854WAT     H295805   3.980   3.975   3.087
31855WAT      O95806   4.857   9.724   5.257
31855WAT     H195807   4.885   9.647   5.199
31855WAT     H295808   4.885   9.706   5.351
31856WAT      O95809   0.593   8.626   4.669
31856WAT     H195810   0.659   8.552   4.658
31856WAT     H295811   0.501   8.592   4.653
31857WAT      O95812   4.943   7.181   7.095
31857WAT     H195813   5.027   7.132   7.117
31857WAT     H295814   4.921   7.244   7.169
31858WAT      O95815   4.422   2.106   9.579
31858WAT     H195816   4.345   2.169   9.592
31858WAT     H295817   4.424   2.040   9.654
31859WAT      O95818   4.097   3.960   0.059
31859WAT     H195819   4.094   3.935  -0.038
31859WAT     H295820   4.022   3.915   0.107
31860WAT      O95821   3.952   7.219   7.413
31860WAT     H195822   3.970   7.154   7.487
31860WAT     H295823   3.890   7.177   7.346
31861WAT      O95824   1.831   5.628   6.619
31861WAT     H195825   1.892   5.695   6.578
31861WAT     H295826   1.869   5.597   6.706
31862WAT      O95827   3.544   3.565   9.470
31862WAT     H195828   3.447   3.554   9.451
31862WAT     H295829   3.594   3.485   9.437
31863WAT      O95830   7.747   6.577   8.374
31863WAT     H195831   7.653   6.605   8.358
31863WAT     H295832   7.808   6.627   8.311
31864WAT      O95833   4.225   0.585   7.539
31864WAT     H195834   4.322   0.574   7.519
31864WAT     H295835   4.214   0.654   7.611
31865WAT      O95836   7.533   7.341   5.124
31865WAT     H195837   7.481   7.276   5.179
31865WAT     H295838   7.470   7.390   5.063
31866WAT      O95839   2.256   4.236   3.342
31866WAT     H195840   2.274   4.334   3.331
31866WAT     H295841   2.160   4.222   3.366
31867WAT      O95842   5.695   6.116   3.347
31867WAT     H195843   5.763   6.149   3.281
31867WAT     H295844   5.742   6.077   3.426
31868WAT      O95845   5.637   3.676   6.035
31868WAT     H195846   5.639   3.699   6.132
31868WAT     H295847   5.544   3.686   5.999
31869WAT      O95848   4.059   9.295   3.372
31869WAT     H195849   4.002   9.334   3.444
31869WAT     H295850   4.096   9.207   3.402
31870WAT      O95851   0.525   8.807   5.890
31870WAT     H195852   0.469   8.859   5.955
31870WAT     H295853   0.592   8.868   5.848
31871WAT      O95854   7.675   5.823   4.937
31871WAT     H195855   7.759   5.814   4.991
31871WAT     H295856   7.699   5.834   4.840
31872WAT      O95857   3.688   7.406   8.125
31872WAT     H195858   3.650   7.325   8.081
31872WAT     H295859   3.620   7.444   8.189
31873WAT      O95860   0.360   4.771   5.787
31873WAT     H195861   0.343   4.845   5.852
31873WAT     H295862   0.423   4.704   5.828
31874WAT      O95863   7.047   4.620   4.353
31874WAT     H195864   7.117   4.593   4.288
31874WAT     H295865   7.084   4.690   4.415
31875WAT      O95866   4.655   7.708   0.448
31875WAT     H195867   4.646   7.647   0.370
31875WAT     H295868   4.623   7.799   0.423
31876WAT      O95869   7.920   7.093   7.027
31876WAT     H195870   7.968   7.179   7.047
31876WAT     H295871   7.975   7.016   7.060
31877WAT      O95872   1.019   1.467   9.434
31877WAT     H195873   0.966   1.407   9.374
31877WAT     H295874   1.091   1.414   9.478
31878WAT      O95875   2.747   1.606   3.135
31878WAT     H195876   2.799   1.626   3.052
31878WAT     H295877   2.664   1.663   3.137
31879WAT      O95878   7.884   5.653   2.026
31879WAT     H195879   7.922   5.720   2.090
31879WAT     H295880   7.841   5.579   2.077
31880WAT      O95881   5.772   3.644   6.449
31880WAT     H195882   5.777   3.582   6.370
31880WAT     H295883   5.815   3.601   6.528
31881WAT      O95884   0.899   2.667   1.277
31881WAT     H195885   0.816   2.615   1.291
31881WAT     H295886   0.891   2.757   1.321
31882WAT      O95887   9.083   5.758   2.127
31882WAT     H195888   9.136   5.674   2.117
31882WAT     H295889   8.998   5.738   2.177
31883WAT      O95890   9.341   4.117   1.248
31883WAT     H195891   9.342   4.165   1.160
31883WAT     H295892   9.248   4.088   1.269
31884WAT      O95893   1.620   3.164   9.270
31884WAT     H195894   1.567   3.148   9.354
31884WAT     H295895   1.562   3.207   9.202
31885WAT      O95896   6.533   0.425   6.325
31885WAT     H195897   6.514   0.506   6.270
31885WAT     H295898   6.449   0.395   6.371
31886WAT      O95899   6.422   6.107   9.272
31886WAT     H195900   6.381   6.023   9.307
31886WAT     H295901   6.484   6.145   9.342
31887WAT      O95902   4.819   1.987   3.030
31887WAT     H195903   4.805   2.020   3.124
31887WAT     H295904   4.819   1.887   3.030
31888WAT      O95905   1.356   7.717   5.486
31888WAT     H195906   1.288   7.699   5.557
31888WAT     H295907   1.334   7.663   5.405
31889WAT      O95908   4.736   1.812   7.292
31889WAT     H195909   4.734   1.713   7.282
31889WAT     H295910   4.704   1.854   7.207
31890WAT      O95911   8.935   0.453   0.394
31890WAT     H195912   8.843   0.416   0.384
31890WAT     H295913   9.002   0.380   0.377
31891WAT      O95914   0.495   7.856   5.338
31891WAT     H195915   0.557   7.814   5.404
31891WAT     H295916   0.547   7.896   5.263
31892WAT      O95917   8.622   1.440   0.027
31892WAT     H195918   8.705   1.486   0.058
31892WAT     H295919   8.607   1.357   0.081
31893WAT      O95920   9.007   0.593   5.972
31893WAT     H195921   9.021   0.495   5.985
31893WAT     H295922   8.912   0.610   5.950
31894WAT      O95923   8.639   2.609   7.205
31894WAT     H195924   8.649   2.515   7.174
31894WAT     H295925   8.590   2.611   7.292
31895WAT      O95926   1.604   5.597   9.050
31895WAT     H195927   1.559   5.508   9.042
31895WAT     H295928   1.570   5.659   8.980
31896WAT      O95929   4.666   7.596   3.760
31896WAT     H195930   4.598   7.605   3.687
31896WAT     H295931   4.752   7.637   3.730
31897WAT      O95932   7.763   2.963   9.412
31897WAT     H195933   7.863   2.962   9.412
31897WAT     H295934   7.729   2.875   9.377
31898WAT      O95935   0.794   8.454   5.071
31898WAT     H195936   0.799   8.521   4.997
31898WAT     H295937   0.886   8.423   5.095
31899WAT      O95938   0.887   9.643   0.887
31899WAT     H195939   0.893   9.553   0.844
31899WAT     H295940   0.931   9.711   0.829
   9.88928    9.84380    9.89279 
