GROningen MAchine for Chemical Simulation
95940
    1G5    HO5'    1   5.811   5.625   6.739
    1G5     O5'    2   5.753   5.617   6.815
    1G5     C5'    3   5.754   5.483   6.847
    1G5     H5'    4   5.845   5.450   6.898
    1G5    H5''    5   5.729   5.419   6.762
    1G5     C4'    6   5.649   5.466   6.955
    1G5     H4'    7   5.657   5.368   7.002
    1G5     O4'    8   5.661   5.565   7.064
    1G5     C1'    9   5.539   5.597   7.125
    1G5     H1'   10   5.538   5.556   7.226
    1G5      N9   11   5.516   5.747   7.126
    1G5      C8   12   5.604   5.848   7.102
    1G5      H8   13   5.701   5.830   7.057
    1G5      N7   14   5.572   5.969   7.136
    1G5      C5   15   5.446   5.954   7.192
    1G5      C6   16   5.361   6.050   7.249
    1G5      O6   17   5.367   6.172   7.240
    1G5      N1   18   5.261   5.994   7.319
    1G5      H1   19   5.209   6.056   7.379
    1G5      C2   20   5.230   5.862   7.313
    1G5      N2   21   5.120   5.830   7.375
    1G5     H21   22   5.054   5.895   7.414
    1G5     H22   23   5.099   5.731   7.367
    1G5      N3   24   5.309   5.765   7.260
    1G5      C4   25   5.417   5.815   7.200
    1G5     C3'   26   5.504   5.489   6.915
    1G5     H3'   27   5.501   5.576   6.848
    1G5     C2'   28   5.438   5.517   7.045
    1G5     H2'   29   5.337   5.557   7.038
    1G5     O2'   30   5.421   5.394   7.122
    1G5    HO2'   31   5.339   5.347   7.107
    1G5     O3'   32   5.439   5.377   6.846
    2G        P   33   5.316   5.400   6.743
    2G      OP1   34   5.271   5.265   6.707
    2G      OP2   35   5.375   5.485   6.633
    2G      O5'   36   5.203   5.477   6.825
    2G      C5'   37   5.111   5.416   6.918
    2G      H5'   38   5.155   5.345   6.989
    2G     H5''   39   5.045   5.347   6.866
    2G      C4'   40   5.026   5.523   6.992
    2G      H4'   41   4.968   5.461   7.061
    2G      O4'   42   5.112   5.621   7.056
    2G      C1'   43   5.045   5.747   7.054
    2G      H1'   44   5.022   5.787   7.153
    2G       N9   45   5.135   5.841   6.982
    2G       C8   46   5.252   5.824   6.901
    2G       H8   47   5.283   5.729   6.861
    2G       N7   48   5.313   5.930   6.865
    2G       C5   49   5.234   6.033   6.924
    2G       C6   50   5.254   6.175   6.936
    2G       O6   51   5.352   6.240   6.889
    2G       N1   52   5.156   6.238   7.008
    2G       H1   53   5.162   6.336   7.031
    2G       C2   54   5.053   6.173   7.062
    2G       N2   55   4.955   6.252   7.101
    2G      H21   56   4.959   6.350   7.076
    2G      H22   57   4.871   6.204   7.131
    2G       N3   58   5.031   6.042   7.058
    2G       C4   59   5.127   5.976   6.994
    2G      C3'   60   4.929   5.600   6.897
    2G      H3'   61   4.991   5.612   6.808
    2G      C2'   62   4.910   5.733   6.976
    2G      H2'   63   4.911   5.817   6.907
    2G      O2'   64   4.794   5.711   7.054
    2G     HO2'   65   4.778   5.617   7.043
    2G      O3'   66   4.818   5.517   6.872
    3G        P   67   4.750   5.523   6.731
    3G      OP1   68   4.621   5.456   6.737
    3G      OP2   69   4.842   5.493   6.625
    3G      O5'   70   4.707   5.687   6.718
    3G      C5'   71   4.587   5.725   6.770
    3G      H5'   72   4.581   5.689   6.872
    3G     H5''   73   4.508   5.673   6.715
    3G      C4'   74   4.558   5.876   6.779
    3G      H4'   75   4.469   5.893   6.840
    3G      O4'   76   4.665   5.942   6.855
    3G      C1'   77   4.679   6.071   6.794
    3G      H1'   78   4.664   6.148   6.870
    3G       N9   79   4.812   6.086   6.732
    3G       C8   80   4.901   5.985   6.691
    3G       H8   81   4.865   5.884   6.697
    3G       N7   82   5.017   6.029   6.657
    3G       C5   83   5.007   6.169   6.663
    3G       C6   84   5.101   6.278   6.638
    3G       O6   85   5.218   6.271   6.600
    3G       N1   86   5.052   6.402   6.664
    3G       H1   87   5.108   6.482   6.639
    3G       C2   88   4.920   6.426   6.704
    3G       N2   89   4.885   6.549   6.720
    3G      H21   90   4.950   6.625   6.719
    3G      H22   91   4.791   6.569   6.754
    3G       N3   92   4.834   6.329   6.735
    3G       C4   93   4.879   6.200   6.708
    3G      C3'   94   4.538   5.955   6.644
    3G      H3'   95   4.618   5.931   6.574
    3G      C2'   96   4.562   6.095   6.693
    3G      H2'   97   4.588   6.160   6.609
    3G      O2'   98   4.451   6.149   6.766
    3G     HO2'   99   4.371   6.104   6.739
    3G      O3'  100   4.407   5.956   6.593
    4U        P  101   4.376   5.948   6.436
    4U      OP1  102   4.233   5.904   6.415
    4U      OP2  103   4.467   5.855   6.385
    4U      O5'  104   4.415   6.094   6.389
    4U      C5'  105   4.341   6.209   6.425
    4U      H5'  106   4.320   6.218   6.532
    4U     H5''  107   4.243   6.205   6.376
    4U      C4'  108   4.399   6.338   6.360
    4U      H4'  109   4.331   6.423   6.367
    4U      O4'  110   4.515   6.370   6.437
    4U      C1'  111   4.619   6.418   6.345
    4U      H1'  112   4.646   6.518   6.379
    4U       N1  113   4.739   6.334   6.359
    4U       C6  114   4.731   6.196   6.374
    4U       H6  115   4.633   6.151   6.383
    4U       C5  116   4.848   6.123   6.354
    4U       H5  117   4.838   6.016   6.343
    4U       C4  118   4.975   6.189   6.331
    4U       O4  119   5.079   6.122   6.320
    4U       N3  120   4.969   6.326   6.329
    4U       H3  121   5.057   6.370   6.308
    4U       C2  122   4.860   6.402   6.338
    4U       O2  123   4.866   6.525   6.333
    4U      C3'  124   4.445   6.322   6.215
    4U      H3'  125   4.491   6.223   6.207
    4U      C2'  126   4.561   6.423   6.205
    4U      H2'  127   4.631   6.385   6.130
    4U      O2'  128   4.527   6.555   6.170
    4U     HO2'  129   4.487   6.560   6.083
    4U      O3'  130   4.348   6.328   6.112
    5U        P  131   4.379   6.328   5.952
    5U      OP1  132   4.247   6.300   5.896
    5U      OP2  133   4.499   6.245   5.925
    5U      O5'  134   4.411   6.483   5.919
    5U      C5'  135   4.304   6.579   5.914
    5U      H5'  136   4.260   6.596   6.012
    5U     H5''  137   4.234   6.537   5.841
    5U      C4'  138   4.354   6.714   5.865
    5U      H4'  139   4.271   6.778   5.835
    5U      O4'  140   4.442   6.785   5.953
    5U      C1'  141   4.539   6.858   5.883
    5U      H1'  142   4.535   6.964   5.907
    5U       N1  143   4.684   6.821   5.916
    5U       C6  144   4.720   6.695   5.963
    5U       H6  145   4.646   6.617   5.958
    5U       C5  146   4.849   6.663   6.006
    5U       H5  147   4.869   6.560   6.035
    5U       C4  148   4.950   6.765   6.005
    5U       O4  149   5.066   6.744   6.036
    5U       N3  150   4.911   6.890   5.953
    5U       H3  151   4.968   6.973   5.966
    5U       C2  152   4.780   6.929   5.914
    5U       O2  153   4.762   7.029   5.845
    5U      C3'  154   4.444   6.710   5.736
    5U      H3'  155   4.514   6.628   5.753
    5U      C2'  156   4.512   6.845   5.742
    5U      H2'  157   4.604   6.850   5.683
    5U      O2'  158   4.414   6.948   5.713
    5U     HO2'  159   4.386   6.943   5.622
    5U      O3'  160   4.369   6.683   5.624
    6A        P  161   4.425   6.594   5.510
    6A      OP1  162   4.353   6.634   5.384
    6A      OP2  163   4.426   6.453   5.548
    6A      O5'  164   4.574   6.642   5.486
    6A      C5'  165   4.623   6.751   5.401
    6A      H5'  166   4.565   6.840   5.425
    6A     H5''  167   4.601   6.716   5.300
    6A      C4'  168   4.774   6.765   5.423
    6A      H4'  169   4.815   6.851   5.371
    6A      O4'  170   4.795   6.769   5.570
    6A      C1'  171   4.917   6.705   5.605
    6A      H1'  172   4.978   6.773   5.665
    6A       N9  173   4.895   6.578   5.678
    6A       C8  174   4.777   6.510   5.709
    6A       H8  175   4.680   6.536   5.668
    6A       N7  176   4.790   6.403   5.784
    6A       C5  177   4.923   6.406   5.822
    6A       C6  178   5.005   6.324   5.899
    6A       N6  179   4.956   6.222   5.968
    6A      H61  180   5.028   6.167   6.012
    6A      H62  181   4.856   6.212   5.978
    6A       N1  182   5.142   6.339   5.896
    6A       C2  183   5.187   6.439   5.813
    6A       H2  184   5.295   6.447   5.820
    6A       N3  185   5.124   6.524   5.737
    6A       C4  186   4.989   6.504   5.750
    6A      C3'  187   4.860   6.653   5.375
    6A      H3'  188   4.806   6.560   5.393
    6A      C2'  189   4.982   6.664   5.472
    6A      H2'  190   5.029   6.565   5.475
    6A      O2'  191   5.084   6.759   5.428
    6A     HO2'  192   5.150   6.776   5.496
    6A      O3'  193   4.894   6.660   5.239
    7G        P  194   4.880   6.521   5.149
    7G      OP1  195   4.907   6.558   5.007
    7G      OP2  196   4.753   6.444   5.179
    7G      O5'  197   5.007   6.434   5.192
    7G      C5'  198   5.136   6.469   5.156
    7G      H5'  199   5.137   6.578   5.167
    7G     H5''  200   5.147   6.438   5.053
    7G      C4'  201   5.256   6.411   5.239
    7G      H4'  202   5.350   6.461   5.213
    7G      O4'  203   5.235   6.426   5.377
    7G      C1'  204   5.299   6.319   5.444
    7G      H1'  205   5.376   6.349   5.515
    7G       N9  206   5.197   6.248   5.530
    7G       C8  207   5.063   6.259   5.519
    7G       H8  208   5.020   6.344   5.469
    7G       N7  209   4.991   6.176   5.589
    7G       C5  210   5.088   6.088   5.647
    7G       C6  211   5.069   5.986   5.740
    7G       O6  212   4.968   5.959   5.799
    7G       N1  213   5.188   5.920   5.759
    7G       H1  214   5.178   5.845   5.826
    7G       C2  215   5.303   5.956   5.705
    7G       N2  216   5.404   5.882   5.743
    7G      H21  217   5.386   5.816   5.817
    7G      H22  218   5.499   5.913   5.726
    7G       N3  219   5.332   6.062   5.633
    7G       C4  220   5.216   6.130   5.607
    7G      C3'  221   5.270   6.269   5.214
    7G      H3'  222   5.170   6.226   5.221
    7G      C2'  223   5.353   6.225   5.335
    7G      H2'  224   5.351   6.119   5.361
    7G      O2'  225   5.487   6.263   5.314
    7G     HO2'  226   5.532   6.250   5.397
    7G      O3'  227   5.334   6.233   5.092
    8G        P  228   5.308   6.082   5.029
    8G      OP1  229   5.386   6.079   4.904
    8G      OP2  230   5.161   6.052   5.021
    8G      O5'  231   5.373   5.975   5.131
    8G      C5'  232   5.512   5.958   5.137
    8G      H5'  233   5.564   6.046   5.175
    8G     H5''  234   5.565   5.940   5.044
    8G      C4'  235   5.538   5.841   5.242
    8G      H4'  236   5.643   5.814   5.247
    8G      O4'  237   5.487   5.877   5.370
    8G      C1'  238   5.423   5.753   5.421
    8G      H1'  239   5.459   5.736   5.522
    8G       N9  240   5.280   5.772   5.439
    8G       C8  241   5.199   5.865   5.381
    8G       H8  242   5.241   5.936   5.312
    8G       N7  243   5.078   5.851   5.423
    8G       C5  244   5.075   5.745   5.509
    8G       C6  245   4.971   5.678   5.580
    8G       O6  246   4.851   5.693   5.577
    8G       N1  247   5.022   5.570   5.653
    8G       H1  248   4.959   5.528   5.720
    8G       C2  249   5.151   5.517   5.642
    8G       N2  250   5.159   5.395   5.702
    8G      H21  251   5.077   5.346   5.733
    8G      H22  252   5.242   5.342   5.680
    8G       N3  253   5.241   5.569   5.562
    8G       C4  254   5.205   5.691   5.514
    8G      C3'  255   5.457   5.720   5.201
    8G      H3'  256   5.352   5.745   5.181
    8G      C2'  257   5.453   5.640   5.330
    8G      H2'  258   5.375   5.564   5.330
    8G      O2'  259   5.574   5.591   5.382
    8G     HO2'  260   5.539   5.530   5.447
    8G      O3'  261   5.523   5.645   5.092
    9G        P  262   5.428   5.566   4.998
    9G      OP1  263   5.515   5.485   4.905
    9G      OP2  264   5.319   5.652   4.945
    9G      O5'  265   5.351   5.462   5.091
    9G      C5'  266   5.435   5.353   5.141
    9G      H5'  267   5.522   5.395   5.192
    9G     H5''  268   5.461   5.294   5.054
    9G      C4'  269   5.366   5.258   5.249
    9G      H4'  270   5.437   5.183   5.283
    9G      O4'  271   5.313   5.324   5.358
    9G      C1'  272   5.197   5.250   5.392
    9G      H1'  273   5.190   5.224   5.498
    9G       N9  274   5.084   5.345   5.376
    9G       C8  275   5.076   5.460   5.300
    9G       H8  276   5.160   5.500   5.245
    9G       N7  277   4.954   5.507   5.287
    9G       C5  278   4.875   5.422   5.358
    9G       C6  279   4.732   5.417   5.377
    9G       O6  280   4.645   5.498   5.350
    9G       N1  281   4.687   5.305   5.446
    9G       H1  282   4.588   5.288   5.457
    9G       C2  283   4.768   5.214   5.494
    9G       N2  284   4.714   5.112   5.554
    9G      H21  285   4.617   5.113   5.585
    9G      H22  286   4.776   5.032   5.556
    9G       N3  287   4.904   5.214   5.479
    9G       C4  288   4.950   5.322   5.408
    9G      C3'  289   5.255   5.186   5.176
    9G      H3'  290   5.183   5.248   5.123
    9G      C2'  291   5.182   5.133   5.304
    9G      H2'  292   5.079   5.116   5.272
    9G      O2'  293   5.243   5.026   5.372
    9G     HO2'  294   5.176   4.965   5.403
    9G      O3'  295   5.305   5.074   5.107
   10U        P  296   5.216   5.016   4.995
   10U      OP1  297   5.302   4.895   4.963
   10U      OP2  298   5.196   5.118   4.895
   10U      O5'  299   5.071   4.973   5.055
   10U      C5'  300   5.064   4.843   5.114
   10U      H5'  301   5.145   4.833   5.186
   10U     H5''  302   5.079   4.769   5.035
   10U      C4'  303   4.933   4.823   5.192
   10U      H4'  304   4.943   4.740   5.262
   10U      O4'  305   4.883   4.943   5.260
   10U      C1'  306   4.742   4.939   5.258
   10U      H1'  307   4.703   4.938   5.359
   10U       N1  308   4.680   5.065   5.196
   10U       C6  309   4.762   5.166   5.142
   10U       H6  310   4.867   5.149   5.125
   10U       C5  311   4.699   5.279   5.094
   10U       H5  312   4.763   5.353   5.047
   10U       C4  313   4.552   5.294   5.090
   10U       O4  314   4.487   5.387   5.045
   10U       N3  315   4.481   5.188   5.138
   10U       H3  316   4.383   5.203   5.155
   10U       C2  317   4.539   5.072   5.195
   10U       O2  318   4.468   4.989   5.252
   10U      C3'  319   4.822   4.788   5.088
   10U      H3'  320   4.825   4.860   5.007
   10U      C2'  321   4.703   4.812   5.175
   10U      H2'  322   4.605   4.820   5.128
   10U      O2'  323   4.676   4.713   5.280
   10U     HO2'  324   4.652   4.632   5.234
   10U      O3'  325   4.832   4.655   5.046
   11U        P  326   4.763   4.612   4.913
   11U      OP1  327   4.801   4.476   4.887
   11U      OP2  328   4.793   4.714   4.811
   11U      O5'  329   4.613   4.626   4.962
   11U      C5'  330   4.544   4.523   5.035
   11U      H5'  331   4.598   4.504   5.128
   11U     H5''  332   4.542   4.429   4.980
   11U      C4'  333   4.399   4.561   5.061
   11U      H4'  334   4.350   4.486   5.123
   11U      O4'  335   4.386   4.673   5.136
   11U      C1'  336   4.272   4.746   5.091
   11U      H1'  337   4.209   4.767   5.177
   11U       N1  338   4.300   4.875   5.030
   11U       C6  339   4.404   4.895   4.946
   11U       H6  340   4.488   4.828   4.948
   11U       C5  341   4.409   5.006   4.869
   11U       H5  342   4.497   5.026   4.810
   11U       C4  343   4.307   5.111   4.872
   11U       O4  344   4.307   5.216   4.814
   11U       N3  345   4.197   5.085   4.953
   11U       H3  346   4.147   5.170   4.976
   11U       C2  347   4.197   4.971   5.040
   11U       O2  348   4.106   4.968   5.128
   11U      C3'  349   4.317   4.583   4.935
   11U      H3'  350   4.372   4.644   4.863
   11U      C2'  351   4.201   4.664   4.992
   11U      H2'  352   4.167   4.726   4.908
   11U      O2'  353   4.102   4.579   5.056
   11U     HO2'  354   4.047   4.538   4.989
   11U      O3'  355   4.275   4.464   4.875
   12A        P  356   4.325   4.434   4.731
   12A      OP1  357   4.312   4.286   4.718
   12A      OP2  358   4.462   4.484   4.713
   12A      O5'  359   4.225   4.512   4.637
   12A      C5'  360   4.096   4.473   4.602
   12A      H5'  361   4.049   4.475   4.700
   12A     H5''  362   4.101   4.369   4.568
   12A      C4'  363   4.035   4.573   4.502
   12A      H4'  364   3.934   4.535   4.482
   12A      O4'  365   4.035   4.707   4.552
   12A      C1'  366   4.084   4.790   4.447
   12A      H1'  367   4.023   4.878   4.428
   12A       N9  368   4.224   4.842   4.469
   12A       C8  369   4.297   4.821   4.585
   12A       H8  370   4.269   4.747   4.658
   12A       N7  371   4.408   4.888   4.595
   12A       C5  372   4.394   4.982   4.480
   12A       C6  373   4.461   5.098   4.430
   12A       N6  374   4.573   5.135   4.485
   12A      H61  375   4.625   5.217   4.457
   12A      H62  376   4.596   5.089   4.572
   12A       N1  377   4.419   5.167   4.325
   12A       C2  378   4.314   5.112   4.260
   12A       H2  379   4.283   5.165   4.171
   12A       N3  380   4.244   5.006   4.285
   12A       C4  381   4.284   4.949   4.404
   12A      C3'  382   4.112   4.563   4.369
   12A      H3'  383   4.220   4.566   4.384
   12A      C2'  384   4.070   4.705   4.318
   12A      H2'  385   4.135   4.747   4.241
   12A      O2'  386   3.938   4.713   4.272
   12A     HO2'  387   3.927   4.654   4.198
   12A      O3'  388   4.071   4.465   4.283
   13G        P  389   4.177   4.389   4.194
   13G      OP1  390   4.117   4.283   4.106
   13G      OP2  391   4.285   4.347   4.284
   13G      O5'  392   4.244   4.500   4.101
   13G      C5'  393   4.179   4.549   3.987
   13G      H5'  394   4.078   4.571   4.020
   13G     H5''  395   4.169   4.466   3.918
   13G      C4'  396   4.259   4.655   3.934
   13G      H4'  397   4.217   4.689   3.839
   13G      O4'  398   4.279   4.765   4.023
   13G      C1'  399   4.406   4.817   4.002
   13G      H1'  400   4.406   4.925   3.986
   13G       N9  401   4.485   4.792   4.124
   13G       C8  402   4.462   4.706   4.228
   13G       H8  403   4.375   4.643   4.238
   13G       N7  404   4.542   4.723   4.338
   13G       C5  405   4.627   4.826   4.292
   13G       C6  406   4.735   4.897   4.351
   13G       O6  407   4.779   4.879   4.462
   13G       N1  408   4.785   5.003   4.282
   13G       H1  409   4.830   5.071   4.342
   13G       C2  410   4.742   5.039   4.163
   13G       N2  411   4.776   5.148   4.111
   13G      H21  412   4.857   5.199   4.143
   13G      H22  413   4.746   5.166   4.017
   13G       N3  414   4.636   4.978   4.102
   13G       C4  415   4.585   4.871   4.166
   13G      C3'  416   4.399   4.612   3.897
   13G      H3'  417   4.443   4.557   3.980
   13G      C2'  418   4.471   4.746   3.884
   13G      H2'  419   4.579   4.751   3.902
   13G      O2'  420   4.433   4.823   3.772
   13G     HO2'  421   4.371   4.771   3.721
   13G      O3'  422   4.399   4.541   3.775
   14G        P  423   4.500   4.419   3.760
   14G      OP1  424   4.494   4.383   3.617
   14G      OP2  425   4.483   4.317   3.859
   14G      O5'  426   4.640   4.490   3.786
   14G      C5'  427   4.713   4.556   3.683
   14G      H5'  428   4.651   4.623   3.624
   14G     H5''  429   4.748   4.493   3.601
   14G      C4'  430   4.835   4.623   3.743
   14G      H4'  431   4.883   4.690   3.670
   14G      O4'  432   4.810   4.708   3.859
   14G      C1'  433   4.908   4.686   3.955
   14G      H1'  434   4.938   4.785   3.986
   14G       N9  435   4.853   4.617   4.075
   14G       C8  436   4.737   4.538   4.088
   14G       H8  437   4.682   4.503   4.002
   14G       N7  438   4.713   4.502   4.211
   14G       C5  439   4.815   4.562   4.285
   14G       C6  440   4.843   4.560   4.426
   14G       O6  441   4.780   4.510   4.519
   14G       N1  442   4.968   4.617   4.449
   14G       H1  443   4.993   4.633   4.546
   14G       C2  444   5.053   4.672   4.360
   14G       N2  445   5.172   4.706   4.397
   14G      H21  446   5.193   4.696   4.496
   14G      H22  447   5.240   4.742   4.332
   14G       N3  448   5.014   4.698   4.234
   14G       C4  449   4.894   4.636   4.203
   14G      C3'  450   4.940   4.522   3.785
   14G      H3'  451   4.894   4.435   3.833
   14G      C2'  452   5.021   4.603   3.885
   14G      H2'  453   5.077   4.542   3.956
   14G      O2'  454   5.108   4.693   3.817
   14G     HO2'  455   5.143   4.652   3.737
   14G      O3'  456   5.010   4.468   3.676
   15G        P  457   5.085   4.322   3.684
   15G      OP1  458   5.160   4.293   3.555
   15G      OP2  459   4.993   4.219   3.729
   15G      O5'  460   5.196   4.344   3.794
   15G      C5'  461   5.314   4.416   3.787
   15G      H5'  462   5.300   4.519   3.755
   15G     H5''  463   5.381   4.367   3.717
   15G      C4'  464   5.392   4.417   3.922
   15G      H4'  465   5.491   4.463   3.912
   15G      O4'  466   5.324   4.497   4.014
   15G      C1'  467   5.338   4.441   4.144
   15G      H1'  468   5.372   4.518   4.214
   15G       N9  469   5.206   4.386   4.200
   15G       C8  470   5.098   4.344   4.126
   15G       H8  471   5.082   4.351   4.019
   15G       N7  472   4.993   4.310   4.201
   15G       C5  473   5.047   4.304   4.335
   15G       C6  474   4.984   4.274   4.461
   15G       O6  475   4.868   4.237   4.485
   15G       N1  476   5.064   4.298   4.572
   15G       H1  477   5.010   4.309   4.656
   15G       C2  478   5.184   4.359   4.561
   15G       N2  479   5.243   4.373   4.678
   15G      H21  480   5.187   4.351   4.759
   15G      H22  481   5.330   4.425   4.672
   15G       N3  482   5.245   4.396   4.446
   15G       C4  483   5.175   4.364   4.334
   15G      C3'  484   5.413   4.274   3.987
   15G      H3'  485   5.324   4.211   3.976
   15G      C2'  486   5.434   4.325   4.128
   15G      H2'  487   5.410   4.244   4.197
   15G      O2'  488   5.564   4.377   4.156
   15G     HO2'  489   5.634   4.328   4.112
   15G      O3'  490   5.534   4.213   3.954
   16U        P  491   5.555   4.058   3.951
   16U      OP1  492   5.692   4.038   3.903
   16U      OP2  493   5.445   3.993   3.874
   16U      O5'  494   5.551   4.016   4.099
   16U      C5'  495   5.652   4.042   4.191
   16U      H5'  496   5.689   4.145   4.193
   16U     H5''  497   5.738   3.983   4.158
   16U      C4'  498   5.604   4.003   4.327
   16U      H4'  499   5.677   4.030   4.403
   16U      O4'  500   5.480   4.066   4.352
   16U      C1'  501   5.407   3.986   4.446
   16U      H1'  502   5.415   4.038   4.542
   16U       N1  503   5.263   3.968   4.392
   16U       C6  504   5.235   3.978   4.253
   16U       H6  505   5.315   4.007   4.186
   16U       C5  506   5.106   3.978   4.212
   16U       H5  507   5.083   4.009   4.112
   16U       C4  508   4.998   3.958   4.297
   16U       O4  509   4.884   3.969   4.259
   16U       N3  510   5.035   3.926   4.428
   16U       H3  511   4.959   3.915   4.493
   16U       C2  512   5.162   3.952   4.482
   16U       O2  513   5.182   3.945   4.602
   16U      C3'  514   5.569   3.852   4.336
   16U      H3'  515   5.503   3.826   4.254
   16U      C2'  516   5.481   3.848   4.461
   16U      H2'  517   5.425   3.755   4.465
   16U      O2'  518   5.559   3.840   4.587
   16U     HO2'  519   5.515   3.772   4.638
   16U      O3'  520   5.686   3.781   4.358
   17U        P  521   5.681   3.635   4.301
   17U      OP1  522   5.813   3.567   4.315
   17U      OP2  523   5.617   3.640   4.167
   17U      O5'  524   5.585   3.560   4.403
   17U      C5'  525   5.634   3.480   4.508
   17U      H5'  526   5.682   3.543   4.583
   17U     H5''  527   5.713   3.417   4.466
   17U      C4'  528   5.528   3.386   4.571
   17U      H4'  529   5.576   3.337   4.656
   17U      O4'  530   5.413   3.463   4.622
   17U      C1'  531   5.297   3.386   4.606
   17U      H1'  532   5.264   3.353   4.704
   17U       N1  533   5.196   3.462   4.541
   17U       C6  534   5.217   3.546   4.436
   17U       H6  535   5.319   3.561   4.404
   17U       C5  536   5.117   3.620   4.381
   17U       H5  537   5.144   3.694   4.308
   17U       C4  538   4.980   3.599   4.423
   17U       O4  539   4.877   3.657   4.386
   17U       N3  540   4.962   3.506   4.521
   17U       H3  541   4.868   3.492   4.555
   17U       C2  542   5.062   3.446   4.589
   17U       O2  543   5.027   3.388   4.692
   17U      C3'  544   5.471   3.287   4.466
   17U      H3'  545   5.462   3.345   4.374
   17U      C2'  546   5.329   3.260   4.528
   17U      H2'  547   5.261   3.249   4.443
   17U      O2'  548   5.339   3.150   4.619
   17U     HO2'  549   5.406   3.090   4.585
   17U      O3'  550   5.543   3.169   4.444
   18A        P  551   5.532   3.101   4.299
   18A      OP1  552   5.587   2.967   4.303
   18A      OP2  553   5.586   3.201   4.209
   18A      O5'  554   5.370   3.086   4.274
   18A      C5'  555   5.284   2.978   4.299
   18A      H5'  556   5.277   2.969   4.408
   18A     H5''  557   5.308   2.893   4.235
   18A      C4'  558   5.141   3.026   4.260
   18A      H4'  559   5.071   2.947   4.287
   18A      O4'  560   5.103   3.149   4.314
   18A      C1'  561   5.022   3.223   4.217
   18A      H1'  562   4.925   3.234   4.266
   18A       N9  563   5.084   3.343   4.163
   18A       C8  564   5.216   3.370   4.151
   18A       H8  565   5.296   3.310   4.192
   18A       N7  566   5.239   3.493   4.106
   18A       C5  567   5.110   3.540   4.077
   18A       C6  568   5.059   3.660   4.024
   18A       N6  569   5.137   3.759   3.991
   18A      H61  570   5.093   3.832   3.937
   18A      H62  571   5.237   3.763   3.998
   18A       N1  572   4.931   3.675   4.001
   18A       C2  573   4.855   3.575   4.039
   18A       H2  574   4.750   3.588   4.020
   18A       N3  575   4.888   3.454   4.090
   18A       C4  576   5.020   3.442   4.097
   18A      C3'  577   5.125   3.043   4.111
   18A      H3'  578   5.209   3.102   4.075
   18A      C2'  579   4.999   3.131   4.099
   18A      H2'  580   5.000   3.193   4.010
   18A      O2'  581   4.872   3.067   4.132
   18A     HO2'  582   4.813   3.110   4.070
   18A      O3'  583   5.112   2.923   4.041
   19G        P  584   5.124   2.925   3.885
   19G      OP1  585   5.096   2.787   3.843
   19G      OP2  586   5.251   2.988   3.841
   19G      O5'  587   5.000   3.011   3.832
   19G      C5'  588   4.872   2.955   3.829
   19G      H5'  589   4.843   2.926   3.930
   19G     H5''  590   4.859   2.880   3.752
   19G      C4'  591   4.786   3.073   3.778
   19G      H4'  592   4.685   3.034   3.791
   19G      O4'  593   4.817   3.198   3.856
   19G      C1'  594   4.805   3.311   3.761
   19G      H1'  595   4.737   3.387   3.800
   19G       N9  596   4.936   3.382   3.752
   19G       C8  597   5.060   3.335   3.778
   19G       H8  598   5.082   3.235   3.812
   19G       N7  599   5.155   3.428   3.766
   19G       C5  600   5.090   3.534   3.710
   19G       C6  601   5.138   3.666   3.668
   19G       O6  602   5.251   3.720   3.681
   19G       N1  603   5.041   3.742   3.603
   19G       H1  604   5.070   3.826   3.556
   19G       C2  605   4.912   3.708   3.599
   19G       N2  606   4.846   3.801   3.530
   19G      H21  607   4.886   3.891   3.509
   19G      H22  608   4.752   3.793   3.494
   19G       N3  609   4.863   3.590   3.640
   19G       C4  610   4.955   3.510   3.700
   19G      C3'  611   4.817   3.115   3.633
   19G      H3'  612   4.926   3.117   3.634
   19G      C2'  613   4.762   3.254   3.626
   19G      H2'  614   4.822   3.294   3.544
   19G      O2'  615   4.624   3.280   3.620
   19G     HO2'  616   4.580   3.231   3.690
   19G      O3'  617   4.764   3.030   3.534
   20G        P  618   4.824   3.029   3.385
   20G      OP1  619   4.754   2.926   3.307
   20G      OP2  620   4.970   3.024   3.387
   20G      O5'  621   4.793   3.165   3.312
   20G      C5'  622   4.655   3.209   3.268
   20G      H5'  623   4.584   3.211   3.351
   20G     H5''  624   4.620   3.138   3.193
   20G      C4'  625   4.650   3.354   3.210
   20G      H4'  626   4.548   3.374   3.176
   20G      O4'  627   4.693   3.449   3.306
   20G      C1'  628   4.772   3.551   3.238
   20G      H1'  629   4.740   3.653   3.261
   20G       N9  630   4.910   3.528   3.278
   20G       C8  631   4.978   3.432   3.350
   20G       H8  632   4.930   3.342   3.386
   20G       N7  633   5.105   3.460   3.369
   20G       C5  634   5.123   3.587   3.313
   20G       C6  635   5.233   3.677   3.293
   20G       O6  636   5.348   3.672   3.337
   20G       N1  637   5.209   3.791   3.227
   20G       H1  638   5.289   3.850   3.208
   20G       C2  639   5.092   3.815   3.166
   20G       N2  640   5.098   3.922   3.086
   20G      H21  641   5.191   3.954   3.064
   20G      H22  642   5.015   3.954   3.037
   20G       N3  643   4.984   3.736   3.167
   20G       C4  644   5.010   3.619   3.241
   20G      C3'  645   4.741   3.372   3.087
   20G      H3'  646   4.843   3.336   3.094
   20G      C2'  647   4.760   3.529   3.088
   20G      H2'  648   4.852   3.560   3.038
   20G      O2'  649   4.662   3.605   3.024
   20G     HO2'  650   4.615   3.539   2.972
   20G      O3'  651   4.672   3.326   2.979
   21G3       P  652   4.745   3.246   2.857
   21G3     OP1  653   4.646   3.226   2.749
   21G3     OP2  654   4.815   3.132   2.920
   21G3     O5'  655   4.836   3.352   2.823
   21G3     C5'  656   4.806   3.472   2.749
   21G3     H5'  657   4.730   3.521   2.810
   21G3    H5''  658   4.757   3.453   2.654
   21G3     C4'  659   4.926   3.569   2.733
   21G3     H4'  660   4.900   3.662   2.682
   21G3     O4'  661   4.976   3.609   2.858
   21G3     C1'  662   5.121   3.626   2.848
   21G3     H1'  663   5.149   3.731   2.851
   21G3      N9  664   5.190   3.547   2.949
   21G3      C8  665   5.145   3.435   3.012
   21G3      H8  666   5.042   3.403   3.000
   21G3      N7  667   5.231   3.371   3.086
   21G3      C5  668   5.343   3.455   3.070
   21G3      C6  669   5.474   3.444   3.127
   21G3      O6  670   5.524   3.353   3.204
   21G3      N1  671   5.562   3.542   3.081
   21G3      H1  672   5.658   3.543   3.112
   21G3      C2  673   5.529   3.636   2.996
   21G3      N2  674   5.630   3.704   2.959
   21G3     H21  675   5.714   3.690   3.014
   21G3     H22  676   5.625   3.772   2.884
   21G3      N3  677   5.405   3.660   2.943
   21G3      C4  678   5.322   3.566   2.986
   21G3     C3'  679   5.043   3.496   2.672
   21G3     H3'  680   5.064   3.398   2.714
   21G3     C2'  681   5.161   3.583   2.709
   21G3     H2'  682   5.248   3.518   2.705
   21G3     O2'  683   5.176   3.696   2.626
   21G3    HO2'  684   5.192   3.662   2.538
   21G3     O3'  685   5.026   3.477   2.530
   21G3    HO3'  686   4.980   3.394   2.518
   22Cl-    Cl-  687   6.104   4.136   1.549
   23Cl-    Cl-  688   1.440   1.906   3.991
   24Cl-    Cl-  689   4.574   1.341   4.017
   25Cl-    Cl-  690   6.175   3.857   5.415
   26Cl-    Cl-  691   6.415   7.439   9.678
   27Cl-    Cl-  692   3.121   2.987   3.925
   28Cl-    Cl-  693   8.821   9.045   7.681
   29Cl-    Cl-  694   6.248   2.888   7.052
   30Cl-    Cl-  695   6.958   8.401   1.589
   31Cl-    Cl-  696   2.011   3.790   9.603
   32Cl-    Cl-  697   4.375   2.768   1.203
   33Cl-    Cl-  698   1.527   2.631   8.225
   34Cl-    Cl-  699   0.972   3.015   6.472
   35Cl-    Cl-  700   4.272   7.001   6.355
   36Cl-    Cl-  701   7.271   1.889   7.614
   37Cl-    Cl-  702   9.112   3.946   3.752
   38Cl-    Cl-  703   0.711   9.590   9.829
   39Cl-    Cl-  704   3.684   0.227   2.865
   40Cl-    Cl-  705   2.848   2.258   0.666
   41Cl-    Cl-  706   1.575   5.789   2.125
   42Cl-    Cl-  707   1.694   0.898   9.618
   43Cl-    Cl-  708   5.611   1.016   0.744
   44Cl-    Cl-  709   7.121   0.177   5.491
   45Cl-    Cl-  710   0.590   6.286   8.580
   46Cl-    Cl-  711   1.543   8.912   1.059
   47Cl-    Cl-  712   7.881   6.897   1.420
   48Cl-    Cl-  713   6.976   3.405   0.615
   49Cl-    Cl-  714   4.302   6.162   1.937
   50Cl-    Cl-  715   7.764   9.030   0.671
   51Cl-    Cl-  716   2.622   7.601   4.609
   52Cl-    Cl-  717   5.870   2.776   6.156
   53Cl-    Cl-  718   9.538   2.189   2.329
   54Cl-    Cl-  719   0.732   5.215   4.871
   55Cl-    Cl-  720   5.613   5.188   0.675
   56Cl-    Cl-  721   8.342   8.008   8.019
   57Cl-    Cl-  722   5.161   9.731   3.168
   58Cl-    Cl-  723   0.923   0.378   9.303
   59Cl-    Cl-  724   5.225   5.346   8.581
   60Cl-    Cl-  725   8.288   2.494   7.993
   61Cl-    Cl-  726   4.861   8.975   9.675
   62Cl-    Cl-  727   1.154   6.413   6.443
   63Cl-    Cl-  728   1.692   1.774   6.516
   64Cl-    Cl-  729   1.807   0.403   2.612
   65Cl-    Cl-  730   0.715   5.982   6.454
   66Cl-    Cl-  731   8.490   0.338   0.325
   67Cl-    Cl-  732   9.265   1.403   4.795
   68Cl-    Cl-  733   0.510   5.170   2.349
   69Cl-    Cl-  734   9.201   1.448   8.101
   70Cl-    Cl-  735   8.430   2.863   8.514
   71Cl-    Cl-  736   5.992   0.828   0.075
   72Cl-    Cl-  737   7.499   6.191   0.450
   73Cl-    Cl-  738   1.991   9.229   7.294
   74Cl-    Cl-  739   9.334   2.648   7.846
   75Cl-    Cl-  740   7.686   6.368   8.932
   76Cl-    Cl-  741   1.476   1.167   8.144
   77Cl-    Cl-  742   6.356   1.987   1.074
   78Cl-    Cl-  743   0.435   1.995   5.468
   79Cl-    Cl-  744   2.921   7.585   3.519
   80Cl-    Cl-  745   9.144   8.873   4.749
   81Cl-    Cl-  746   1.975   3.386   9.269
   82Cl-    Cl-  747   7.723   7.208   4.348
   83Cl-    Cl-  748   4.382   2.024   5.154
   84Cl-    Cl-  749   4.950   7.957   9.272
   85Cl-    Cl-  750   0.970   7.382   3.417
   86Cl-    Cl-  751   1.457   9.644   0.768
   87Cl-    Cl-  752   4.125   0.639   4.785
   88Cl-    Cl-  753   7.749   9.314   4.862
   89Cl-    Cl-  754   7.300   7.149   7.098
   90Cl-    Cl-  755   3.899   2.543   6.385
   91Cl-    Cl-  756   2.486   9.318   9.257
   92Cl-    Cl-  757   7.717   2.192   6.256
   93Cl-    Cl-  758   6.150   3.493   9.756
   94Cl-    Cl-  759   8.924   5.745   0.558
   95Cl-    Cl-  760   9.373   0.982   3.779
   96Cl-    Cl-  761   6.611   3.885   6.741
   97Cl-    Cl-  762   8.628   3.778   5.365
   98Cl-    Cl-  763   6.878   5.900   6.422
   99Cl-    Cl-  764   0.113   3.222   1.064
  100Cl-    Cl-  765   0.421   0.504   6.965
  101Cl-    Cl-  766   1.190   7.632   8.796
  102Cl-    Cl-  767   8.470   4.736   6.280
  103Cl-    Cl-  768   0.292   9.399   6.885
  104Cl-    Cl-  769   1.326   2.751   3.204
  105Cl-    Cl-  770   6.923   0.176   6.025
  106Cl-    Cl-  771   6.342   1.080   3.870
  107K+      K+  772   4.599   4.681   4.607
  108K+      K+  773   8.427   2.779   7.431
  109K+      K+  774   4.693   5.646   4.686
  110K+      K+  775   4.285   2.357   8.439
  111K+      K+  776   1.928   7.139   4.425
  112K+      K+  777   0.355   1.787   1.504
  113K+      K+  778   6.443   2.516   8.273
  114K+      K+  779   4.532   6.090   5.347
  115K+      K+  780   1.707   6.881   3.829
  116K+      K+  781   4.427   3.336   7.312
  117K+      K+  782   6.158   0.110   1.420
  118K+      K+  783   5.095   4.548   3.387
  119K+      K+  784   4.620   4.300   4.625
  120K+      K+  785   5.406   3.502   3.839
  121K+      K+  786   6.267   5.390   6.379
  122K+      K+  787   6.820   2.865   9.556
  123K+      K+  788   5.960   2.293   0.275
  124K+      K+  789   1.225   7.279   7.209
  125K+      K+  790   9.045   8.612   1.604
  126K+      K+  791   0.277   3.368   8.828
  127K+      K+  792   3.296   0.936   1.742
  128K+      K+  793   1.351   4.056   2.300
  129K+      K+  794   5.651   0.843   5.157
  130K+      K+  795   4.282   9.287   3.197
  131K+      K+  796   7.021   3.549   5.461
  132K+      K+  797   3.541   5.573   4.619
  133K+      K+  798   0.519   2.218   3.768
  134K+      K+  799   9.248   1.358   9.884
  135K+      K+  800   0.253   3.403   6.064
  136K+      K+  801   7.548   2.124   4.721
  137K+      K+  802   4.989   0.329   8.842
  138K+      K+  803   5.631   3.100   3.144
  139K+      K+  804   8.817   1.725   8.015
  140K+      K+  805   5.598   6.139   6.851
  141K+      K+  806   5.418   6.333   4.720
  142K+      K+  807   6.965   4.673   0.934
  143K+      K+  808   1.555   3.654   9.764
  144K+      K+  809   4.725   4.201   4.213
  145K+      K+  810   1.189   7.738   3.678
  146K+      K+  811   2.002   5.782   2.077
  147K+      K+  812   4.591   5.821   0.979
  148K+      K+  813   6.969   5.132   7.686
  149K+      K+  814   4.639   9.662   3.940
  150K+      K+  815   4.346   4.052   5.127
  151K+      K+  816   4.715   1.985   5.588
  152K+      K+  817   4.300   8.356   0.552
  153K+      K+  818   6.738   2.394   3.029
  154K+      K+  819   1.707   1.854   0.051
  155K+      K+  820   5.612   2.471   7.719
  156K+      K+  821   4.751   6.085   5.727
  157K+      K+  822   9.432   4.250   7.138
  158K+      K+  823   0.991   0.460   7.642
  159K+      K+  824   5.670   3.177   6.305
  160K+      K+  825   2.459   1.597   1.630
  161K+      K+  826   1.226   2.449   4.838
  162K+      K+  827   9.712   3.279   5.218
  163K+      K+  828   8.782   6.196   5.274
  164K+      K+  829   0.795   0.884   9.325
  165K+      K+  830   6.427   3.932   4.178
  166K+      K+  831   3.941   1.337   5.075
  167K+      K+  832   9.549   4.601   4.046
  168K+      K+  833   7.726   6.000   0.722
  169K+      K+  834   3.728   7.358   4.992
  170K+      K+  835   5.347   3.317   3.414
  171K+      K+  836   3.794   9.116   5.046
  172K+      K+  837   8.831   8.282   1.618
  173K+      K+  838   0.751   5.657   6.475
  174K+      K+  839   8.664   1.571   6.055
  175K+      K+  840   6.729   8.001   2.482
  176K+      K+  841   5.610   5.867   0.436
  177K+      K+  842   7.948   4.675   4.831
  178K+      K+  843   2.216   0.378   4.211
  179K+      K+  844   4.958   1.502   3.676
  180K+      K+  845   1.589   0.275   0.197
  181K+      K+  846   6.969   1.929   6.443
  182K+      K+  847   3.631   3.567   3.263
  183K+      K+  848   7.358   7.006   9.656
  184K+      K+  849   9.482   8.708   3.384
  185K+      K+  850   5.947   4.772   4.204
  186K+      K+  851   8.378   3.829   2.404
  187K+      K+  852   5.472   3.858   3.620
  188K+      K+  853   9.414   9.157   7.214
  189K+      K+  854   0.578   3.792   9.316
  190K+      K+  855   6.947   9.253   5.557
  191K+      K+  856   3.194   0.955   8.691
  192K+      K+  857   4.624   6.355   9.447
  193K+      K+  858   7.389   6.774   7.066
  194K+      K+  859   1.363   6.725   8.674
  195K+      K+  860   8.122   0.237   7.530
  196K+      K+  861   5.763   1.297   0.791
  197K+      K+  862   9.458   0.423   0.790
  198K+      K+  863   6.869   2.773   7.100
  199K+      K+  864   8.089   0.125   3.714
  200K+      K+  865   9.431   3.632   6.519
  201K+      K+  866   9.514   9.183   6.783
  202K+      K+  867   1.227   2.861   0.038
  203K+      K+  868   1.567   2.178   8.400
  204K+      K+  869   4.599   5.740   5.458
  205K+      K+  870   4.872   0.686   9.555
  206K+      K+  871   8.373   5.091   1.284
  207K+      K+  872   6.936   7.351   8.151
  208K+      K+  873   1.291   8.187   8.981
  209K+      K+  874   9.420   4.666   1.591
  210K+      K+  875   1.209   1.319   9.719
  211K+      K+  876   5.504   8.791   8.304
  212WAT      O  877   1.562   6.434   7.864
  212WAT     H1  878   1.522   6.518   7.827
  212WAT     H2  879   1.596   6.452   7.957
  213WAT      O  880   8.324   3.542   8.983
  213WAT     H1  881   8.385   3.552   9.061
  213WAT     H2  882   8.316   3.629   8.936
  214WAT      O  883   6.640   6.473   6.717
  214WAT     H1  884   6.644   6.542   6.788
  214WAT     H2  885   6.575   6.401   6.743
  215WAT      O  886   1.580   4.454   4.390
  215WAT     H1  887   1.621   4.363   4.382
  215WAT     H2  888   1.580   4.498   4.300
  216WAT      O  889   6.249   0.251   7.475
  216WAT     H1  890   6.201   0.337   7.492
  216WAT     H2  891   6.290   0.218   7.560
  217WAT      O  892   9.391   5.611   8.196
  217WAT     H1  893   9.330   5.608   8.117
  217WAT     H2  894   9.473   5.663   8.172
  218WAT      O  895   5.420   0.547   1.862
  218WAT     H1  896   5.451   0.620   1.801
  218WAT     H2  897   5.326   0.523   1.840
  219WAT      O  898   7.185   6.945   0.606
  219WAT     H1  899   7.261   6.923   0.545
  219WAT     H2  900   7.098   6.930   0.558
  220WAT      O  901   9.833   2.303   9.415
  220WAT     H1  902   9.820   2.210   9.381
  220WAT     H2  903   9.931   2.323   9.420
  221WAT      O  904   5.394   2.891   6.028
  221WAT     H1  905   5.324   2.830   6.064
  221WAT     H2  906   5.475   2.838   6.003
  222WAT      O  907   1.614   4.112   9.588
  222WAT     H1  908   1.538   4.094   9.651
  222WAT     H2  909   1.694   4.142   9.640
  223WAT      O  910   1.020   1.001   0.736
  223WAT     H1  911   1.094   1.058   0.701
  223WAT     H2  912   1.046   0.963   0.825
  224WAT      O  913   4.950   1.772   2.692
  224WAT     H1  914   5.017   1.830   2.736
  224WAT     H2  915   4.926   1.810   2.603
  225WAT      O  916   7.267   3.727   0.035
  225WAT     H1  917   7.190   3.736   0.097
  225WAT     H2  918   7.237   3.743  -0.059
  226WAT      O  919   7.989   0.692   9.863
  226WAT     H1  920   8.075   0.641   9.865
  226WAT     H2  921   7.935   0.667   9.943
  227WAT      O  922   5.680   4.795   1.169
  227WAT     H1  923   5.719   4.706   1.192
  227WAT     H2  924   5.752   4.855   1.135
  228WAT      O  925   7.746   0.479   6.408
  228WAT     H1  926   7.680   0.466   6.482
  228WAT     H2  927   7.767   0.390   6.366
  229WAT      O  928   1.793   5.145   2.416
  229WAT     H1  929   1.697   5.134   2.391
  229WAT     H2  930   1.847   5.165   2.334
  230WAT      O  931   1.524   3.452   4.348
  230WAT     H1  932   1.547   3.362   4.309
  230WAT     H2  933   1.487   3.511   4.276
  231WAT      O  934   3.066   1.900   2.737
  231WAT     H1  935   3.075   1.893   2.638
  231WAT     H2  936   3.142   1.954   2.773
  232WAT      O  937   7.167   7.248   5.413
  232WAT     H1  938   7.074   7.211   5.411
  232WAT     H2  939   7.217   7.206   5.489
  233WAT      O  940   8.853   8.536   1.793
  233WAT     H1  941   8.872   8.477   1.871
  233WAT     H2  942   8.757   8.565   1.796
  234WAT      O  943   1.166   4.428   9.608
  234WAT     H1  944   1.172   4.402   9.705
  234WAT     H2  945   1.116   4.514   9.600
  235WAT      O  946   7.435   8.836   4.678
  235WAT     H1  947   7.346   8.870   4.647
  235WAT     H2  948   7.500   8.840   4.602
  236WAT      O  949   2.952   7.412   2.398
  236WAT     H1  950   3.017   7.488   2.403
  236WAT     H2  951   2.859   7.446   2.411
  237WAT      O  952   3.488   0.073   5.784
  237WAT     H1  953   3.459  -0.001   5.724
  237WAT     H2  954   3.409   0.129   5.808
  238WAT      O  955   9.141   5.800   6.970
  238WAT     H1  956   9.227   5.754   6.991
  238WAT     H2  957   9.068   5.764   7.028
  239WAT      O  958   1.792   2.527   2.136
  239WAT     H1  959   1.785   2.432   2.168
  239WAT     H2  960   1.752   2.588   2.205
  240WAT      O  961   9.288   0.561   3.593
  240WAT     H1  962   9.324   0.647   3.557
  240WAT     H2  963   9.353   0.522   3.659
  241WAT      O  964   7.210   8.312   8.023
  241WAT     H1  965   7.140   8.279   7.960
  241WAT     H2  966   7.189   8.407   8.049
  242WAT      O  967   0.899   1.576   8.154
  242WAT     H1  968   0.972   1.517   8.187
  242WAT     H2  969   0.932   1.632   8.078
  243WAT      O  970   0.851   9.420   8.659
  243WAT     H1  971   0.901   9.502   8.687
  243WAT     H2  972   0.898   9.338   8.693
  244WAT      O  973   5.771   4.772   8.728
  244WAT     H1  974   5.720   4.810   8.650
  244WAT     H2  975   5.867   4.797   8.720
  245WAT      O  976   3.296   3.257   7.648
  245WAT     H1  977   3.336   3.287   7.561
  245WAT     H2  978   3.279   3.337   7.705
  246WAT      O  979   2.903   5.433   2.883
  246WAT     H1  980   2.874   5.475   2.969
  246WAT     H2  981   2.940   5.342   2.902
  247WAT      O  982   0.020   9.335   6.300
  247WAT     H1  983   0.005   9.431   6.324
  247WAT     H2  984   0.054   9.329   6.206
  248WAT      O  985   8.101   7.113   8.691
  248WAT     H1  986   8.071   7.192   8.744
  248WAT     H2  987   8.023   7.070   8.647
  249WAT      O  988   8.844   8.811   4.695
  249WAT     H1  989   8.830   8.838   4.599
  249WAT     H2  990   8.941   8.815   4.716
  250WAT      O  991   0.876   9.074   8.357
  250WAT     H1  992   0.828   8.987   8.366
  250WAT     H2  993   0.809   9.149   8.361
  251WAT      O  994   5.561   6.318   6.661
  251WAT     H1  995   5.481   6.263   6.636
  251WAT     H2  996   5.586   6.377   6.584
  252WAT      O  997   4.241   5.527   3.018
  252WAT     H1  998   4.263   5.609   3.070
  252WAT     H2  999   4.147   5.500   3.036
  253WAT      O 1000   3.818   1.248   7.377
  253WAT     H1 1001   3.823   1.312   7.300
  253WAT     H2 1002   3.902   1.194   7.380
  254WAT      O 1003   1.503   6.188   7.981
  254WAT     H1 1004   1.449   6.222   8.058
  254WAT     H2 1005   1.523   6.264   7.919
  255WAT      O 1006   4.946   2.982   2.696
  255WAT     H1 1007   4.883   2.917   2.737
  255WAT     H2 1008   4.969   3.053   2.763
  256WAT      O 1009   8.549   9.821   9.444
  256WAT     H1 1010   8.519   9.777   9.359
  256WAT     H2 1011   8.490   9.899   9.464
  257WAT      O 1012   9.142   5.090   7.869
  257WAT     H1 1013   9.211   5.161   7.859
  257WAT     H2 1014   9.153   5.023   7.795
  258WAT      O 1015   8.978   6.756   6.342
  258WAT     H1 1016   9.012   6.666   6.368
  258WAT     H2 1017   8.880   6.761   6.359
  259WAT      O 1018   0.077   5.887   2.229
  259WAT     H1 1019   0.148   5.842   2.175
  259WAT     H2 1020   0.120   5.950   2.295
  260WAT      O 1021   7.493   3.890   5.930
  260WAT     H1 1022   7.429   3.817   5.950
  260WAT     H2 1023   7.569   3.854   5.875
  261WAT      O 1024   7.300   4.556   8.613
  261WAT     H1 1025   7.371   4.574   8.545
  261WAT     H2 1026   7.248   4.640   8.630
  262WAT      O 1027   1.238   0.283   3.697
  262WAT     H1 1028   1.203   0.304   3.606
  262WAT     H2 1029   1.338   0.286   3.695
  263WAT      O 1030   7.616   5.894   9.838
  263WAT     H1 1031   7.676   5.816   9.856
  263WAT     H2 1032   7.548   5.901   9.912
  264WAT      O 1033   4.918   0.221   2.238
  264WAT     H1 1034   5.016   0.204   2.242
  264WAT     H2 1035   4.874   0.176   2.316
  265WAT      O 1036   8.744   9.700   7.399
  265WAT     H1 1037   8.748   9.786   7.450
  265WAT     H2 1038   8.792   9.629   7.450
  266WAT      O 1039   5.069   2.462   6.369
  266WAT     H1 1040   4.991   2.445   6.430
  266WAT     H2 1041   5.042   2.529   6.299
  267WAT      O 1042   8.367   0.157   9.528
  267WAT     H1 1043   8.286   0.129   9.477
  267WAT     H2 1044   8.369   0.256   9.537
  268WAT      O 1045   2.344   2.446   0.677
  268WAT     H1 1046   2.319   2.370   0.617
  268WAT     H2 1047   2.361   2.412   0.769
  269WAT      O 1048   3.753   0.232   6.437
  269WAT     H1 1049   3.662   0.210   6.473
  269WAT     H2 1050   3.784   0.158   6.378
  270WAT      O 1051   0.079   6.062   0.802
  270WAT     H1 1052   0.010   6.133   0.788
  270WAT     H2 1053   0.034   5.973   0.813
  271WAT      O 1054   3.128   6.954   8.155
  271WAT     H1 1055   3.120   7.044   8.197
  271WAT     H2 1056   3.210   6.951   8.098
  272WAT      O 1057   9.022   8.336   2.544
  272WAT     H1 1058   9.041   8.304   2.451
  272WAT     H2 1059   9.079   8.285   2.608
  273WAT      O 1060   3.802   0.448   7.648
  273WAT     H1 1061   3.735   0.391   7.600
  273WAT     H2 1062   3.760   0.534   7.675
  274WAT      O 1063   6.211   1.328   8.858
  274WAT     H1 1064   6.209   1.376   8.771
  274WAT     H2 1065   6.306   1.320   8.890
  275WAT      O 1066   2.920   9.282   5.692
  275WAT     H1 1067   2.931   9.381   5.686
  275WAT     H2 1068   2.961   9.238   5.612
  276WAT      O 1069   3.080   9.151   7.223
  276WAT     H1 1070   3.075   9.250   7.232
  276WAT     H2 1071   2.994   9.110   7.252
  277WAT      O 1072   2.881   1.398   9.344
  277WAT     H1 1073   2.939   1.422   9.423
  277WAT     H2 1074   2.849   1.304   9.354
  278WAT      O 1075   5.882   0.351   7.125
  278WAT     H1 1076   5.881   0.350   7.025
  278WAT     H2 1077   5.965   0.305   7.158
  279WAT      O 1078   9.884   7.708   7.178
  279WAT     H1 1079   9.839   7.745   7.259
  279WAT     H2 1080   9.854   7.614   7.164
  280WAT      O 1081   3.100   6.718   6.809
  280WAT     H1 1082   3.111   6.624   6.843
  280WAT     H2 1083   3.094   6.781   6.886
  281WAT      O 1084   2.379   5.171   0.551
  281WAT     H1 1085   2.318   5.239   0.510
  281WAT     H2 1086   2.325   5.107   0.606
  282WAT      O 1087   3.974   0.586   8.757
  282WAT     H1 1088   3.920   0.536   8.825
  282WAT     H2 1089   3.996   0.677   8.792
  283WAT      O 1090   4.953   5.571   7.357
  283WAT     H1 1091   4.880   5.550   7.292
  283WAT     H2 1092   4.919   5.562   7.450
  284WAT      O 1093   2.792   1.542   9.120
  284WAT     H1 1094   2.855   1.617   9.102
  284WAT     H2 1095   2.825   1.489   9.199
  285WAT      O 1096   0.655   0.516   2.195
  285WAT     H1 1097   0.720   0.520   2.119
  285WAT     H2 1098   0.562   0.508   2.160
  286WAT      O 1099   6.123   9.159   3.648
  286WAT     H1 1100   6.188   9.156   3.573
  286WAT     H2 1101   6.030   9.160   3.612
  287WAT      O 1102   5.642   5.013   9.846
  287WAT     H1 1103   5.610   4.925   9.882
  287WAT     H2 1104   5.636   5.083   9.917
  288WAT      O 1105   9.066   3.107   7.390
  288WAT     H1 1106   9.159   3.071   7.388
  288WAT     H2 1107   9.067   3.201   7.423
  289WAT      O 1108   1.121   0.101   1.715
  289WAT     H1 1109   1.162   0.169   1.654
  289WAT     H2 1110   1.183   0.024   1.725
  290WAT      O 1111   0.402   7.716   8.011
  290WAT     H1 1112   0.432   7.627   8.045
  290WAT     H2 1113   0.477   7.782   8.020
  291WAT      O 1114   4.952   2.432   2.616
  291WAT     H1 1115   4.917   2.380   2.538
  291WAT     H2 1116   5.017   2.500   2.585
  292WAT      O 1117   5.959   0.203   8.209
  292WAT     H1 1118   5.863   0.227   8.222
  292WAT     H2 1119   5.968   0.103   8.201
  293WAT      O 1120   7.843   1.365   4.849
  293WAT     H1 1121   7.751   1.385   4.818
  293WAT     H2 1122   7.902   1.344   4.771
  294WAT      O 1123   9.654   8.840   4.499
  294WAT     H1 1124   9.630   8.933   4.471
  294WAT     H2 1125   9.619   8.775   4.431
  295WAT      O 1126   4.057   0.054   6.380
  295WAT     H1 1127   4.148   0.055   6.338
  295WAT     H2 1128   4.058   0.109   6.464
  296WAT      O 1129   4.777   0.426   0.144
  296WAT     H1 1130   4.701   0.488   0.125
  296WAT     H2 1131   4.744   0.347   0.196
  297WAT      O 1132   2.264   9.052   2.218
  297WAT     H1 1133   2.186   9.114   2.208
  297WAT     H2 1134   2.231   8.964   2.254
  298WAT      O 1135   0.373   5.696   0.738
  298WAT     H1 1136   0.362   5.795   0.728
  298WAT     H2 1137   0.398   5.674   0.832
  299WAT      O 1138   1.921   2.346   9.707
  299WAT     H1 1139   2.002   2.342   9.765
  299WAT     H2 1140   1.928   2.425   9.646
  300WAT      O 1141   6.535   2.049   4.666
  300WAT     H1 1142   6.442   2.085   4.672
  300WAT     H2 1143   6.590   2.104   4.603
  301WAT      O 1144   8.154   1.617   6.439
  301WAT     H1 1145   8.089   1.543   6.423
  301WAT     H2 1146   8.114   1.704   6.411
  302WAT      O 1147   5.008   5.214   4.446
  302WAT     H1 1148   5.086   5.272   4.425
  302WAT     H2 1149   4.929   5.271   4.470
  303WAT      O 1150   9.690   8.523   1.884
  303WAT     H1 1151   9.735   8.516   1.973
  303WAT     H2 1152   9.707   8.613   1.845
  304WAT      O 1153   9.536   5.434   9.272
  304WAT     H1 1154   9.560   5.522   9.313
  304WAT     H2 1155   9.580   5.426   9.183
  305WAT      O 1156   6.909   4.879   2.767
  305WAT     H1 1157   6.889   4.898   2.863
  305WAT     H2 1158   6.862   4.795   2.740
  306WAT      O 1159   8.106   1.277   3.634
  306WAT     H1 1160   8.147   1.359   3.595
  306WAT     H2 1161   8.168   1.199   3.621
  307WAT      O 1162   9.279   4.788   5.046
  307WAT     H1 1163   9.208   4.841   5.092
  307WAT     H2 1164   9.251   4.692   5.042
  308WAT      O 1165   8.764   4.400   5.787
  308WAT     H1 1166   8.771   4.450   5.701
  308WAT     H2 1167   8.808   4.311   5.777
  309WAT      O 1168   4.052   6.051   7.964
  309WAT     H1 1169   3.957   6.021   7.959
  309WAT     H2 1170   4.094   6.044   7.874
  310WAT      O 1171   7.168   4.102   2.602
  310WAT     H1 1172   7.116   4.037   2.659
  310WAT     H2 1173   7.260   4.112   2.638
  311WAT      O 1174   8.571   2.125   2.530
  311WAT     H1 1175   8.505   2.056   2.562
  311WAT     H2 1176   8.612   2.170   2.610
  312WAT      O 1177   3.499   3.972   6.610
  312WAT     H1 1178   3.560   3.911   6.660
  312WAT     H2 1179   3.543   4.000   6.524
  313WAT      O 1180   0.752   6.243   1.793
  313WAT     H1 1181   0.778   6.245   1.697
  313WAT     H2 1182   0.661   6.202   1.802
  314WAT      O 1183   5.305   3.374   5.460
  314WAT     H1 1184   5.398   3.410   5.470
  314WAT     H2 1185   5.293   3.340   5.366
  315WAT      O 1186   9.516   2.797   5.505
  315WAT     H1 1187   9.576   2.859   5.555
  315WAT     H2 1188   9.442   2.766   5.565
  316WAT      O 1189   7.028   6.487   8.280
  316WAT     H1 1190   6.977   6.425   8.220
  316WAT     H2 1191   7.115   6.445   8.305
  317WAT      O 1192   0.221   3.950   3.824
  317WAT     H1 1193   0.196   3.919   3.732
  317WAT     H2 1194   0.138   3.974   3.874
  318WAT      O 1195   6.283   6.385   4.147
  318WAT     H1 1196   6.310   6.290   4.158
  318WAT     H2 1197   6.355   6.445   4.183
  319WAT      O 1198   1.126   5.614   6.786
  319WAT     H1 1199   1.160   5.522   6.809
  319WAT     H2 1200   1.168   5.643   6.700
  320WAT      O 1201   7.070   8.672   4.990
  320WAT     H1 1202   7.054   8.747   4.926
  320WAT     H2 1203   7.007   8.679   5.067
  321WAT      O 1204   3.920   8.838   2.840
  321WAT     H1 1205   3.900   8.766   2.773
  321WAT     H2 1206   3.944   8.922   2.791
  322WAT      O 1207   5.495   8.530   8.269
  322WAT     H1 1208   5.409   8.506   8.315
  322WAT     H2 1209   5.552   8.448   8.262
  323WAT      O 1210   9.051   5.723   3.371
  323WAT     H1 1211   9.002   5.809   3.374
  323WAT     H2 1212   9.047   5.678   3.460
  324WAT      O 1213   3.303   3.246   8.007
  324WAT     H1 1214   3.250   3.236   8.092
  324WAT     H2 1215   3.399   3.226   8.025
  325WAT      O 1216   7.192   8.440   9.863
  325WAT     H1 1217   7.173   8.538   9.871
  325WAT     H2 1218   7.142   8.391   9.934
  326WAT      O 1219   6.993   7.630   2.729
  326WAT     H1 1220   6.964   7.697   2.797
  326WAT     H2 1221   7.069   7.576   2.766
  327WAT      O 1222   3.609   1.271   6.844
  327WAT     H1 1223   3.650   1.362   6.838
  327WAT     H2 1224   3.510   1.279   6.842
  328WAT      O 1225   0.372   5.783   5.531
  328WAT     H1 1226   0.396   5.855   5.596
  328WAT     H2 1227   0.423   5.700   5.552
  329WAT      O 1228   9.079   8.274   1.288
  329WAT     H1 1229   9.125   8.327   1.216
  329WAT     H2 1230   9.019   8.206   1.245
  330WAT      O 1231   1.857   0.444   7.421
  330WAT     H1 1232   1.907   0.420   7.504
  330WAT     H2 1233   1.795   0.520   7.440
  331WAT      O 1234   7.493   1.473   2.289
  331WAT     H1 1235   7.533   1.562   2.265
  331WAT     H2 1236   7.452   1.432   2.207
  332WAT      O 1237   7.189   6.742   2.587
  332WAT     H1 1238   7.174   6.825   2.534
  332WAT     H2 1239   7.182   6.662   2.527
  333WAT      O 1240   0.943   6.835   8.493
  333WAT     H1 1241   1.034   6.852   8.531
  333WAT     H2 1242   0.874   6.882   8.548
  334WAT      O 1243   9.244   3.985   4.983
  334WAT     H1 1244   9.229   3.990   4.884
  334WAT     H2 1245   9.268   4.075   5.018
  335WAT      O 1246   6.234   3.882   7.526
  335WAT     H1 1247   6.155   3.829   7.494
  335WAT     H2 1248   6.318   3.836   7.498
  336WAT      O 1249   6.435   9.090   8.962
  336WAT     H1 1250   6.506   9.158   8.978
  336WAT     H2 1251   6.452   9.010   9.020
  337WAT      O 1252   1.113   0.587   6.647
  337WAT     H1 1253   1.032   0.532   6.626
  337WAT     H2 1254   1.086   0.669   6.696
  338WAT      O 1255   8.160   9.461   9.478
  338WAT     H1 1256   8.260   9.464   9.471
  338WAT     H2 1257   8.134   9.459   9.575
  339WAT      O 1258   6.116   2.206   6.951
  339WAT     H1 1259   6.183   2.265   6.907
  339WAT     H2 1260   6.149   2.112   6.950
  340WAT      O 1261   6.500   7.609   5.059
  340WAT     H1 1262   6.511   7.689   5.000
  340WAT     H2 1263   6.403   7.593   5.075
  341WAT      O 1264   3.554   5.021   2.709
  341WAT     H1 1265   3.571   4.946   2.773
  341WAT     H2 1266   3.604   5.103   2.738
  342WAT      O 1267   7.803   2.887   2.367
  342WAT     H1 1268   7.714   2.856   2.335
  342WAT     H2 1269   7.790   2.950   2.445
  343WAT      O 1270   2.747   4.079   6.039
  343WAT     H1 1271   2.690   4.158   6.060
  343WAT     H2 1272   2.697   4.016   5.980
  344WAT      O 1273   2.746   5.721   2.447
  344WAT     H1 1274   2.815   5.660   2.407
  344WAT     H2 1275   2.761   5.729   2.545
  345WAT      O 1276   9.636   4.077   9.213
  345WAT     H1 1277   9.735   4.068   9.219
  345WAT     H2 1278   9.600   4.008   9.149
  346WAT      O 1279   4.585   3.008   0.841
  346WAT     H1 1280   4.603   3.019   0.939
  346WAT     H2 1281   4.486   3.005   0.826
  347WAT      O 1282   2.328   6.022   0.945
  347WAT     H1 1283   2.408   6.081   0.931
  347WAT     H2 1284   2.254   6.050   0.883
  348WAT      O 1285   4.090   4.218   3.649
  348WAT     H1 1286   4.129   4.223   3.741
  348WAT     H2 1287   4.000   4.261   3.649
  349WAT      O 1288   1.883   6.257   3.031
  349WAT     H1 1289   1.964   6.272   3.089
  349WAT     H2 1290   1.892   6.310   2.947
  350WAT      O 1291   3.355   7.494   5.309
  350WAT     H1 1292   3.386   7.507   5.403
  350WAT     H2 1293   3.267   7.540   5.295
  351WAT      O 1294   9.307   1.769   1.008
  351WAT     H1 1295   9.356   1.853   1.033
  351WAT     H2 1296   9.367   1.709   0.955
  352WAT      O 1297   4.759   4.481   9.866
  352WAT     H1 1298   4.789   4.389   9.891
  352WAT     H2 1299   4.836   4.532   9.828
  353WAT      O 1300   7.642   1.364   5.959
  353WAT     H1 1301   7.739   1.338   5.969
  353WAT     H2 1302   7.625   1.447   6.013
  354WAT      O 1303   6.996   0.031   5.763
  354WAT     H1 1304   6.973   0.107   5.824
  354WAT     H2 1305   7.068   0.061   5.700
  355WAT      O 1306   3.632   7.327   6.528
  355WAT     H1 1307   3.634   7.330   6.428
  355WAT     H2 1308   3.707   7.381   6.564
  356WAT      O 1309   4.196   9.572   5.116
  356WAT     H1 1310   4.159   9.664   5.127
  356WAT     H2 1311   4.226   9.559   5.021
  357WAT      O 1312   7.218   7.076   1.042
  357WAT     H1 1313   7.318   7.071   1.042
  357WAT     H2 1314   7.189   7.152   1.100
  358WAT      O 1315   4.765   1.155   9.085
  358WAT     H1 1316   4.842   1.218   9.070
  358WAT     H2 1317   4.688   1.206   9.123
  359WAT      O 1318   2.168   5.766   3.607
  359WAT     H1 1319   2.081   5.771   3.655
  359WAT     H2 1320   2.166   5.826   3.527
  360WAT      O 1321   4.095   7.987   7.765
  360WAT     H1 1322   3.997   7.988   7.784
  360WAT     H2 1323   4.113   8.036   7.680
  361WAT      O 1324   1.571   6.181   4.181
  361WAT     H1 1325   1.574   6.088   4.219
  361WAT     H2 1326   1.555   6.246   4.255
  362WAT      O 1327   7.429   6.138   3.832
  362WAT     H1 1328   7.397   6.161   3.740
  362WAT     H2 1329   7.422   6.218   3.891
  363WAT      O 1330   2.717   7.443   9.025
  363WAT     H1 1331   2.784   7.397   9.083
  363WAT     H2 1332   2.725   7.542   9.037
  364WAT      O 1333   7.166   0.404   0.090
  364WAT     H1 1334   7.263   0.430   0.094
  364WAT     H2 1335   7.151   0.325   0.149
  365WAT      O 1336   1.154   3.531   3.669
  365WAT     H1 1337   1.132   3.446   3.716
  365WAT     H2 1338   1.117   3.529   3.576
  366WAT      O 1339   8.868   6.601   8.586
  366WAT     H1 1340   8.850   6.564   8.495
  366WAT     H2 1341   8.813   6.552   8.654
  367WAT      O 1342   0.092   2.360   6.654
  367WAT     H1 1343   0.180   2.365   6.701
  367WAT     H2 1344   0.096   2.290   6.583
  368WAT      O 1345   7.685   4.286   8.224
  368WAT     H1 1346   7.718   4.218   8.159
  368WAT     H2 1347   7.656   4.239   8.308
  369WAT      O 1348   9.224   1.459   8.400
  369WAT     H1 1349   9.240   1.458   8.302
  369WAT     H2 1350   9.133   1.496   8.419
  370WAT      O 1351   6.344   3.851   6.335
  370WAT     H1 1352   6.362   3.824   6.430
  370WAT     H2 1353   6.429   3.847   6.282
  371WAT      O 1354   8.649   7.170   1.901
  371WAT     H1 1355   8.595   7.251   1.878
  371WAT     H2 1356   8.628   7.142   1.995
  372WAT      O 1357   1.993   5.638   7.699
  372WAT     H1 1358   1.911   5.586   7.721
  372WAT     H2 1359   1.987   5.671   7.605
  373WAT      O 1360   0.476   0.405   9.794
  373WAT     H1 1361   0.563   0.360   9.812
  373WAT     H2 1362   0.479   0.500   9.825
  374WAT      O 1363   8.756   5.473   9.372
  374WAT     H1 1364   8.661   5.475   9.340
  374WAT     H2 1365   8.777   5.381   9.404
  375WAT      O 1366   2.454   3.751   5.260
  375WAT     H1 1367   2.381   3.749   5.192
  375WAT     H2 1368   2.542   3.735   5.215
  376WAT      O 1369   0.231   1.117   3.028
  376WAT     H1 1370   0.156   1.110   2.962
  376WAT     H2 1371   0.255   1.025   3.061
  377WAT      O 1372   0.223   5.122   3.076
  377WAT     H1 1373   0.298   5.157   3.131
  377WAT     H2 1374   0.153   5.192   3.066
  378WAT      O 1375   4.725   7.646   1.575
  378WAT     H1 1376   4.654   7.697   1.624
  378WAT     H2 1377   4.787   7.605   1.642
  379WAT      O 1378   3.177   2.476   6.345
  379WAT     H1 1379   3.264   2.456   6.389
  379WAT     H2 1380   3.167   2.419   6.263
  380WAT      O 1381   8.867   5.066   9.298
  380WAT     H1 1382   8.801   5.119   9.245
  380WAT     H2 1383   8.941   5.035   9.238
  381WAT      O 1384   8.010   6.845   9.049
  381WAT     H1 1385   7.967   6.874   9.134
  381WAT     H2 1386   7.949   6.783   9.000
  382WAT      O 1387   8.234   5.206   9.587
  382WAT     H1 1388   8.235   5.116   9.630
  382WAT     H2 1389   8.291   5.269   9.640
  383WAT      O 1390   5.978   8.998   7.027
  383WAT     H1 1391   5.982   8.944   7.111
  383WAT     H2 1392   6.022   8.948   6.953
  384WAT      O 1393   5.510   8.511   3.304
  384WAT     H1 1394   5.449   8.590   3.317
  384WAT     H2 1395   5.486   8.463   3.220
  385WAT      O 1396   2.459   5.349   2.217
  385WAT     H1 1397   2.445   5.408   2.137
  385WAT     H2 1398   2.491   5.403   2.294
  386WAT      O 1399   6.529   9.015   9.619
  386WAT     H1 1400   6.540   9.075   9.539
  386WAT     H2 1401   6.490   9.067   9.695
  387WAT      O 1402   5.342   3.485   7.939
  387WAT     H1 1403   5.384   3.441   7.860
  387WAT     H2 1404   5.378   3.578   7.950
  388WAT      O 1405   3.998   9.377   5.787
  388WAT     H1 1406   3.943   9.299   5.756
  388WAT     H2 1407   4.019   9.366   5.884
  389WAT      O 1408   0.864   3.432   4.340
  389WAT     H1 1409   0.910   3.519   4.355
  389WAT     H2 1410   0.766   3.443   4.361
  390WAT      O 1411   9.395   6.395   4.469
  390WAT     H1 1412   9.384   6.299   4.442
  390WAT     H2 1413   9.426   6.449   4.391
  391WAT      O 1414   7.618   1.803   8.943
  391WAT     H1 1415   7.647   1.841   9.031
  391WAT     H2 1416   7.698   1.770   8.893
  392WAT      O 1417   9.573   5.346   0.156
  392WAT     H1 1418   9.624   5.379   0.077
  392WAT     H2 1419   9.480   5.381   0.153
  393WAT      O 1420   5.184   4.533   1.598
  393WAT     H1 1421   5.272   4.488   1.615
  393WAT     H2 1422   5.149   4.570   1.685
  394WAT      O 1423   8.965   6.700   0.735
  394WAT     H1 1424   8.939   6.748   0.819
  394WAT     H2 1425   8.999   6.767   0.668
  395WAT      O 1426   6.498   7.912   2.917
  395WAT     H1 1427   6.507   7.817   2.945
  395WAT     H2 1428   6.404   7.943   2.935
  396WAT      O 1429   2.532   7.051   1.935
  396WAT     H1 1430   2.459   7.110   1.970
  396WAT     H2 1431   2.620   7.080   1.974
  397WAT      O 1432   0.060   5.901   0.008
  397WAT     H1 1433  -0.001   5.827   0.034
  397WAT     H2 1434   0.027   5.943  -0.077
  398WAT      O 1435   9.157   3.134   6.964
  398WAT     H1 1436   9.087   3.181   7.018
  398WAT     H2 1437   9.187   3.052   7.013
  399WAT      O 1438   6.293   8.421   3.193
  399WAT     H1 1439   6.390   8.442   3.180
  399WAT     H2 1440   6.240   8.506   3.193
  400WAT      O 1441   4.638   5.864   3.988
  400WAT     H1 1442   4.737   5.868   3.984
  400WAT     H2 1443   4.601   5.956   4.002
  401WAT      O 1444   0.668   7.153   8.947
  401WAT     H1 1445   0.688   7.062   8.983
  401WAT     H2 1446   0.656   7.217   9.022
  402WAT      O 1447   0.801   9.179   2.847
  402WAT     H1 1448   0.743   9.221   2.917
  402WAT     H2 1449   0.743   9.127   2.784
  403WAT      O 1450   9.820   6.528   8.296
  403WAT     H1 1451   9.721   6.532   8.313
  403WAT     H2 1452   9.868   6.510   8.381
  404WAT      O 1453   9.136   2.355   8.807
  404WAT     H1 1454   9.136   2.416   8.728
  404WAT     H2 1455   9.190   2.273   8.785
  405WAT      O 1456   2.418   0.179   5.196
  405WAT     H1 1457   2.341   0.226   5.153
  405WAT     H2 1458   2.479   0.247   5.238
  406WAT      O 1459   5.141   6.045   7.935
  406WAT     H1 1460   5.067   6.105   7.903
  406WAT     H2 1461   5.229   6.090   7.921
  407WAT      O 1462   5.224   2.769   9.000
  407WAT     H1 1463   5.170   2.766   9.085
  407WAT     H2 1464   5.166   2.742   8.923
  408WAT      O 1465   6.253   3.324   2.289
  408WAT     H1 1466   6.256   3.224   2.284
  408WAT     H2 1467   6.239   3.353   2.384
  409WAT      O 1468   3.996   6.437   5.973
  409WAT     H1 1469   4.080   6.397   5.935
  409WAT     H2 1470   3.927   6.366   5.983
  410WAT      O 1471   4.441   3.207   2.321
  410WAT     H1 1472   4.489   3.255   2.248
  410WAT     H2 1473   4.373   3.145   2.281
  411WAT      O 1474   8.367   7.029   4.651
  411WAT     H1 1475   8.383   6.931   4.634
  411WAT     H2 1476   8.405   7.083   4.576
  412WAT      O 1477   3.819   4.687   6.089
  412WAT     H1 1478   3.840   4.677   5.992
  412WAT     H2 1479   3.904   4.697   6.140
  413WAT      O 1480   3.328   2.637   3.413
  413WAT     H1 1481   3.350   2.628   3.510
  413WAT     H2 1482   3.232   2.662   3.403
  414WAT      O 1483   5.108   3.988   3.475
  414WAT     H1 1484   5.049   4.056   3.431
  414WAT     H2 1485   5.197   4.029   3.494
  415WAT      O 1486   9.507   0.015   1.055
  415WAT     H1 1487   9.503   0.070   0.972
  415WAT     H2 1488   9.452  -0.068   1.042
  416WAT      O 1489   0.485   6.235   4.868
  416WAT     H1 1490   0.565   6.294   4.878
  416WAT     H2 1491   0.504   6.165   4.799
  417WAT      O 1492   6.791   8.721   3.864
  417WAT     H1 1493   6.784   8.818   3.885
  417WAT     H2 1494   6.712   8.693   3.810
  418WAT      O 1495   5.350   1.207   5.374
  418WAT     H1 1496   5.318   1.152   5.451
  418WAT     H2 1497   5.271   1.236   5.319
  419WAT      O 1498   5.315   5.052   0.065
  419WAT     H1 1499   5.280   4.984   0.000
  419WAT     H2 1500   5.313   5.142   0.022
  420WAT      O 1501   1.737   9.825   0.723
  420WAT     H1 1502   1.797   9.765   0.670
  420WAT     H2 1503   1.650   9.779   0.740
  421WAT      O 1504   0.524   8.250   2.756
  421WAT     H1 1505   0.480   8.339   2.770
  421WAT     H2 1506   0.487   8.184   2.821
  422WAT      O 1507   4.050   3.859   9.805
  422WAT     H1 1508   3.991   3.781   9.784
  422WAT     H2 1509   3.993   3.939   9.825
  423WAT      O 1510   7.857   0.328   4.875
  423WAT     H1 1511   7.772   0.283   4.851
  423WAT     H2 1512   7.932   0.262   4.874
  424WAT      O 1513   3.835   4.144   4.842
  424WAT     H1 1514   3.829   4.096   4.755
  424WAT     H2 1515   3.861   4.080   4.914
  425WAT      O 1516   2.934   3.538   2.886
  425WAT     H1 1517   2.932   3.467   2.956
  425WAT     H2 1518   3.017   3.592   2.895
  426WAT      O 1519   0.660   8.343   8.716
  426WAT     H1 1520   0.571   8.361   8.674
  426WAT     H2 1521   0.648   8.286   8.797
  427WAT      O 1522   9.529   8.762   5.983
  427WAT     H1 1523   9.442   8.732   5.943
  427WAT     H2 1524   9.513   8.842   6.040
  428WAT      O 1525   1.165   4.720   6.676
  428WAT     H1 1526   1.173   4.714   6.577
  428WAT     H2 1527   1.076   4.759   6.700
  429WAT      O 1528   1.830   0.277   9.852
  429WAT     H1 1529   1.794   0.190   9.884
  429WAT     H2 1530   1.922   0.291   9.888
  430WAT      O 1531   2.824   3.152   9.410
  430WAT     H1 1532   2.757   3.168   9.482
  430WAT     H2 1533   2.841   3.053   9.402
  431WAT      O 1534   6.154   7.665   0.144
  431WAT     H1 1535   6.088   7.733   0.111
  431WAT     H2 1536   6.232   7.711   0.186
  432WAT      O 1537   0.571   4.840   8.673
  432WAT     H1 1538   0.583   4.757   8.619
  432WAT     H2 1539   0.660   4.868   8.711
  433WAT      O 1540   2.891   9.442   4.885
  433WAT     H1 1541   2.810   9.386   4.900
  433WAT     H2 1542   2.867   9.525   4.834
  434WAT      O 1543   7.175   9.602   9.073
  434WAT     H1 1544   7.108   9.668   9.105
  434WAT     H2 1545   7.264   9.647   9.060
  435WAT      O 1546   5.183   6.626   8.241
  435WAT     H1 1547   5.116   6.636   8.167
  435WAT     H2 1548   5.159   6.548   8.298
  436WAT      O 1549   7.442   4.302   4.767
  436WAT     H1 1550   7.432   4.211   4.727
  436WAT     H2 1551   7.353   4.348   4.769
  437WAT      O 1552   4.402   7.755   1.421
  437WAT     H1 1553   4.314   7.728   1.384
  437WAT     H2 1554   4.405   7.734   1.519
  438WAT      O 1555   8.893   1.297   3.417
  438WAT     H1 1556   8.859   1.270   3.507
  438WAT     H2 1557   8.907   1.396   3.415
  439WAT      O 1558   3.410   0.305   2.919
  439WAT     H1 1559   3.397   0.387   2.864
  439WAT     H2 1560   3.504   0.273   2.909
  440WAT      O 1561   7.708   5.980   2.784
  440WAT     H1 1562   7.720   6.042   2.862
  440WAT     H2 1563   7.661   6.028   2.710
  441WAT      O 1564   9.136   5.254   9.822
  441WAT     H1 1565   9.078   5.277   9.744
  441WAT     H2 1566   9.085   5.196   9.885
  442WAT      O 1567   4.659   9.625   8.551
  442WAT     H1 1568   4.719   9.551   8.581
  442WAT     H2 1569   4.662   9.700   8.617
  443WAT      O 1570   2.345   1.963   2.718
  443WAT     H1 1571   2.430   1.912   2.707
  443WAT     H2 1572   2.310   1.989   2.628
  444WAT      O 1573   2.502   5.093   5.635
  444WAT     H1 1574   2.511   5.030   5.713
  444WAT     H2 1575   2.570   5.070   5.566
  445WAT      O 1576   0.313   5.206   0.442
  445WAT     H1 1577   0.311   5.139   0.516
  445WAT     H2 1578   0.342   5.295   0.478
  446WAT      O 1579   9.205   5.603   7.987
  446WAT     H1 1580   9.192   5.611   7.888
  446WAT     H2 1581   9.139   5.663   8.034
  447WAT      O 1582   2.327   7.256   5.491
  447WAT     H1 1583   2.241   7.271   5.441
  447WAT     H2 1584   2.350   7.338   5.542
  448WAT      O 1585   0.062   1.780   2.397
  448WAT     H1 1586   0.055   1.721   2.477
  448WAT     H2 1587   0.006   1.862   2.411
  449WAT      O 1588   0.570   6.169   6.901
  449WAT     H1 1589   0.516   6.217   6.970
  449WAT     H2 1590   0.641   6.115   6.947
  450WAT      O 1591   9.398   7.053   0.319
  450WAT     H1 1592   9.461   7.090   0.251
  450WAT     H2 1593   9.390   6.954   0.305
  451WAT      O 1594   9.161   7.440   8.402
  451WAT     H1 1595   9.076   7.445   8.351
  451WAT     H2 1596   9.154   7.368   8.472
  452WAT      O 1597   6.133   1.544   2.430
  452WAT     H1 1598   6.226   1.535   2.467
  452WAT     H2 1599   6.069   1.496   2.489
  453WAT      O 1600   6.557   7.421   7.355
  453WAT     H1 1601   6.555   7.521   7.356
  453WAT     H2 1602   6.481   7.386   7.410
  454WAT      O 1603   4.379   7.245   9.481
  454WAT     H1 1604   4.291   7.279   9.515
  454WAT     H2 1605   4.379   7.145   9.481
  455WAT      O 1606   6.544   1.091   6.864
  455WAT     H1 1607   6.638   1.124   6.872
  455WAT     H2 1608   6.531   1.048   6.774
  456WAT      O 1609   9.315   3.670   0.778
  456WAT     H1 1610   9.277   3.717   0.858
  456WAT     H2 1611   9.412   3.652   0.793
  457WAT      O 1612   5.379   9.324   5.927
  457WAT     H1 1613   5.401   9.235   5.966
  457WAT     H2 1614   5.462   9.365   5.889
  458WAT      O 1615   9.754   7.230   0.231
  458WAT     H1 1616   9.691   7.304   0.255
  458WAT     H2 1617   9.824   7.266   0.169
  459WAT      O 1618   0.167   2.205   0.536
  459WAT     H1 1619   0.136   2.123   0.486
  459WAT     H2 1620   0.242   2.248   0.485
  460WAT      O 1621   6.755   0.562   1.950
  460WAT     H1 1622   6.681   0.586   2.013
  460WAT     H2 1623   6.835   0.532   2.002
  461WAT      O 1624   5.244   6.613   7.054
  461WAT     H1 1625   5.331   6.593   7.100
  461WAT     H2 1626   5.258   6.612   6.955
  462WAT      O 1627   0.470   2.049   2.054
  462WAT     H1 1628   0.543   2.078   2.115
  462WAT     H2 1629   0.385   2.040   2.106
  463WAT      O 1630   6.116   3.635   6.300
  463WAT     H1 1631   6.113   3.583   6.386
  463WAT     H2 1632   6.189   3.702   6.305
  464WAT      O 1633   1.068   7.641   8.117
  464WAT     H1 1634   1.132   7.614   8.045
  464WAT     H2 1635   1.073   7.740   8.130
  465WAT      O 1636   2.944   5.769   7.711
  465WAT     H1 1637   3.002   5.761   7.631
  465WAT     H2 1638   2.969   5.699   7.778
  466WAT      O 1639   7.683   1.647   7.749
  466WAT     H1 1640   7.697   1.735   7.702
  466WAT     H2 1641   7.585   1.630   7.760
  467WAT      O 1642   0.038   3.628   8.061
  467WAT     H1 1643  -0.044   3.653   8.113
  467WAT     H2 1644   0.051   3.693   7.987
  468WAT      O 1645   2.231   0.860   2.161
  468WAT     H1 1646   2.152   0.820   2.208
  468WAT     H2 1647   2.204   0.886   2.069
  469WAT      O 1648   7.322   3.486   1.111
  469WAT     H1 1649   7.265   3.439   1.178
  469WAT     H2 1650   7.289   3.465   1.019
  470WAT      O 1651   9.481   6.389   2.516
  470WAT     H1 1652   9.394   6.409   2.470
  470WAT     H2 1653   9.547   6.461   2.494
  471WAT      O 1654   6.818   9.111   0.186
  471WAT     H1 1655   6.793   9.137   0.280
  471WAT     H2 1656   6.859   9.189   0.140
  472WAT      O 1657   3.165   9.798   8.828
  472WAT     H1 1658   3.215   9.880   8.852
  472WAT     H2 1659   3.067   9.812   8.845
  473WAT      O 1660   9.752   9.479   8.896
  473WAT     H1 1661   9.789   9.546   8.959
  473WAT     H2 1662   9.698   9.526   8.825
  474WAT      O 1663   3.899   1.648   1.395
  474WAT     H1 1664   3.945   1.702   1.466
  474WAT     H2 1665   3.953   1.565   1.377
  475WAT      O 1666   0.044   5.559   8.835
  475WAT     H1 1667   0.012   5.568   8.930
  475WAT     H2 1668   0.006   5.634   8.780
  476WAT      O 1669   2.287   9.424   0.842
  476WAT     H1 1670   2.327   9.441   0.752
  476WAT     H2 1671   2.287   9.508   0.896
  477WAT      O 1672   1.590   9.504   6.160
  477WAT     H1 1673   1.574   9.410   6.128
  477WAT     H2 1674   1.670   9.506   6.220
  478WAT      O 1675   2.807   3.237   4.387
  478WAT     H1 1676   2.723   3.291   4.393
  478WAT     H2 1677   2.876   3.288   4.336
  479WAT      O 1678   6.177   8.927   4.235
  479WAT     H1 1679   6.276   8.934   4.233
  479WAT     H2 1680   6.143   8.896   4.146
  480WAT      O 1681   0.500   0.349   8.706
  480WAT     H1 1682   0.484   0.359   8.608
  480WAT     H2 1683   0.415   0.366   8.756
  481WAT      O 1684   7.257   7.596   9.177
  481WAT     H1 1685   7.228   7.692   9.170
  481WAT     H2 1686   7.305   7.569   9.094
  482WAT      O 1687   4.256   6.429   2.395
  482WAT     H1 1688   4.164   6.466   2.381
  482WAT     H2 1689   4.319   6.504   2.417
  483WAT      O 1690   4.204   3.632   8.354
  483WAT     H1 1691   4.152   3.713   8.380
  483WAT     H2 1692   4.277   3.616   8.420
  484WAT      O 1693   1.667   7.544   6.645
  484WAT     H1 1694   1.584   7.588   6.610
  484WAT     H2 1695   1.747   7.586   6.602
  485WAT      O 1696   2.271   8.473   7.552
  485WAT     H1 1697   2.269   8.417   7.635
  485WAT     H2 1698   2.193   8.450   7.494
  486WAT      O 1699   8.118   4.890   9.408
  486WAT     H1 1700   8.029   4.936   9.407
  486WAT     H2 1701   8.108   4.796   9.377
  487WAT      O 1702   7.892   3.939   4.386
  487WAT     H1 1703   7.965   3.958   4.320
  487WAT     H2 1704   7.845   3.855   4.359
  488WAT      O 1705   4.036   2.534   0.893
  488WAT     H1 1706   4.128   2.570   0.904
  488WAT     H2 1707   3.992   2.577   0.814
  489WAT      O 1708   3.571   3.383   2.419
  489WAT     H1 1709   3.544   3.465   2.469
  489WAT     H2 1710   3.615   3.409   2.333
  490WAT      O 1711   6.990   7.402   4.317
  490WAT     H1 1712   6.901   7.447   4.329
  490WAT     H2 1713   6.994   7.360   4.226
  491WAT      O 1714   0.539   1.090   3.754
  491WAT     H1 1715   0.509   1.087   3.659
  491WAT     H2 1716   0.493   1.165   3.801
  492WAT      O 1717   2.039   0.053   0.124
  492WAT     H1 1718   2.115   0.036   0.188
  492WAT     H2 1719   1.964  -0.010   0.145
  493WAT      O 1720   6.041   7.695   3.905
  493WAT     H1 1721   6.041   7.654   3.997
  493WAT     H2 1722   6.135   7.697   3.870
  494WAT      O 1723   2.832   1.408   3.185
  494WAT     H1 1724   2.891   1.477   3.143
  494WAT     H2 1725   2.872   1.318   3.173
  495WAT      O 1726   0.800   8.943   0.143
  495WAT     H1 1727   0.847   8.958   0.056
  495WAT     H2 1728   0.842   8.999   0.214
  496WAT      O 1729   1.209   8.827   2.095
  496WAT     H1 1730   1.170   8.785   2.013
  496WAT     H2 1731   1.158   8.797   2.176
  497WAT      O 1732   7.130   9.309   9.330
  497WAT     H1 1733   7.037   9.271   9.330
  497WAT     H2 1734   7.141   9.368   9.410
  498WAT      O 1735   6.963   6.951   8.852
  498WAT     H1 1736   6.874   6.973   8.892
  498WAT     H2 1737   7.004   6.874   8.900
  499WAT      O 1738   9.444   8.370   0.245
  499WAT     H1 1739   9.471   8.274   0.235
  499WAT     H2 1740   9.494   8.411   0.321
  500WAT      O 1741   5.556   1.457   5.129
  500WAT     H1 1742   5.584   1.444   5.034
  500WAT     H2 1743   5.472   1.511   5.133
  501WAT      O 1744   8.437   7.207   7.774
  501WAT     H1 1745   8.466   7.287   7.825
  501WAT     H2 1746   8.436   7.228   7.676
  502WAT      O 1747   4.422   0.136   9.514
  502WAT     H1 1748   4.515   0.121   9.481
  502WAT     H2 1749   4.388   0.054   9.560
  503WAT      O 1750   0.393   9.000   5.038
  503WAT     H1 1751   0.344   9.041   5.115
  503WAT     H2 1752   0.479   9.049   5.023
  504WAT      O 1753   5.590   5.153   4.072
  504WAT     H1 1754   5.631   5.225   4.128
  504WAT     H2 1755   5.580   5.185   3.978
  505WAT      O 1756   8.350   1.237   6.100
  505WAT     H1 1757   8.311   1.200   6.016
  505WAT     H2 1758   8.280   1.238   6.171
  506WAT      O 1759   2.243   0.818   8.016
  506WAT     H1 1760   2.189   0.896   7.983
  506WAT     H2 1761   2.329   0.852   8.055
  507WAT      O 1762   0.636   5.623   9.037
  507WAT     H1 1763   0.615   5.547   8.976
  507WAT     H2 1764   0.727   5.659   9.016
  508WAT      O 1765   9.215   0.348   2.224
  508WAT     H1 1766   9.236   0.433   2.272
  508WAT     H2 1767   9.269   0.274   2.264
  509WAT      O 1768   3.005   3.732   3.113
  509WAT     H1 1769   3.000   3.798   3.038
  509WAT     H2 1770   3.100   3.713   3.136
  510WAT      O 1771   1.486   5.075   8.033
  510WAT     H1 1772   1.535   5.091   8.118
  510WAT     H2 1773   1.436   4.989   8.039
  511WAT      O 1774   3.102   4.514   1.249
  511WAT     H1 1775   3.005   4.540   1.248
  511WAT     H2 1776   3.110   4.415   1.262
  512WAT      O 1777   1.476   6.214   2.284
  512WAT     H1 1778   1.517   6.138   2.335
  512WAT     H2 1779   1.400   6.253   2.335
  513WAT      O 1780   2.745   4.876   6.953
  513WAT     H1 1781   2.695   4.792   6.974
  513WAT     H2 1782   2.681   4.952   6.944
  514WAT      O 1783   4.505   7.350   8.934
  514WAT     H1 1784   4.532   7.274   8.992
  514WAT     H2 1785   4.498   7.433   8.989
  515WAT      O 1786   1.353   4.301   2.432
  515WAT     H1 1787   1.296   4.275   2.510
  515WAT     H2 1788   1.435   4.347   2.464
  516WAT      O 1789   0.463   3.103   2.535
  516WAT     H1 1790   0.481   3.129   2.440
  516WAT     H2 1791   0.364   3.097   2.549
  517WAT      O 1792   7.129   5.678   3.400
  517WAT     H1 1793   7.055   5.628   3.444
  517WAT     H2 1794   7.210   5.619   3.394
  518WAT      O 1795   4.192   5.110   8.868
  518WAT     H1 1796   4.292   5.114   8.863
  518WAT     H2 1797   4.158   5.194   8.910
  519WAT      O 1798   2.753   1.868   3.349
  519WAT     H1 1799   2.843   1.881   3.391
  519WAT     H2 1800   2.730   1.949   3.295
  520WAT      O 1801   8.687   6.939   5.941
  520WAT     H1 1802   8.738   6.853   5.931
  520WAT     H2 1803   8.635   6.957   5.857
  521WAT      O 1804   5.946   6.467   7.145
  521WAT     H1 1805   5.911   6.399   7.210
  521WAT     H2 1806   5.929   6.559   7.180
  522WAT      O 1807   9.223   2.525   1.778
  522WAT     H1 1808   9.253   2.429   1.778
  522WAT     H2 1809   9.178   2.545   1.865
  523WAT      O 1810   3.823   4.975   6.054
  523WAT     H1 1811   3.890   5.021   6.112
  523WAT     H2 1812   3.818   4.878   6.080
  524WAT      O 1813   2.833   8.868   5.839
  524WAT     H1 1814   2.750   8.814   5.852
  524WAT     H2 1815   2.809   8.963   5.818
  525WAT      O 1816   8.311   7.736   4.022
  525WAT     H1 1817   8.279   7.799   3.951
  525WAT     H2 1818   8.382   7.780   4.076
  526WAT      O 1819   2.231   5.081   5.571
  526WAT     H1 1820   2.189   5.172   5.569
  526WAT     H2 1821   2.328   5.089   5.593
  527WAT      O 1822   1.976   3.540   7.711
  527WAT     H1 1823   2.041   3.601   7.758
  527WAT     H2 1824   1.917   3.497   7.778
  528WAT      O 1825   7.954   4.401   7.067
  528WAT     H1 1826   7.977   4.311   7.031
  528WAT     H2 1827   7.861   4.398   7.104
  529WAT      O 1828   7.494   5.510   0.130
  529WAT     H1 1829   7.505   5.592   0.185
  529WAT     H2 1830   7.530   5.431   0.180
  530WAT      O 1831   5.132   5.658   0.681
  530WAT     H1 1832   5.194   5.681   0.757
  530WAT     H2 1833   5.135   5.732   0.613
  531WAT      O 1834   3.864   2.048   3.307
  531WAT     H1 1835   3.777   2.081   3.342
  531WAT     H2 1836   3.908   1.990   3.376
  532WAT      O 1837   9.336   4.384   8.523
  532WAT     H1 1838   9.338   4.382   8.423
  532WAT     H2 1839   9.250   4.344   8.555
  533WAT      O 1840   8.957   2.773   7.038
  533WAT     H1 1841   8.901   2.726   7.106
  533WAT     H2 1842   8.997   2.707   6.975
  534WAT      O 1843   8.015   1.015   7.313
  534WAT     H1 1844   7.922   1.052   7.315
  534WAT     H2 1845   8.070   1.060   7.384
  535WAT      O 1846   0.519   6.226   2.820
  535WAT     H1 1847   0.587   6.243   2.749
  535WAT     H2 1848   0.530   6.294   2.893
  536WAT      O 1849   6.641   2.987   9.215
  536WAT     H1 1850   6.659   2.906   9.158
  536WAT     H2 1851   6.547   3.018   9.201
  537WAT      O 1852   4.075   5.312   8.065
  537WAT     H1 1853   4.071   5.370   7.984
  537WAT     H2 1854   3.993   5.325   8.120
  538WAT      O 1855   8.011   7.960   3.138
  538WAT     H1 1856   7.999   7.864   3.112
  538WAT     H2 1857   7.994   8.018   3.059
  539WAT      O 1858   1.413   1.631   1.879
  539WAT     H1 1859   1.315   1.641   1.894
  539WAT     H2 1860   1.429   1.596   1.786
  540WAT      O 1861   3.815   5.641   0.722
  540WAT     H1 1862   3.851   5.714   0.664
  540WAT     H2 1863   3.739   5.677   0.777
  541WAT      O 1864   1.906   6.398   8.541
  541WAT     H1 1865   1.975   6.449   8.491
  541WAT     H2 1866   1.822   6.390   8.486
  542WAT      O 1867   9.483   6.615   1.095
  542WAT     H1 1868   9.411   6.635   1.028
  542WAT     H2 1869   9.483   6.686   1.165
  543WAT      O 1870   3.490   0.945   4.941
  543WAT     H1 1871   3.488   0.864   4.999
  543WAT     H2 1872   3.396   0.979   4.930
  544WAT      O 1873   5.534   5.606   2.809
  544WAT     H1 1874   5.574   5.572   2.894
  544WAT     H2 1875   5.510   5.530   2.750
  545WAT      O 1876   0.935   9.820   6.781
  545WAT     H1 1877   0.965   9.724   6.782
  545WAT     H2 1878   0.876   9.835   6.702
  546WAT      O 1879   0.977   2.698   7.903
  546WAT     H1 1880   1.006   2.792   7.888
  546WAT     H2 1881   1.047   2.650   7.956
  547WAT      O 1882   6.698   5.658   1.238
  547WAT     H1 1883   6.722   5.663   1.141
  547WAT     H2 1884   6.744   5.732   1.287
  548WAT      O 1885   2.030   0.628   2.602
  548WAT     H1 1886   1.991   0.683   2.675
  548WAT     H2 1887   1.968   0.553   2.579
  549WAT      O 1888   2.317   4.989   6.653
  549WAT     H1 1889   2.347   4.941   6.570
  549WAT     H2 1890   2.367   4.952   6.731
  550WAT      O 1891   9.817   2.492   5.710
  550WAT     H1 1892   9.740   2.464   5.654
  550WAT     H2 1893   9.893   2.520   5.651
  551WAT      O 1894   7.871   7.187   9.222
  551WAT     H1 1895   7.814   7.194   9.141
  551WAT     H2 1896   7.944   7.256   9.217
  552WAT      O 1897   0.902   4.523   5.280
  552WAT     H1 1898   0.825   4.459   5.270
  552WAT     H2 1899   0.952   4.502   5.364
  553WAT      O 1900   4.161   7.803   9.711
  553WAT     H1 1901   4.172   7.902   9.721
  553WAT     H2 1902   4.114   7.783   9.625
  554WAT      O 1903   4.678   3.620   9.789
  554WAT     H1 1904   4.768   3.579   9.777
  554WAT     H2 1905   4.681   3.685   9.865
  555WAT      O 1906   1.283   4.834   4.509
  555WAT     H1 1907   1.367   4.856   4.560
  555WAT     H2 1908   1.303   4.766   4.439
  556WAT      O 1909   4.300   7.680   0.162
  556WAT     H1 1910   4.312   7.648   0.068
  556WAT     H2 1911   4.288   7.602   0.223
  557WAT      O 1912   6.720   5.574   8.700
  557WAT     H1 1913   6.771   5.490   8.680
  557WAT     H2 1914   6.784   5.648   8.719
  558WAT      O 1915   0.700   7.510   2.112
  558WAT     H1 1916   0.646   7.431   2.083
  558WAT     H2 1917   0.639   7.577   2.155
  559WAT      O 1918   6.521   0.694   2.507
  559WAT     H1 1919   6.484   0.601   2.519
  559WAT     H2 1920   6.497   0.749   2.587
  560WAT      O 1921   8.541   7.293   8.363
  560WAT     H1 1922   8.546   7.271   8.460
  560WAT     H2 1923   8.630   7.328   8.333
  561WAT      O 1924   6.003   2.950   0.676
  561WAT     H1 1925   6.087   2.926   0.626
  561WAT     H2 1926   5.985   3.048   0.667
  562WAT      O 1927   2.723   7.461   0.342
  562WAT     H1 1928   2.697   7.406   0.421
  562WAT     H2 1929   2.655   7.450   0.270
  563WAT      O 1930   1.058   7.974   2.420
  563WAT     H1 1931   1.054   7.988   2.321
  563WAT     H2 1932   0.974   7.930   2.451
  564WAT      O 1933   9.579   3.453   6.640
  564WAT     H1 1934   9.519   3.422   6.713
  564WAT     H2 1935   9.647   3.383   6.620
  565WAT      O 1936   1.632   1.144   9.244
  565WAT     H1 1937   1.664   1.085   9.170
  565WAT     H2 1938   1.536   1.123   9.264
  566WAT      O 1939   4.236   0.407   7.259
  566WAT     H1 1940   4.277   0.358   7.337
  566WAT     H2 1941   4.178   0.480   7.294
  567WAT      O 1942   6.355   4.001   8.906
  567WAT     H1 1943   6.292   4.047   8.843
  567WAT     H2 1944   6.328   4.020   9.000
  568WAT      O 1945   9.107   6.576   8.322
  568WAT     H1 1946   9.038   6.519   8.366
  568WAT     H2 1947   9.063   6.640   8.260
  569WAT      O 1948   7.434   8.912   1.270
  569WAT     H1 1949   7.411   8.914   1.173
  569WAT     H2 1950   7.523   8.955   1.285
  570WAT      O 1951   2.725   5.690   4.643
  570WAT     H1 1952   2.671   5.721   4.721
  570WAT     H2 1953   2.755   5.596   4.659
  571WAT      O 1954   8.405   0.912   6.595
  571WAT     H1 1955   8.331   0.865   6.642
  571WAT     H2 1956   8.427   0.997   6.644
  572WAT      O 1957   1.113   0.323   3.934
  572WAT     H1 1958   1.151   0.299   3.845
  572WAT     H2 1959   1.014   0.307   3.934
  573WAT      O 1960   1.876   8.771   9.590
  573WAT     H1 1961   1.900   8.703   9.659
  573WAT     H2 1962   1.889   8.732   9.499
  574WAT      O 1963   9.743   5.626   1.347
  574WAT     H1 1964   9.702   5.572   1.273
  574WAT     H2 1965   9.674   5.643   1.418
  575WAT      O 1966   8.232   4.567   7.437
  575WAT     H1 1967   8.274   4.648   7.477
  575WAT     H2 1968   8.279   4.485   7.469
  576WAT      O 1969   3.364   8.140   7.361
  576WAT     H1 1970   3.463   8.152   7.371
  576WAT     H2 1971   3.345   8.072   7.291
  577WAT      O 1972   1.656   8.658   3.202
  577WAT     H1 1973   1.613   8.568   3.212
  577WAT     H2 1974   1.696   8.667   3.111
  578WAT      O 1975   0.700   6.778   5.064
  578WAT     H1 1976   0.743   6.697   5.103
  578WAT     H2 1977   0.620   6.802   5.119
  579WAT      O 1978   3.678   1.981   9.429
  579WAT     H1 1979   3.597   1.956   9.376
  579WAT     H2 1980   3.681   1.928   9.513
  580WAT      O 1981   2.079   1.354   2.855
  580WAT     H1 1982   2.171   1.382   2.883
  580WAT     H2 1983   2.016   1.431   2.862
  581WAT      O 1984   5.343   4.818   1.911
  581WAT     H1 1985   5.380   4.732   1.948
  581WAT     H2 1986   5.247   4.827   1.938
  582WAT      O 1987   1.966   9.721   8.060
  582WAT     H1 1988   1.928   9.631   8.037
  582WAT     H2 1989   2.031   9.748   7.990
  583WAT      O 1990   2.651   6.382   3.620
  583WAT     H1 1991   2.589   6.311   3.654
  583WAT     H2 1992   2.672   6.365   3.524
  584WAT      O 1993   6.945   4.819   4.516
  584WAT     H1 1994   7.030   4.869   4.534
  584WAT     H2 1995   6.874   4.884   4.489
  585WAT      O 1996   2.448   8.891   8.428
  585WAT     H1 1997   2.503   8.808   8.429
  585WAT     H2 1998   2.355   8.870   8.457
  586WAT      O 1999   4.490   4.778   6.381
  586WAT     H1 2000   4.466   4.820   6.293
  586WAT     H2 2001   4.415   4.792   6.446
  587WAT      O 2002   9.260   9.145   6.706
  587WAT     H1 2003   9.241   9.083   6.782
  587WAT     H2 2004   9.185   9.141   6.640
  588WAT      O 2005   0.263   1.627   6.472
  588WAT     H1 2006   0.216   1.563   6.532
  588WAT     H2 2007   0.215   1.715   6.472
  589WAT      O 2008   5.858   9.826   5.077
  589WAT     H1 2009   5.885   9.907   5.024
  589WAT     H2 2010   5.773   9.845   5.126
  590WAT      O 2011   1.644   3.864   6.775
  590WAT     H1 2012   1.587   3.902   6.702
  590WAT     H2 2013   1.610   3.895   6.864
  591WAT      O 2014   3.795   0.112   5.472
  591WAT     H1 2015   3.708   0.160   5.479
  591WAT     H2 2016   3.827   0.115   5.377
  592WAT      O 2017   9.072   3.772   5.028
  592WAT     H1 2018   9.016   3.773   5.111
  592WAT     H2 2019   9.128   3.855   5.023
  593WAT      O 2020   6.881   2.903   1.213
  593WAT     H1 2021   6.899   2.814   1.171
  593WAT     H2 2022   6.803   2.896   1.274
  594WAT      O 2023   1.389   9.577   7.662
  594WAT     H1 2024   1.445   9.495   7.652
  594WAT     H2 2025   1.441   9.657   7.631
  595WAT      O 2026   1.990   0.195   5.299
  595WAT     H1 2027   2.001   0.126   5.371
  595WAT     H2 2028   1.910   0.172   5.243
  596WAT      O 2029   5.282   8.765   0.118
  596WAT     H1 2030   5.202   8.777   0.059
  596WAT     H2 2031   5.285   8.671   0.152
  597WAT      O 2032   0.426   1.668   2.579
  597WAT     H1 2033   0.378   1.666   2.491
  597WAT     H2 2034   0.398   1.588   2.633
  598WAT      O 2035   3.744   5.044   0.843
  598WAT     H1 2036   3.700   4.961   0.878
  598WAT     H2 2037   3.691   5.124   0.872
  599WAT      O 2038   4.060   9.799   2.372
  599WAT     H1 2039   4.046   9.760   2.463
  599WAT     H2 2040   4.072   9.898   2.380
  600WAT      O 2041   4.167   7.250   1.800
  600WAT     H1 2042   4.251   7.199   1.781
  600WAT     H2 2043   4.182   7.347   1.783
  601WAT      O 2044   0.966   2.549   0.300
  601WAT     H1 2045   0.866   2.549   0.296
  601WAT     H2 2046   0.997   2.606   0.377
  602WAT      O 2047   6.246   2.142   9.595
  602WAT     H1 2048   6.241   2.069   9.526
  602WAT     H2 2049   6.224   2.104   9.685
  603WAT      O 2050   2.984   4.019   7.972
  603WAT     H1 2051   2.897   4.057   7.939
  603WAT     H2 2052   2.979   4.003   8.070
  604WAT      O 2053   4.068   6.331   4.677
  604WAT     H1 2054   4.002   6.403   4.699
  604WAT     H2 2055   4.126   6.361   4.601
  605WAT      O 2056   5.313   1.544   6.153
  605WAT     H1 2057   5.286   1.604   6.228
  605WAT     H2 2058   5.275   1.579   6.067
  606WAT      O 2059   1.671   0.397   8.542
  606WAT     H1 2060   1.675   0.424   8.446
  606WAT     H2 2061   1.577   0.402   8.575
  607WAT      O 2062   2.397   5.628   0.859
  607WAT     H1 2063   2.326   5.615   0.929
  607WAT     H2 2064   2.416   5.540   0.814
  608WAT      O 2065   1.034   5.781   0.452
  608WAT     H1 2066   1.000   5.750   0.363
  608WAT     H2 2067   1.085   5.866   0.440
  609WAT      O 2068   4.610   9.437   3.821
  609WAT     H1 2069   4.610   9.414   3.724
  609WAT     H2 2070   4.571   9.361   3.873
  610WAT      O 2071   6.071   9.789   7.249
  610WAT     H1 2072   6.084   9.888   7.253
  610WAT     H2 2073   6.030   9.757   7.334
  611WAT      O 2074   0.997   8.347   7.088
  611WAT     H1 2075   0.973   8.370   7.182
  611WAT     H2 2076   1.087   8.384   7.066
  612WAT      O 2077   3.568   8.765   9.468
  612WAT     H1 2078   3.516   8.773   9.383
  612WAT     H2 2079   3.610   8.854   9.490
  613WAT      O 2080   9.778   1.453   8.417
  613WAT     H1 2081   9.850   1.384   8.422
  613WAT     H2 2082   9.698   1.422   8.469
  614WAT      O 2083   8.429   4.513   1.859
  614WAT     H1 2084   8.353   4.457   1.826
  614WAT     H2 2085   8.394   4.595   1.905
  615WAT      O 2086   3.968   7.790   8.431
  615WAT     H1 2087   3.943   7.700   8.470
  615WAT     H2 2088   3.918   7.861   8.480
  616WAT      O 2089   1.747   4.127   4.962
  616WAT     H1 2090   1.723   4.030   4.963
  616WAT     H2 2091   1.672   4.180   5.000
  617WAT      O 2092   9.272   5.244   2.663
  617WAT     H1 2093   9.196   5.192   2.623
  617WAT     H2 2094   9.357   5.217   2.619
  618WAT      O 2095   5.892   4.151   3.521
  618WAT     H1 2096   5.973   4.205   3.499
  618WAT     H2 2097   5.849   4.186   3.604
  619WAT      O 2098   2.066   7.042   9.143
  619WAT     H1 2099   2.013   7.063   9.226
  619WAT     H2 2100   2.136   6.975   9.166
  620WAT      O 2101   9.596   8.933   0.319
  620WAT     H1 2102   9.497   8.941   0.305
  620WAT     H2 2103   9.643   8.944   0.232
  621WAT      O 2104   3.620   3.573   3.716
  621WAT     H1 2105   3.639   3.516   3.636
  621WAT     H2 2106   3.540   3.538   3.764
  622WAT      O 2107   5.871   5.521   2.873
  622WAT     H1 2108   5.894   5.612   2.840
  622WAT     H2 2109   5.939   5.492   2.941
  623WAT      O 2110   0.215   1.798   1.938
  623WAT     H1 2111   0.205   1.719   1.999
  623WAT     H2 2112   0.128   1.814   1.891
  624WAT      O 2113   3.220   5.447   5.242
  624WAT     H1 2114   3.285   5.462   5.316
  624WAT     H2 2115   3.134   5.412   5.279
  625WAT      O 2116   9.401   4.391   7.914
  625WAT     H1 2117   9.307   4.417   7.932
  625WAT     H2 2118   9.420   4.400   7.816
  626WAT      O 2119   0.029   2.981   4.648
  626WAT     H1 2120   0.011   3.010   4.554
  626WAT     H2 2121  -0.047   3.010   4.707
  627WAT      O 2122   1.112   0.461   7.153
  627WAT     H1 2123   1.070   0.500   7.071
  627WAT     H2 2124   1.051   0.474   7.231
  628WAT      O 2125   8.421   7.299   7.527
  628WAT     H1 2126   8.330   7.283   7.490
  628WAT     H2 2127   8.452   7.390   7.499
  629WAT      O 2128   0.729   6.666   3.827
  629WAT     H1 2129   0.799   6.736   3.817
  629WAT     H2 2130   0.712   6.623   3.739
  630WAT      O 2131   8.157   7.279   7.798
  630WAT     H1 2132   8.255   7.272   7.779
  630WAT     H2 2133   8.130   7.375   7.798
  631WAT      O 2134   5.644   1.848   6.346
  631WAT     H1 2135   5.676   1.754   6.333
  631WAT     H2 2136   5.701   1.893   6.415
  632WAT      O 2137   6.975   0.952   7.004
  632WAT     H1 2138   6.918   0.954   7.086
  632WAT     H2 2139   7.068   0.923   7.028
  633WAT      O 2140   1.437   9.455   1.279
  633WAT     H1 2141   1.423   9.378   1.216
  633WAT     H2 2142   1.353   9.471   1.331
  634WAT      O 2143   6.003   1.946   7.863
  634WAT     H1 2144   5.934   1.924   7.932
  634WAT     H2 2145   6.070   2.009   7.902
  635WAT      O 2146   1.378   9.015   6.456
  635WAT     H1 2147   1.377   8.928   6.406
  635WAT     H2 2148   1.285   9.039   6.484
  636WAT      O 2149   3.063   5.161   0.977
  636WAT     H1 2150   3.054   5.075   1.026
  636WAT     H2 2151   3.011   5.232   1.026
  637WAT      O 2152   0.306   6.648   2.676
  637WAT     H1 2153   0.387   6.601   2.641
  637WAT     H2 2154   0.327   6.745   2.688
  638WAT      O 2155   8.415   2.223   6.613
  638WAT     H1 2156   8.475   2.299   6.586
  638WAT     H2 2157   8.450   2.138   6.574
  639WAT      O 2158   7.957   8.271   6.541
  639WAT     H1 2159   7.926   8.357   6.582
  639WAT     H2 2160   7.879   8.209   6.531
  640WAT      O 2161   5.135   1.521   2.557
  640WAT     H1 2162   5.081   1.572   2.624
  640WAT     H2 2163   5.136   1.424   2.581
  641WAT      O 2164   2.975   2.781   6.053
  641WAT     H1 2165   2.902   2.850   6.049
  641WAT     H2 2166   2.997   2.762   6.149
  642WAT      O 2167   1.901   7.282   7.789
  642WAT     H1 2168   1.940   7.233   7.710
  642WAT     H2 2169   1.974   7.304   7.854
  643WAT      O 2170   8.870   6.161   2.521
  643WAT     H1 2171   8.847   6.205   2.608
  643WAT     H2 2172   8.846   6.223   2.446
  644WAT      O 2173   0.702   1.855   6.418
  644WAT     H1 2174   0.627   1.842   6.483
  644WAT     H2 2175   0.695   1.947   6.378
  645WAT      O 2176   8.512   4.445   2.138
  645WAT     H1 2177   8.473   4.515   2.198
  645WAT     H2 2178   8.459   4.442   2.053
  646WAT      O 2179   6.793   0.849   6.814
  646WAT     H1 2180   6.818   0.881   6.723
  646WAT     H2 2181   6.848   0.897   6.882
  647WAT      O 2182   4.449   2.529   6.215
  647WAT     H1 2183   4.476   2.605   6.156
  647WAT     H2 2184   4.350   2.527   6.224
  648WAT      O 2185   8.374   0.290   4.114
  648WAT     H1 2186   8.408   0.369   4.166
  648WAT     H2 2187   8.277   0.275   4.135
  649WAT      O 2188   3.912   2.019   1.408
  649WAT     H1 2189   3.858   2.080   1.465
  649WAT     H2 2190   3.959   1.952   1.466
  650WAT      O 2191   3.682   9.432   8.558
  650WAT     H1 2192   3.640   9.451   8.469
  650WAT     H2 2193   3.645   9.495   8.626
  651WAT      O 2194   7.258   3.382   6.338
  651WAT     H1 2195   7.230   3.418   6.427
  651WAT     H2 2196   7.329   3.440   6.299
  652WAT      O 2197   4.872   8.928   9.183
  652WAT     H1 2198   4.792   8.926   9.242
  652WAT     H2 2199   4.936   8.997   9.216
  653WAT      O 2200   2.095   5.514   0.697
  653WAT     H1 2201   2.023   5.580   0.676
  653WAT     H2 2202   2.107   5.452   0.619
  654WAT      O 2203   1.686   1.226   3.122
  654WAT     H1 2204   1.692   1.326   3.126
  654WAT     H2 2205   1.701   1.189   3.214
  655WAT      O 2206   3.442   3.638   2.851
  655WAT     H1 2207   3.400   3.550   2.871
  655WAT     H2 2208   3.370   3.708   2.843
  656WAT      O 2209   5.549   8.379   2.366
  656WAT     H1 2210   5.609   8.376   2.447
  656WAT     H2 2211   5.582   8.450   2.304
  657WAT      O 2212   4.269   8.716   1.895
  657WAT     H1 2213   4.241   8.655   1.969
  657WAT     H2 2214   4.257   8.669   1.807
  658WAT      O 2215   0.566   3.324   2.785
  658WAT     H1 2216   0.471   3.324   2.818
  658WAT     H2 2217   0.584   3.239   2.736
  659WAT      O 2218   8.724   0.336   6.313
  659WAT     H1 2219   8.693   0.290   6.229
  659WAT     H2 2220   8.718   0.435   6.300
  660WAT      O 2221   0.567   3.754   3.775
  660WAT     H1 2222   0.501   3.805   3.829
  660WAT     H2 2223   0.546   3.657   3.779
  661WAT      O 2224   4.446   8.034   5.504
  661WAT     H1 2225   4.522   8.008   5.563
  661WAT     H2 2226   4.385   8.097   5.553
  662WAT      O 2227   7.339   2.892   5.649
  662WAT     H1 2228   7.367   2.806   5.691
  662WAT     H2 2229   7.268   2.874   5.581
  663WAT      O 2230   5.779   4.618   4.049
  663WAT     H1 2231   5.737   4.685   3.988
  663WAT     H2 2232   5.713   4.590   4.119
  664WAT      O 2233   0.728   4.265   5.584
  664WAT     H1 2234   0.724   4.251   5.683
  664WAT     H2 2235   0.765   4.183   5.540
  665WAT      O 2236   1.625   8.186   2.549
  665WAT     H1 2237   1.527   8.169   2.559
  665WAT     H2 2238   1.650   8.270   2.598
  666WAT      O 2239   8.217   2.262   6.056
  666WAT     H1 2240   8.156   2.312   6.117
  666WAT     H2 2241   8.312   2.282   6.080
  667WAT      O 2242   8.112   6.741   0.441
  667WAT     H1 2243   8.061   6.768   0.522
  667WAT     H2 2244   8.207   6.769   0.450
  668WAT      O 2245   0.508   6.393   5.294
  668WAT     H1 2246   0.426   6.373   5.240
  668WAT     H2 2247   0.541   6.309   5.337
  669WAT      O 2248   5.169   1.009   5.048
  669WAT     H1 2249   5.139   1.091   5.096
  669WAT     H2 2250   5.183   1.030   4.951
  670WAT      O 2251   7.103   9.105   7.202
  670WAT     H1 2252   7.013   9.084   7.240
  670WAT     H2 2253   7.152   9.166   7.264
  671WAT      O 2254   2.789   6.913   8.615
  671WAT     H1 2255   2.843   6.982   8.664
  671WAT     H2 2256   2.848   6.836   8.591
  672WAT      O 2257   6.558   0.216   0.429
  672WAT     H1 2258   6.480   0.160   0.400
  672WAT     H2 2259   6.560   0.220   0.529
  673WAT      O 2260   8.060   5.163   2.085
  673WAT     H1 2261   8.059   5.256   2.122
  673WAT     H2 2262   7.975   5.146   2.036
  674WAT      O 2263   2.373   9.147   0.530
  674WAT     H1 2264   2.413   9.148   0.622
  674WAT     H2 2265   2.324   9.061   0.517
  675WAT      O 2266   6.266   0.627   7.264
  675WAT     H1 2267   6.229   0.593   7.350
  675WAT     H2 2268   6.366   0.618   7.265
  676WAT      O 2269   0.502   3.438   5.295
  676WAT     H1 2270   0.507   3.362   5.361
  676WAT     H2 2271   0.516   3.402   5.203
  677WAT      O 2272   5.201   1.410   9.312
  677WAT     H1 2273   5.192   1.507   9.294
  677WAT     H2 2274   5.229   1.396   9.407
  678WAT      O 2275   2.588   8.259   9.098
  678WAT     H1 2276   2.656   8.324   9.063
  678WAT     H2 2277   2.551   8.205   9.023
  679WAT      O 2278   1.241   1.995   0.615
  679WAT     H1 2279   1.316   1.953   0.564
  679WAT     H2 2280   1.240   1.961   0.709
  680WAT      O 2281   0.489   3.891   3.098
  680WAT     H1 2282   0.431   3.878   3.017
  680WAT     H2 2283   0.502   3.989   3.114
  681WAT      O 2284   1.379   0.224   9.610
  681WAT     H1 2285   1.291   0.226   9.563
  681WAT     H2 2286   1.380   0.149   9.677
  682WAT      O 2287   1.920   4.624   8.030
  682WAT     H1 2288   2.007   4.599   7.987
  682WAT     H2 2289   1.938   4.668   8.118
  683WAT      O 2290   5.123   6.520   1.840
  683WAT     H1 2291   5.175   6.494   1.921
  683WAT     H2 2292   5.037   6.469   1.838
  684WAT      O 2293   2.599   5.757   1.192
  684WAT     H1 2294   2.644   5.764   1.103
  684WAT     H2 2295   2.514   5.810   1.190
  685WAT      O 2296   7.442   9.025   8.194
  685WAT     H1 2297   7.514   9.093   8.180
  685WAT     H2 2298   7.448   8.956   8.122
  686WAT      O 2299   1.410   7.689   7.034
  686WAT     H1 2300   1.374   7.630   7.107
  686WAT     H2 2301   1.387   7.650   6.945
  687WAT      O 2302   2.092   7.704   1.553
  687WAT     H1 2303   2.187   7.729   1.533
  687WAT     H2 2304   2.059   7.638   1.485
  688WAT      O 2305   4.375   2.446   3.623
  688WAT     H1 2306   4.309   2.452   3.548
  688WAT     H2 2307   4.459   2.494   3.597
  689WAT      O 2308   4.031   1.735   1.964
  689WAT     H1 2309   3.996   1.818   1.920
  689WAT     H2 2310   4.087   1.685   1.899
  690WAT      O 2311   1.543   7.975   1.610
  690WAT     H1 2312   1.577   8.067   1.590
  690WAT     H2 2313   1.618   7.910   1.603
  691WAT      O 2314   4.162   5.483   7.160
  691WAT     H1 2315   4.209   5.531   7.235
  691WAT     H2 2316   4.068   5.514   7.154
  692WAT      O 2317   2.754   3.711   7.552
  692WAT     H1 2318   2.827   3.727   7.618
  692WAT     H2 2319   2.729   3.797   7.508
  693WAT      O 2320   5.835   5.226   0.914
  693WAT     H1 2321   5.819   5.201   1.009
  693WAT     H2 2322   5.748   5.243   0.868
  694WAT      O 2323   6.797   9.400   4.556
  694WAT     H1 2324   6.882   9.402   4.609
  694WAT     H2 2325   6.719   9.396   4.618
  695WAT      O 2326   2.739   1.832   1.349
  695WAT     H1 2327   2.805   1.896   1.310
  695WAT     H2 2328   2.664   1.883   1.391
  696WAT      O 2329   8.350   7.585   1.301
  696WAT     H1 2330   8.264   7.554   1.259
  696WAT     H2 2331   8.333   7.668   1.354
  697WAT      O 2332   6.551   7.269   1.537
  697WAT     H1 2333   6.517   7.252   1.630
  697WAT     H2 2334   6.552   7.184   1.486
  698WAT      O 2335   8.290   1.834   7.055
  698WAT     H1 2336   8.282   1.884   7.141
  698WAT     H2 2337   8.387   1.826   7.030
  699WAT      O 2338   7.355   4.617   0.408
  699WAT     H1 2339   7.269   4.627   0.459
  699WAT     H2 2340   7.349   4.537   0.348
  700WAT      O 2341   0.081   5.887   8.854
  700WAT     H1 2342   0.092   5.803   8.908
  700WAT     H2 2343   0.138   5.959   8.893
  701WAT      O 2344   1.267   9.781   4.601
  701WAT     H1 2345   1.329   9.857   4.580
  701WAT     H2 2346   1.173   9.812   4.593
  702WAT      O 2347   5.794   4.249   3.761
  702WAT     H1 2348   5.854   4.309   3.813
  702WAT     H2 2349   5.754   4.181   3.822
  703WAT      O 2350   4.175   6.123   9.829
  703WAT     H1 2351   4.117   6.124   9.910
  703WAT     H2 2352   4.247   6.192   9.839
  704WAT      O 2353   7.091   0.426   6.982
  704WAT     H1 2354   7.107   0.464   7.073
  704WAT     H2 2355   7.137   0.337   6.975
  705WAT      O 2356   4.671   0.765   2.138
  705WAT     H1 2357   4.690   0.712   2.220
  705WAT     H2 2358   4.586   0.817   2.151
  706WAT      O 2359   9.292   9.591   6.606
  706WAT     H1 2360   9.307   9.625   6.514
  706WAT     H2 2361   9.196   9.566   6.618
  707WAT      O 2362   9.689   3.284   8.392
  707WAT     H1 2363   9.785   3.280   8.420
  707WAT     H2 2364   9.639   3.208   8.434
  708WAT      O 2365   5.674   9.055   5.735
  708WAT     H1 2366   5.651   9.002   5.817
  708WAT     H2 2367   5.590   9.088   5.692
  709WAT      O 2368   0.064   6.622   9.224
  709WAT     H1 2369   0.030   6.529   9.216
  709WAT     H2 2370   0.101   6.636   9.316
  710WAT      O 2371   1.391   8.863   5.886
  710WAT     H1 2372   1.385   8.764   5.898
  710WAT     H2 2373   1.487   8.890   5.877
  711WAT      O 2374   7.583   5.956   3.972
  711WAT     H1 2375   7.632   5.905   3.901
  711WAT     H2 2376   7.510   6.010   3.931
  712WAT      O 2377   7.492   1.026   3.774
  712WAT     H1 2378   7.420   1.055   3.711
  712WAT     H2 2379   7.451   0.976   3.850
  713WAT      O 2380   7.287   1.976   3.966
  713WAT     H1 2381   7.360   2.045   3.962
  713WAT     H2 2382   7.245   1.968   3.875
  714WAT      O 2383   9.216   4.900   0.204
  714WAT     H1 2384   9.293   4.848   0.240
  714WAT     H2 2385   9.166   4.844   0.138
  715WAT      O 2386   6.664   0.127   6.636
  715WAT     H1 2387   6.676   0.178   6.551
  715WAT     H2 2388   6.697   0.034   6.624
  716WAT      O 2389   5.148   6.687   0.977
  716WAT     H1 2390   5.084   6.728   0.912
  716WAT     H2 2391   5.203   6.618   0.930
  717WAT      O 2392   5.149   0.793   9.518
  717WAT     H1 2393   5.242   0.776   9.484
  717WAT     H2 2394   5.147   0.880   9.568
  718WAT      O 2395   3.758   1.314   9.822
  718WAT     H1 2396   3.722   1.221   9.810
  718WAT     H2 2397   3.787   1.326   9.917
  719WAT      O 2398   8.262   2.375   0.723
  719WAT     H1 2399   8.315   2.295   0.753
  719WAT     H2 2400   8.190   2.346   0.661
  720WAT      O 2401   3.591   3.909   5.084
  720WAT     H1 2402   3.670   3.860   5.120
  720WAT     H2 2403   3.536   3.848   5.028
  721WAT      O 2404   1.864   1.994   2.099
  721WAT     H1 2405   1.810   1.933   2.157
  721WAT     H2 2406   1.854   1.967   2.003
  722WAT      O 2407   9.027   4.808   6.126
  722WAT     H1 2408   9.050   4.849   6.214
  722WAT     H2 2409   8.929   4.794   6.121
  723WAT      O 2410   9.193   6.194   2.666
  723WAT     H1 2411   9.124   6.219   2.734
  723WAT     H2 2412   9.266   6.141   2.709
  724WAT      O 2413   7.899   6.478   4.261
  724WAT     H1 2414   7.977   6.433   4.303
  724WAT     H2 2415   7.930   6.557   4.208
  725WAT      O 2416   0.186   2.950   1.476
  725WAT     H1 2417   0.147   3.028   1.524
  725WAT     H2 2418   0.140   2.939   1.387
  726WAT      O 2419   4.186   3.591   8.932
  726WAT     H1 2420   4.213   3.646   9.011
  726WAT     H2 2421   4.266   3.547   8.893
  727WAT      O 2422   1.327   9.731   3.774
  727WAT     H1 2423   1.367   9.820   3.796
  727WAT     H2 2424   1.400   9.669   3.744
  728WAT      O 2425   3.124   8.223   2.118
  728WAT     H1 2426   3.219   8.251   2.115
  728WAT     H2 2427   3.095   8.195   2.026
  729WAT      O 2428   2.142   2.167   7.588
  729WAT     H1 2429   2.208   2.173   7.663
  729WAT     H2 2430   2.183   2.116   7.512
  730WAT      O 2431   7.784   3.883   8.593
  730WAT     H1 2432   7.689   3.873   8.622
  730WAT     H2 2433   7.839   3.812   8.636
  731WAT      O 2434   0.011   6.495   0.860
  731WAT     H1 2435  -0.003   6.507   0.959
  731WAT     H2 2436   0.057   6.408   0.844
  732WAT      O 2437   6.649   0.960   1.230
  732WAT     H1 2438   6.657   0.869   1.271
  732WAT     H2 2439   6.734   1.011   1.246
  733WAT      O 2440   4.136   4.492   7.001
  733WAT     H1 2441   4.220   4.536   6.970
  733WAT     H2 2442   4.157   4.434   7.080
  734WAT      O 2443   5.082   6.437   0.255
  734WAT     H1 2444   5.015   6.511   0.242
  734WAT     H2 2445   5.042   6.350   0.226
  735WAT      O 2446   8.429   5.809   4.674
  735WAT     H1 2447   8.394   5.830   4.765
  735WAT     H2 2448   8.368   5.847   4.605
  736WAT      O 2449   5.983   7.744   8.488
  736WAT     H1 2450   5.890   7.743   8.525
  736WAT     H2 2451   6.010   7.837   8.465
  737WAT      O 2452   3.900   8.367   3.649
  737WAT     H1 2453   3.952   8.282   3.660
  737WAT     H2 2454   3.859   8.392   3.737
  738WAT      O 2455   8.883   0.300   1.101
  738WAT     H1 2456   8.879   0.397   1.123
  738WAT     H2 2457   8.799   0.273   1.053
  739WAT      O 2458   8.638   0.739   0.177
  739WAT     H1 2459   8.665   0.835   0.183
  739WAT     H2 2460   8.697   0.685   0.237
  740WAT      O 2461   7.524   6.701   1.615
  740WAT     H1 2462   7.569   6.640   1.549
  740WAT     H2 2463   7.524   6.794   1.578
  741WAT      O 2464   6.630   6.803   8.304
  741WAT     H1 2465   6.656   6.707   8.306
  741WAT     H2 2466   6.538   6.812   8.266
  742WAT      O 2467   8.165   5.645   0.903
  742WAT     H1 2468   8.234   5.707   0.867
  742WAT     H2 2469   8.158   5.657   1.002
  743WAT      O 2470   3.923   4.057   0.051
  743WAT     H1 2471   3.905   3.996   0.129
  743WAT     H2 2472   3.968   4.140   0.083
  744WAT      O 2473   0.407   9.261   8.739
  744WAT     H1 2474   0.380   9.166   8.751
  744WAT     H2 2475   0.506   9.269   8.746
  745WAT      O 2476   9.536   7.912   5.405
  745WAT     H1 2477   9.522   8.006   5.434
  745WAT     H2 2478   9.473   7.890   5.330
  746WAT      O 2479   8.755   8.206   4.819
  746WAT     H1 2480   8.681   8.170   4.762
  746WAT     H2 2481   8.801   8.131   4.865
  747WAT      O 2482   5.253   0.819   4.054
  747WAT     H1 2483   5.303   0.831   3.968
  747WAT     H2 2484   5.277   0.892   4.117
  748WAT      O 2485   5.023   7.441   8.892
  748WAT     H1 2486   4.990   7.525   8.851
  748WAT     H2 2487   5.039   7.456   8.990
  749WAT      O 2488   3.593   2.054   1.662
  749WAT     H1 2489   3.596   2.055   1.562
  749WAT     H2 2490   3.508   2.011   1.692
  750WAT      O 2491   6.498   3.745   9.880
  750WAT     H1 2492   6.499   3.650   9.848
  750WAT     H2 2493   6.585   3.767   9.924
  751WAT      O 2494   5.931   4.802   8.200
  751WAT     H1 2495   5.864   4.727   8.201
  751WAT     H2 2496   5.908   4.865   8.125
  752WAT      O 2497   7.975   9.463   7.534
  752WAT     H1 2498   8.040   9.399   7.576
  752WAT     H2 2499   7.925   9.512   7.605
  753WAT      O 2500   3.330   3.312   5.487
  753WAT     H1 2501   3.351   3.215   5.472
  753WAT     H2 2502   3.345   3.363   5.403
  754WAT      O 2503   1.202   2.690   9.546
  754WAT     H1 2504   1.254   2.767   9.508
  754WAT     H2 2505   1.161   2.638   9.471
  755WAT      O 2506   5.144   2.969   9.374
  755WAT     H1 2507   5.237   3.005   9.374
  755WAT     H2 2508   5.081   3.038   9.409
  756WAT      O 2509   1.051   1.717   3.345
  756WAT     H1 2510   1.084   1.661   3.268
  756WAT     H2 2511   1.115   1.792   3.361
  757WAT      O 2512   4.407   9.725   2.869
  757WAT     H1 2513   4.315   9.764   2.858
  757WAT     H2 2514   4.470   9.773   2.808
  758WAT      O 2515   4.898   2.918   8.475
  758WAT     H1 2516   4.919   2.867   8.558
  758WAT     H2 2517   4.809   2.888   8.439
  759WAT      O 2518   7.801   1.623   6.550
  759WAT     H1 2519   7.881   1.674   6.582
  759WAT     H2 2520   7.729   1.686   6.522
  760WAT      O 2521   0.618   8.296   4.034
  760WAT     H1 2522   0.670   8.381   4.043
  760WAT     H2 2523   0.545   8.294   4.101
  761WAT      O 2524   9.025   5.492   1.796
  761WAT     H1 2525   8.971   5.452   1.722
  761WAT     H2 2526   9.032   5.427   1.871
  762WAT      O 2527   8.954   7.065   8.523
  762WAT     H1 2528   8.921   7.084   8.430
  762WAT     H2 2529   8.885   7.094   8.589
  763WAT      O 2530   8.752   8.121   3.540
  763WAT     H1 2531   8.667   8.102   3.491
  763WAT     H2 2532   8.736   8.110   3.638
  764WAT      O 2533   2.235   1.095   6.693
  764WAT     H1 2534   2.293   1.093   6.611
  764WAT     H2 2535   2.184   1.009   6.700
  765WAT      O 2536   4.544   8.787   1.502
  765WAT     H1 2537   4.484   8.854   1.546
  765WAT     H2 2538   4.589   8.731   1.572
  766WAT      O 2539   3.633   5.186   7.587
  766WAT     H1 2540   3.603   5.108   7.533
  766WAT     H2 2541   3.556   5.248   7.602
  767WAT      O 2542   2.999   9.350   7.658
  767WAT     H1 2543   3.078   9.295   7.632
  767WAT     H2 2544   2.952   9.383   7.576
  768WAT      O 2545   2.208   8.833   7.520
  768WAT     H1 2546   2.198   8.920   7.471
  768WAT     H2 2547   2.231   8.761   7.455
  769WAT      O 2548   8.620   4.340   4.507
  769WAT     H1 2549   8.570   4.370   4.588
  769WAT     H2 2550   8.681   4.265   4.531
  770WAT      O 2551   7.595   7.438   6.747
  770WAT     H1 2552   7.502   7.476   6.737
  770WAT     H2 2553   7.589   7.342   6.774
  771WAT      O 2554   7.819   4.395   8.485
  771WAT     H1 2555   7.762   4.313   8.493
  771WAT     H2 2556   7.901   4.373   8.432
  772WAT      O 2557   9.743   6.671   1.036
  772WAT     H1 2558   9.678   6.642   1.107
  772WAT     H2 2559   9.725   6.766   1.011
  773WAT      O 2560   4.607   7.744   1.987
  773WAT     H1 2561   4.669   7.683   2.036
  773WAT     H2 2562   4.584   7.822   2.044
  774WAT      O 2563   4.603   1.089   3.324
  774WAT     H1 2564   4.552   1.014   3.366
  774WAT     H2 2565   4.547   1.133   3.254
  775WAT      O 2566   5.549   9.681   8.206
  775WAT     H1 2567   5.641   9.668   8.243
  775WAT     H2 2568   5.514   9.595   8.170
  776WAT      O 2569   4.160   7.822   8.680
  776WAT     H1 2570   4.074   7.781   8.711
  776WAT     H2 2571   4.223   7.749   8.652
  777WAT      O 2572   1.037   2.727   2.140
  777WAT     H1 2573   0.973   2.760   2.209
  777WAT     H2 2574   1.000   2.746   2.049
  778WAT      O 2575   5.536   4.060   7.497
  778WAT     H1 2576   5.623   4.011   7.501
  778WAT     H2 2577   5.538   4.124   7.420
  779WAT      O 2578   0.101   4.603   3.096
  779WAT     H1 2579   0.171   4.603   3.023
  779WAT     H2 2580   0.083   4.697   3.123
  780WAT      O 2581   9.790   2.135   5.972
  780WAT     H1 2582   9.765   2.095   5.884
  780WAT     H2 2583   9.889   2.125   5.987
  781WAT      O 2584   6.706   3.976   0.989
  781WAT     H1 2585   6.773   3.917   1.034
  781WAT     H2 2586   6.717   4.070   1.021
  782WAT      O 2587   3.445   4.458   2.134
  782WAT     H1 2588   3.455   4.408   2.047
  782WAT     H2 2589   3.441   4.557   2.115
  783WAT      O 2590   2.032   4.388   2.262
  783WAT     H1 2591   1.955   4.449   2.280
  783WAT     H2 2592   2.089   4.380   2.344
  784WAT      O 2593   6.514   3.823   7.155
  784WAT     H1 2594   6.537   3.914   7.120
  784WAT     H2 2595   6.583   3.757   7.127
  785WAT      O 2596   9.709   0.107   3.454
  785WAT     H1 2597   9.624   0.074   3.495
  785WAT     H2 2598   9.785   0.052   3.487
  786WAT      O 2599   2.128   7.297   9.113
  786WAT     H1 2600   2.176   7.300   9.200
  786WAT     H2 2601   2.069   7.215   9.111
  787WAT      O 2602   8.543   5.055   8.865
  787WAT     H1 2603   8.526   4.971   8.814
  787WAT     H2 2604   8.457   5.098   8.889
  788WAT      O 2605   2.865   4.664   2.321
  788WAT     H1 2606   2.819   4.583   2.358
  788WAT     H2 2607   2.952   4.637   2.279
  789WAT      O 2608   6.199   1.363   8.095
  789WAT     H1 2609   6.287   1.343   8.053
  789WAT     H2 2610   6.127   1.311   8.048
  790WAT      O 2611   3.250   0.714   4.584
  790WAT     H1 2612   3.334   0.731   4.637
  790WAT     H2 2613   3.244   0.617   4.561
  791WAT      O 2614   9.783   4.865   2.615
  791WAT     H1 2615   9.794   4.845   2.712
  791WAT     H2 2616   9.872   4.880   2.573
  792WAT      O 2617   9.657   8.877   8.570
  792WAT     H1 2618   9.618   8.961   8.533
  792WAT     H2 2619   9.598   8.843   8.644
  793WAT      O 2620   6.815   5.420   1.538
  793WAT     H1 2621   6.833   5.478   1.459
  793WAT     H2 2622   6.738   5.359   1.518
  794WAT      O 2623   2.025   8.740   7.683
  794WAT     H1 2624   2.086   8.772   7.611
  794WAT     H2 2625   1.944   8.799   7.687
  795WAT      O 2626   8.096   5.085   3.401
  795WAT     H1 2627   8.020   5.135   3.443
  795WAT     H2 2628   8.164   5.063   3.471
  796WAT      O 2629   4.056   1.143   5.250
  796WAT     H1 2630   4.000   1.127   5.332
  796WAT     H2 2631   4.121   1.068   5.238
  797WAT      O 2632   0.436   2.526   7.981
  797WAT     H1 2633   0.416   2.470   7.901
  797WAT     H2 2634   0.408   2.621   7.963
  798WAT      O 2635   4.558   5.859   5.209
  798WAT     H1 2636   4.492   5.893   5.142
  798WAT     H2 2637   4.610   5.784   5.169
  799WAT      O 2638   1.172   5.936   6.831
  799WAT     H1 2639   1.084   5.950   6.786
  799WAT     H2 2640   1.206   5.844   6.809
  800WAT      O 2641   3.983   7.327   7.617
  800WAT     H1 2642   4.066   7.274   7.633
  800WAT     H2 2643   3.996   7.421   7.649
  801WAT      O 2644   7.647   3.400   5.819
  801WAT     H1 2645   7.562   3.402   5.872
  801WAT     H2 2646   7.637   3.338   5.742
  802WAT      O 2647   0.194   1.969   7.678
  802WAT     H1 2648   0.256   2.005   7.748
  802WAT     H2 2649   0.099   1.983   7.706
  803WAT      O 2650   6.930   9.634   8.870
  803WAT     H1 2651   7.028   9.639   8.850
  803WAT     H2 2652   6.878   9.663   8.789
  804WAT      O 2653   9.086   2.588   0.445
  804WAT     H1 2654   9.079   2.683   0.474
  804WAT     H2 2655   9.128   2.534   0.518
  805WAT      O 2656   3.342   0.671   6.324
  805WAT     H1 2657   3.339   0.633   6.231
  805WAT     H2 2658   3.310   0.765   6.323
  806WAT      O 2659   7.407   0.636   4.407
  806WAT     H1 2660   7.500   0.646   4.442
  806WAT     H2 2661   7.395   0.543   4.371
  807WAT      O 2662   4.227   4.084   1.033
  807WAT     H1 2663   4.131   4.075   1.005
  807WAT     H2 2664   4.235   4.067   1.131
  808WAT      O 2665   6.233   6.007   8.862
  808WAT     H1 2666   6.259   5.939   8.794
  808WAT     H2 2667   6.138   5.993   8.888
  809WAT      O 2668   8.823   0.668   9.429
  809WAT     H1 2669   8.799   0.681   9.525
  809WAT     H2 2670   8.904   0.609   9.423
  810WAT      O 2671   2.403   5.164   4.766
  810WAT     H1 2672   2.346   5.130   4.841
  810WAT     H2 2673   2.463   5.091   4.734
  811WAT      O 2674   5.766   6.909   5.148
  811WAT     H1 2675   5.766   6.902   5.048
  811WAT     H2 2676   5.841   6.855   5.185
  812WAT      O 2677   0.223   3.010   9.129
  812WAT     H1 2678   0.203   2.995   9.225
  812WAT     H2 2679   0.195   2.930   9.076
  813WAT      O 2680   5.524   4.472   5.115
  813WAT     H1 2681   5.535   4.380   5.152
  813WAT     H2 2682   5.537   4.539   5.188
  814WAT      O 2683   1.110   1.844   6.001
  814WAT     H1 2684   1.173   1.908   6.045
  814WAT     H2 2685   1.137   1.751   6.022
  815WAT      O 2686   2.505   2.341   0.255
  815WAT     H1 2687   2.473   2.434   0.275
  815WAT     H2 2688   2.431   2.276   0.269
  816WAT      O 2689   2.053   9.638   1.460
  816WAT     H1 2690   2.115   9.566   1.492
  816WAT     H2 2691   1.980   9.651   1.526
  817WAT      O 2692   9.572   5.477   8.701
  817WAT     H1 2693   9.473   5.467   8.707
  817WAT     H2 2694   9.616   5.389   8.716
  818WAT      O 2695   7.747   4.201   7.736
  818WAT     H1 2696   7.729   4.297   7.756
  818WAT     H2 2697   7.752   4.188   7.636
  819WAT      O 2698   8.144   7.293   6.026
  819WAT     H1 2699   8.090   7.302   6.110
  819WAT     H2 2700   8.102   7.347   5.953
  820WAT      O 2701   5.805   9.695   5.455
  820WAT     H1 2702   5.713   9.728   5.472
  820WAT     H2 2703   5.816   9.603   5.494
  821WAT      O 2704   0.667   0.123   4.889
  821WAT     H1 2705   0.625   0.060   4.955
  821WAT     H2 2706   0.635   0.101   4.797
  822WAT      O 2707   9.684   9.233   5.884
  822WAT     H1 2708   9.707   9.172   5.960
  822WAT     H2 2709   9.709   9.327   5.907
  823WAT      O 2710   8.557   2.231   3.617
  823WAT     H1 2711   8.639   2.201   3.568
  823WAT     H2 2712   8.571   2.217   3.715
  824WAT      O 2713   8.340   7.737   8.873
  824WAT     H1 2714   8.412   7.713   8.939
  824WAT     H2 2715   8.277   7.660   8.863
  825WAT      O 2716   2.450   7.269   2.550
  825WAT     H1 2717   2.374   7.326   2.581
  825WAT     H2 2718   2.489   7.308   2.466
  826WAT      O 2719   8.889   1.966   8.349
  826WAT     H1 2720   8.799   2.008   8.357
  826WAT     H2 2721   8.960   2.035   8.366
  827WAT      O 2722   0.572   8.315   4.500
  827WAT     H1 2723   0.638   8.245   4.526
  827WAT     H2 2724   0.612   8.374   4.429
  828WAT      O 2725   3.151   7.290   2.235
  828WAT     H1 2726   3.155   7.201   2.279
  828WAT     H2 2727   3.068   7.339   2.264
  829WAT      O 2728   0.964   4.805   0.631
  829WAT     H1 2729   0.905   4.781   0.709
  829WAT     H2 2730   1.055   4.829   0.665
  830WAT      O 2731   4.206   3.374   7.159
  830WAT     H1 2732   4.206   3.383   7.060
  830WAT     H2 2733   4.215   3.277   7.184
  831WAT      O 2734   8.959   8.464   7.942
  831WAT     H1 2735   8.920   8.467   7.850
  831WAT     H2 2736   8.977   8.558   7.973
  832WAT      O 2737   9.222   5.334   1.456
  832WAT     H1 2738   9.124   5.327   1.437
  832WAT     H2 2739   9.269   5.252   1.423
  833WAT      O 2740   1.087   8.266   5.547
  833WAT     H1 2741   1.136   8.259   5.634
  833WAT     H2 2742   1.144   8.314   5.480
  834WAT      O 2743   1.175   7.419   6.961
  834WAT     H1 2744   1.214   7.409   6.869
  834WAT     H2 2745   1.101   7.353   6.974
  835WAT      O 2746   6.289   0.944   8.621
  835WAT     H1 2747   6.317   0.993   8.538
  835WAT     H2 2748   6.328   0.989   8.701
  836WAT      O 2749   3.645   3.150   3.542
  836WAT     H1 2750   3.602   3.060   3.533
  836WAT     H2 2751   3.727   3.141   3.598
  837WAT      O 2752   3.512   8.844   9.199
  837WAT     H1 2753   3.542   8.777   9.131
  837WAT     H2 2754   3.416   8.830   9.221
  838WAT      O 2755   0.572   6.714   4.079
  838WAT     H1 2756   0.638   6.685   4.010
  838WAT     H2 2757   0.618   6.726   4.167
  839WAT      O 2758   6.476   5.521   9.319
  839WAT     H1 2759   6.434   5.441   9.361
  839WAT     H2 2760   6.508   5.497   9.227
  840WAT      O 2761   7.358   6.056   3.212
  840WAT     H1 2762   7.318   6.111   3.140
  840WAT     H2 2763   7.286   6.014   3.266
  841WAT      O 2764   2.960   5.856   5.984
  841WAT     H1 2765   2.914   5.905   5.910
  841WAT     H2 2766   3.054   5.890   5.994
  842WAT      O 2767   8.778   8.450   2.536
  842WAT     H1 2768   8.853   8.385   2.538
  842WAT     H2 2769   8.729   8.443   2.450
  843WAT      O 2770   3.577   2.691   8.963
  843WAT     H1 2771   3.562   2.745   8.880
  843WAT     H2 2772   3.598   2.596   8.938
  844WAT      O 2773   4.753   8.006   3.300
  844WAT     H1 2774   4.777   8.102   3.293
  844WAT     H2 2775   4.741   7.981   3.396
  845WAT      O 2776   0.327   7.897   3.873
  845WAT     H1 2777   0.370   7.958   3.807
  845WAT     H2 2778   0.397   7.843   3.920
  846WAT      O 2779   8.687   2.240   0.321
  846WAT     H1 2780   8.778   2.205   0.342
  846WAT     H2 2781   8.653   2.293   0.399
  847WAT      O 2782   9.674   4.609   9.101
  847WAT     H1 2783   9.773   4.614   9.096
  847WAT     H2 2784   9.646   4.516   9.124
  848WAT      O 2785   7.693   9.371   8.107
  848WAT     H1 2786   7.765   9.424   8.062
  848WAT     H2 2787   7.668   9.293   8.050
  849WAT      O 2788   2.123   2.874   8.811
  849WAT     H1 2789   2.130   2.858   8.712
  849WAT     H2 2790   2.181   2.951   8.836
  850WAT      O 2791   5.364   6.603   9.512
  850WAT     H1 2792   5.416   6.682   9.480
  850WAT     H2 2793   5.270   6.609   9.479
  851WAT      O 2794   4.021   0.670   5.951
  851WAT     H1 2795   3.955   0.703   5.884
  851WAT     H2 2796   4.015   0.725   6.034
  852WAT      O 2797   5.350   8.819   3.815
  852WAT     H1 2798   5.422   8.886   3.831
  852WAT     H2 2799   5.265   8.866   3.791
  853WAT      O 2800   9.842   5.532   5.127
  853WAT     H1 2801   9.789   5.557   5.046
  853WAT     H2 2802   9.838   5.433   5.140
  854WAT      O 2803   4.360   4.803   1.099
  854WAT     H1 2804   4.441   4.821   1.044
  854WAT     H2 2805   4.307   4.888   1.109
  855WAT      O 2806   9.563   5.264   5.865
  855WAT     H1 2807   9.546   5.251   5.767
  855WAT     H2 2808   9.479   5.296   5.909
  856WAT      O 2809   8.219   2.032   5.902
  856WAT     H1 2810   8.207   2.108   5.965
  856WAT     H2 2811   8.293   2.053   5.838
  857WAT      O 2812   8.962   0.599   8.122
  857WAT     H1 2813   8.891   0.629   8.058
  857WAT     H2 2814   9.045   0.577   8.071
  858WAT      O 2815   1.585   5.865   7.662
  858WAT     H1 2816   1.602   5.767   7.654
  858WAT     H2 2817   1.486   5.882   7.669
  859WAT      O 2818   6.853   0.362   8.058
  859WAT     H1 2819   6.820   0.398   7.971
  859WAT     H2 2820   6.805   0.407   8.133
  860WAT      O 2821   1.362   2.790   5.072
  860WAT     H1 2822   1.308   2.791   4.988
  860WAT     H2 2823   1.459   2.796   5.049
  861WAT      O 2824   2.796   5.562   0.579
  861WAT     H1 2825   2.757   5.516   0.659
  861WAT     H2 2826   2.735   5.635   0.549
  862WAT      O 2827   4.330   8.604   5.703
  862WAT     H1 2828   4.326   8.704   5.707
  862WAT     H2 2829   4.401   8.576   5.638
  863WAT      O 2830   6.703   8.845   7.577
  863WAT     H1 2831   6.798   8.816   7.589
  863WAT     H2 2832   6.674   8.828   7.482
  864WAT      O 2833   3.998   5.959   7.657
  864WAT     H1 2834   4.047   5.902   7.591
  864WAT     H2 2835   4.011   6.055   7.635
  865WAT      O 2836   8.586   1.787   6.731
  865WAT     H1 2837   8.648   1.843   6.676
  865WAT     H2 2838   8.560   1.837   6.813
  866WAT      O 2839   5.061   4.265   8.515
  866WAT     H1 2840   4.986   4.207   8.548
  866WAT     H2 2841   5.023   4.350   8.477
  867WAT      O 2842   9.201   0.546   8.503
  867WAT     H1 2843   9.105   0.541   8.476
  867WAT     H2 2844   9.219   0.478   8.573
  868WAT      O 2845   6.265   6.341   6.327
  868WAT     H1 2846   6.267   6.431   6.283
  868WAT     H2 2847   6.339   6.284   6.291
  869WAT      O 2848   1.258   3.124   3.982
  869WAT     H1 2849   1.323   3.199   3.968
  869WAT     H2 2850   1.308   3.042   4.011
  870WAT      O 2851   6.509   1.540   1.053
  870WAT     H1 2852   6.494   1.623   1.107
  870WAT     H2 2853   6.455   1.465   1.091
  871WAT      O 2854   7.632   3.368   1.111
  871WAT     H1 2855   7.552   3.312   1.135
  871WAT     H2 2856   7.637   3.447   1.173
  872WAT      O 2857   2.125   2.711   9.165
  872WAT     H1 2858   2.218   2.738   9.186
  872WAT     H2 2859   2.110   2.719   9.066
  873WAT      O 2860   2.503   7.601   0.652
  873WAT     H1 2861   2.476   7.621   0.746
  873WAT     H2 2862   2.602   7.587   0.647
  874WAT      O 2863   7.524   2.758   5.370
  874WAT     H1 2864   7.563   2.758   5.462
  874WAT     H2 2865   7.466   2.677   5.358
  875WAT      O 2866   4.433   9.440   3.554
  875WAT     H1 2867   4.350   9.468   3.601
  875WAT     H2 2868   4.423   9.457   3.456
  876WAT      O 2869   5.432   5.241   6.331
  876WAT     H1 2870   5.355   5.253   6.269
  876WAT     H2 2871   5.518   5.248   6.280
  877WAT      O 2872   9.291   1.824   3.915
  877WAT     H1 2873   9.269   1.795   3.821
  877WAT     H2 2874   9.281   1.746   3.977
  878WAT      O 2875   9.692   7.029   4.929
  878WAT     H1 2876   9.754   7.098   4.966
  878WAT     H2 2877   9.735   6.939   4.933
  879WAT      O 2878   4.551   7.638   6.996
  879WAT     H1 2879   4.595   7.586   7.069
  879WAT     H2 2880   4.479   7.583   6.954
  880WAT      O 2881   8.363   9.488   8.666
  880WAT     H1 2882   8.343   9.458   8.760
  880WAT     H2 2883   8.309   9.434   8.602
  881WAT      O 2884   2.103   3.090   2.299
  881WAT     H1 2885   2.173   3.061   2.365
  881WAT     H2 2886   2.114   3.188   2.281
  882WAT      O 2887   6.271   4.106   5.788
  882WAT     H1 2888   6.360   4.097   5.832
  882WAT     H2 2889   6.201   4.122   5.858
  883WAT      O 2890   5.635   6.655   2.073
  883WAT     H1 2891   5.622   6.624   1.979
  883WAT     H2 2892   5.686   6.586   2.124
  884WAT      O 2893   3.177   0.838   5.762
  884WAT     H1 2894   3.263   0.877   5.794
  884WAT     H2 2895   3.157   0.754   5.812
  885WAT      O 2896   1.262   0.463   6.240
  885WAT     H1 2897   1.311   0.498   6.320
  885WAT     H2 2898   1.242   0.366   6.254
  886WAT      O 2899   9.157   1.519   6.953
  886WAT     H1 2900   9.132   1.616   6.955
  886WAT     H2 2901   9.174   1.492   6.858
  887WAT      O 2902   7.197   0.199   9.715
  887WAT     H1 2903   7.179   0.297   9.728
  887WAT     H2 2904   7.262   0.167   9.783
  888WAT      O 2905   6.598   3.661   4.872
  888WAT     H1 2906   6.601   3.564   4.846
  888WAT     H2 2907   6.684   3.686   4.916
  889WAT      O 2908   0.847   1.470   5.777
  889WAT     H1 2909   0.833   1.534   5.852
  889WAT     H2 2910   0.767   1.469   5.718
  890WAT      O 2911   1.257   8.769   0.833
  890WAT     H1 2912   1.225   8.677   0.853
  890WAT     H2 2913   1.320   8.799   0.905
  891WAT      O 2914   9.504   0.448   6.174
  891WAT     H1 2915   9.446   0.376   6.211
  891WAT     H2 2916   9.580   0.465   6.235
  892WAT      O 2917   6.400   6.121   6.216
  892WAT     H1 2918   6.446   6.087   6.298
  892WAT     H2 2919   6.361   6.044   6.166
  893WAT      O 2920   0.860   0.772   0.957
  893WAT     H1 2921   0.904   0.854   0.995
  893WAT     H2 2922   0.814   0.723   1.031
  894WAT      O 2923   1.213   2.533   2.002
  894WAT     H1 2924   1.302   2.497   2.029
  894WAT     H2 2925   1.190   2.612   2.058
  895WAT      O 2926   2.073   3.894   3.039
  895WAT     H1 2927   1.982   3.856   3.058
  895WAT     H2 2928   2.119   3.913   3.126
  896WAT      O 2929   3.736   2.439   7.808
  896WAT     H1 2930   3.802   2.488   7.864
  896WAT     H2 2931   3.784   2.371   7.752
  897WAT      O 2932   1.084   8.358   9.675
  897WAT     H1 2933   1.008   8.295   9.688
  897WAT     H2 2934   1.053   8.437   9.621
  898WAT      O 2935   1.857   2.868   9.143
  898WAT     H1 2936   1.783   2.923   9.182
  898WAT     H2 2937   1.907   2.823   9.216
  899WAT      O 2938   9.398   7.733   6.784
  899WAT     H1 2939   9.413   7.817   6.732
  899WAT     H2 2940   9.470   7.722   6.852
  900WAT      O 2941   3.996   4.949   6.681
  900WAT     H1 2942   3.994   5.015   6.756
  900WAT     H2 2943   4.036   4.863   6.713
  901WAT      O 2944   6.325   2.082   3.049
  901WAT     H1 2945   6.364   2.131   3.126
  901WAT     H2 2946   6.226   2.099   3.044
  902WAT      O 2947   2.903   5.517   6.371
  902WAT     H1 2948   2.886   5.584   6.299
  902WAT     H2 2949   2.832   5.523   6.441
  903WAT      O 2950   4.210   2.057   7.078
  903WAT     H1 2951   4.201   2.116   6.998
  903WAT     H2 2952   4.279   2.095   7.140
  904WAT      O 2953   0.764   5.180   2.146
  904WAT     H1 2954   0.833   5.179   2.218
  904WAT     H2 2955   0.674   5.198   2.186
  905WAT      O 2956   4.993   8.339   7.862
  905WAT     H1 2957   4.930   8.331   7.940
  905WAT     H2 2958   5.022   8.248   7.834
  906WAT      O 2959   4.475   0.310   0.466
  906WAT     H1 2960   4.502   0.266   0.381
  906WAT     H2 2961   4.417   0.248   0.519
  907WAT      O 2962   0.260   3.910   1.750
  907WAT     H1 2963   0.326   3.967   1.799
  907WAT     H2 2964   0.258   3.937   1.654
  908WAT      O 2965   1.015   4.743   0.938
  908WAT     H1 2966   0.968   4.669   0.888
  908WAT     H2 2967   1.083   4.785   0.878
  909WAT      O 2968   0.247   0.135   3.914
  909WAT     H1 2969   0.302   0.069   3.965
  909WAT     H2 2970   0.281   0.142   3.820
  910WAT      O 2971   8.964   1.169   2.606
  910WAT     H1 2972   9.032   1.239   2.585
  910WAT     H2 2973   8.961   1.154   2.705
  911WAT      O 2974   6.674   1.888   1.920
  911WAT     H1 2975   6.603   1.958   1.926
  911WAT     H2 2976   6.764   1.932   1.917
  912WAT      O 2977   5.974   0.770   0.589
  912WAT     H1 2978   5.955   0.830   0.667
  912WAT     H2 2979   5.976   0.824   0.505
  913WAT      O 2980   2.522   0.628   8.291
  913WAT     H1 2981   2.470   0.651   8.373
  913WAT     H2 2982   2.515   0.703   8.225
  914WAT      O 2983   8.005   0.648   2.066
  914WAT     H1 2984   8.058   0.563   2.069
  914WAT     H2 2985   7.923   0.635   2.011
  915WAT      O 2986   5.019   4.236   2.889
  915WAT     H1 2987   4.999   4.245   2.987
  915WAT     H2 2988   4.975   4.155   2.853
  916WAT      O 2989   5.205   7.516   2.818
  916WAT     H1 2990   5.222   7.442   2.752
  916WAT     H2 2991   5.175   7.476   2.905
  917WAT      O 2992   3.269   9.493   2.511
  917WAT     H1 2993   3.347   9.451   2.465
  917WAT     H2 2994   3.249   9.582   2.469
  918WAT      O 2995   9.136   5.012   7.232
  918WAT     H1 2996   9.160   4.915   7.235
  918WAT     H2 2997   9.042   5.022   7.197
  919WAT      O 2998   6.343   5.991   4.527
  919WAT     H1 2999   6.340   5.954   4.434
  919WAT     H2 3000   6.250   5.993   4.565
  920WAT      O 3001   1.787   5.640   8.989
  920WAT     H1 3002   1.722   5.710   9.017
  920WAT     H2 3003   1.812   5.655   8.893
  921WAT      O 3004   8.607   1.903   0.930
  921WAT     H1 3005   8.589   1.960   1.009
  921WAT     H2 3006   8.705   1.884   0.923
  922WAT      O 3007   2.639   5.176   0.564
  922WAT     H1 3008   2.665   5.214   0.475
  922WAT     H2 3009   2.540   5.176   0.573
  923WAT      O 3010   7.087   0.254   4.933
  923WAT     H1 3011   7.004   0.309   4.927
  923WAT     H2 3012   7.160   0.307   4.976
  924WAT      O 3013   7.393   1.257   4.588
  924WAT     H1 3014   7.320   1.300   4.535
  924WAT     H2 3015   7.357   1.226   4.676
  925WAT      O 3016   6.083   2.037   5.863
  925WAT     H1 3017   6.004   2.006   5.916
  925WAT     H2 3018   6.161   2.049   5.923
  926WAT      O 3019   9.615   0.191   4.910
  926WAT     H1 3020   9.545   0.256   4.882
  926WAT     H2 3021   9.600   0.164   5.005
  927WAT      O 3022   0.801   8.785   2.784
  927WAT     H1 3023   0.775   8.715   2.717
  927WAT     H2 3024   0.731   8.791   2.855
  928WAT      O 3025   5.734   0.620   6.942
  928WAT     H1 3026   5.679   0.674   7.005
  928WAT     H2 3027   5.687   0.533   6.923
  929WAT      O 3028   0.628   9.279   2.112
  929WAT     H1 3029   0.624   9.353   2.044
  929WAT     H2 3030   0.711   9.225   2.097
  930WAT      O 3031   4.990   5.231   2.705
  930WAT     H1 3032   4.931   5.196   2.778
  930WAT     H2 3033   5.065   5.283   2.746
  931WAT      O 3034   8.765   7.933   9.263
  931WAT     H1 3035   8.667   7.920   9.248
  931WAT     H2 3036   8.806   7.977   9.183
  932WAT      O 3037   9.655   1.501   8.982
  932WAT     H1 3038   9.696   1.457   8.902
  932WAT     H2 3039   9.728   1.528   9.045
  933WAT      O 3040   0.379   9.248   4.446
  933WAT     H1 3041   0.357   9.171   4.386
  933WAT     H2 3042   0.315   9.250   4.523
  934WAT      O 3043   4.090   5.758   6.746
  934WAT     H1 3044   4.017   5.734   6.681
  934WAT     H2 3045   4.049   5.775   6.836
  935WAT      O 3046   1.978   8.966   4.614
  935WAT     H1 3047   2.023   9.017   4.688
  935WAT     H2 3048   1.927   8.889   4.653
  936WAT      O 3049   2.749   1.000   1.846
  936WAT     H1 3050   2.738   0.946   1.762
  936WAT     H2 3051   2.667   0.991   1.902
  937WAT      O 3052   3.035   9.014   8.033
  937WAT     H1 3053   3.066   9.033   8.126
  937WAT     H2 3054   2.943   8.974   8.036
  938WAT      O 3055   3.923   1.971   1.123
  938WAT     H1 3056   3.918   1.984   1.222
  938WAT     H2 3057   3.861   2.035   1.077
  939WAT      O 3058   8.478   6.085   8.895
  939WAT     H1 3059   8.429   6.134   8.823
  939WAT     H2 3060   8.516   6.000   8.857
  940WAT      O 3061   9.444   4.561   2.788
  940WAT     H1 3062   9.506   4.524   2.718
  940WAT     H2 3063   9.477   4.651   2.818
  941WAT      O 3064   7.392   1.240   8.528
  941WAT     H1 3065   7.380   1.315   8.593
  941WAT     H2 3066   7.490   1.223   8.515
  942WAT      O 3067   4.082   9.188   4.551
  942WAT     H1 3068   4.029   9.107   4.575
  942WAT     H2 3069   4.178   9.173   4.575
  943WAT      O 3070   0.247   2.734   9.230
  943WAT     H1 3071   0.226   2.750   9.326
  943WAT     H2 3072   0.344   2.754   9.212
  944WAT      O 3073   2.486   6.896   4.911
  944WAT     H1 3074   2.547   6.940   4.845
  944WAT     H2 3075   2.541   6.849   4.980
  945WAT      O 3076   4.432   6.719   7.697
  945WAT     H1 3077   4.389   6.707   7.608
  945WAT     H2 3078   4.502   6.649   7.710
  946WAT      O 3079   1.787   7.996   3.180
  946WAT     H1 3080   1.810   7.926   3.248
  946WAT     H2 3081   1.866   8.056   3.166
  947WAT      O 3082   8.289   2.146   9.376
  947WAT     H1 3083   8.202   2.183   9.408
  947WAT     H2 3084   8.352   2.221   9.356
  948WAT      O 3085   1.737   3.279   8.162
  948WAT     H1 3086   1.750   3.181   8.147
  948WAT     H2 3087   1.764   3.303   8.255
  949WAT      O 3088   0.182   2.385   6.975
  949WAT     H1 3089   0.196   2.287   6.956
  949WAT     H2 3090   0.221   2.439   6.901
  950WAT      O 3091   8.207   6.252   0.941
  950WAT     H1 3092   8.269   6.286   1.012
  950WAT     H2 3093   8.126   6.310   0.937
  951WAT      O 3094   2.117   9.485   0.332
  951WAT     H1 3095   2.063   9.487   0.248
  951WAT     H2 3096   2.095   9.403   0.384
  952WAT      O 3097   2.797   5.353   7.454
  952WAT     H1 3098   2.812   5.276   7.517
  952WAT     H2 3099   2.758   5.319   7.369
  953WAT      O 3100   1.214   6.492   5.604
  953WAT     H1 3101   1.281   6.464   5.673
  953WAT     H2 3102   1.250   6.473   5.513
  954WAT      O 3103   0.477   5.931   3.700
  954WAT     H1 3104   0.486   6.017   3.750
  954WAT     H2 3105   0.453   5.951   3.604
  955WAT      O 3106   6.588   4.775   5.442
  955WAT     H1 3107   6.576   4.819   5.530
  955WAT     H2 3108   6.681   4.791   5.408
  956WAT      O 3109   1.012   5.286   3.344
  956WAT     H1 3110   1.098   5.256   3.304
  956WAT     H2 3111   0.962   5.342   3.277
  957WAT      O 3112   8.311   3.961   7.438
  957WAT     H1 3113   8.358   3.901   7.373
  957WAT     H2 3114   8.278   4.042   7.391
  958WAT      O 3115   2.802   5.237   5.275
  958WAT     H1 3116   2.754   5.180   5.341
  958WAT     H2 3117   2.883   5.276   5.318
  959WAT      O 3118   9.390   2.676   8.306
  959WAT     H1 3119   9.482   2.704   8.276
  959WAT     H2 3120   9.332   2.756   8.316
  960WAT      O 3121   1.220   2.036   5.618
  960WAT     H1 3122   1.160   1.975   5.669
  960WAT     H2 3123   1.169   2.077   5.543
  961WAT      O 3124   0.821   3.721   4.572
  961WAT     H1 3125   0.816   3.701   4.474
  961WAT     H2 3126   0.847   3.637   4.621
  962WAT      O 3127   1.087   7.341   8.152
  962WAT     H1 3128   1.072   7.437   8.176
  962WAT     H2 3129   1.046   7.283   8.222
  963WAT      O 3130   8.866   5.478   8.405
  963WAT     H1 3131   8.908   5.399   8.361
  963WAT     H2 3132   8.857   5.460   8.503
  964WAT      O 3133   7.010   9.287   8.464
  964WAT     H1 3134   7.002   9.195   8.503
  964WAT     H2 3135   7.087   9.335   8.506
  965WAT      O 3136   6.626   4.502   1.225
  965WAT     H1 3137   6.659   4.466   1.312
  965WAT     H2 3138   6.550   4.446   1.192
  966WAT      O 3139   9.562   3.409   0.644
  966WAT     H1 3140   9.534   3.423   0.739
  966WAT     H2 3141   9.642   3.466   0.624
  967WAT      O 3142   3.998   0.281   6.554
  967WAT     H1 3143   3.991   0.323   6.644
  967WAT     H2 3144   3.910   0.288   6.506
  968WAT      O 3145   4.490   1.141   7.985
  968WAT     H1 3146   4.411   1.203   7.980
  968WAT     H2 3147   4.560   1.182   8.043
  969WAT      O 3148   2.018   2.464   1.419
  969WAT     H1 3149   1.989   2.370   1.403
  969WAT     H2 3150   1.951   2.509   1.479
  970WAT      O 3151   1.716   0.166   8.348
  970WAT     H1 3152   1.783   0.146   8.420
  970WAT     H2 3153   1.707   0.265   8.338
  971WAT      O 3154   5.320   7.796   7.647
  971WAT     H1 3155   5.417   7.820   7.655
  971WAT     H2 3156   5.297   7.727   7.715
  972WAT      O 3157   6.915   8.228   3.969
  972WAT     H1 3158   6.918   8.315   4.018
  972WAT     H2 3159   6.849   8.235   3.894
  973WAT      O 3160   4.652   9.569   1.352
  973WAT     H1 3161   4.665   9.575   1.451
  973WAT     H2 3162   4.569   9.517   1.333
  974WAT      O 3163   3.257   5.507   0.075
  974WAT     H1 3164   3.274   5.590   0.127
  974WAT     H2 3165   3.340   5.483   0.023
  975WAT      O 3166   1.885   8.500   5.574
  975WAT     H1 3167   1.889   8.571   5.645
  975WAT     H2 3168   1.921   8.415   5.610
  976WAT      O 3169   8.351   1.568   5.699
  976WAT     H1 3170   8.278   1.606   5.641
  976WAT     H2 3171   8.349   1.468   5.694
  977WAT      O 3172   4.212   7.649   2.366
  977WAT     H1 3173   4.247   7.734   2.326
  977WAT     H2 3174   4.132   7.669   2.422
  978WAT      O 3175   5.934   8.456   3.918
  978WAT     H1 3176   5.902   8.392   3.848
  978WAT     H2 3177   5.869   8.531   3.927
  979WAT      O 3178   6.370   9.063   0.140
  979WAT     H1 3179   6.289   9.011   0.169
  979WAT     H2 3180   6.343   9.129   0.071
  980WAT      O 3181   2.885   5.979   8.159
  980WAT     H1 3182   2.793   6.013   8.180
  980WAT     H2 3183   2.877   5.889   8.115
  981WAT      O 3184   5.810   7.077   0.967
  981WAT     H1 3185   5.796   7.136   1.047
  981WAT     H2 3186   5.792   6.982   0.993
  982WAT      O 3187   0.428   5.119   3.909
  982WAT     H1 3188   0.436   5.031   3.862
  982WAT     H2 3189   0.380   5.184   3.850
  983WAT      O 3190   0.311   4.861   7.596
  983WAT     H1 3191   0.252   4.939   7.620
  983WAT     H2 3192   0.254   4.785   7.564
  984WAT      O 3193   1.937   3.095   8.978
  984WAT     H1 3194   1.879   3.167   9.016
  984WAT     H2 3195   1.930   3.013   9.035
  985WAT      O 3196   8.821   3.831   9.267
  985WAT     H1 3197   8.752   3.844   9.338
  985WAT     H2 3198   8.830   3.733   9.247
  986WAT      O 3199   1.902   0.596   8.366
  986WAT     H1 3200   1.969   0.625   8.297
  986WAT     H2 3201   1.950   0.565   8.448
  987WAT      O 3202   0.810   5.971   1.219
  987WAT     H1 3203   0.741   5.951   1.288
  987WAT     H2 3204   0.845   6.064   1.232
  988WAT      O 3205   0.031   6.198   1.570
  988WAT     H1 3206   0.023   6.100   1.555
  988WAT     H2 3207   0.015   6.246   1.483
  989WAT      O 3208   2.474   2.784   6.762
  989WAT     H1 3209   2.573   2.773   6.770
  989WAT     H2 3210   2.430   2.695   6.764
  990WAT      O 3211   1.323   6.522   1.044
  990WAT     H1 3212   1.310   6.436   1.093
  990WAT     H2 3213   1.234   6.566   1.029
  991WAT      O 3214   9.146   6.778   5.750
  991WAT     H1 3215   9.164   6.876   5.758
  991WAT     H2 3216   9.190   6.730   5.827
  992WAT      O 3217   5.586   4.635   9.553
  992WAT     H1 3218   5.624   4.706   9.612
  992WAT     H2 3219   5.566   4.674   9.463
  993WAT      O 3220   7.021   2.340   5.464
  993WAT     H1 3221   7.023   2.321   5.366
  993WAT     H2 3222   7.013   2.254   5.514
  994WAT      O 3223   4.729   9.572   5.069
  994WAT     H1 3224   4.641   9.618   5.057
  994WAT     H2 3225   4.789   9.628   5.126
  995WAT      O 3226   3.549   4.262   7.256
  995WAT     H1 3227   3.494   4.341   7.283
  995WAT     H2 3228   3.522   4.183   7.310
  996WAT      O 3229   8.077   2.972   4.827
  996WAT     H1 3230   8.068   2.878   4.858
  996WAT     H2 3231   8.158   3.013   4.869
  997WAT      O 3232   7.267   4.091   4.349
  997WAT     H1 3233   7.274   4.181   4.393
  997WAT     H2 3234   7.353   4.070   4.303
  998WAT      O 3235   8.894   6.235   3.756
  998WAT     H1 3236   8.924   6.150   3.801
  998WAT     H2 3237   8.910   6.227   3.657
  999WAT      O 3238   7.032   1.914   8.257
  999WAT     H1 3239   6.983   1.830   8.236
  999WAT     H2 3240   7.021   1.936   8.354
 1000WAT      O 3241   6.452   4.923   6.987
 1000WAT     H1 3242   6.426   4.985   6.913
 1000WAT     H2 3243   6.425   4.830   6.964
 1001WAT      O 3244   6.996   6.714   2.162
 1001WAT     H1 3245   6.980   6.636   2.101
 1001WAT     H2 3246   7.024   6.680   2.252
 1002WAT      O 3247   6.968   2.235   2.973
 1002WAT     H1 3248   6.960   2.138   2.949
 1002WAT     H2 3249   7.036   2.278   2.914
 1003WAT      O 3250   1.072   8.755   2.760
 1003WAT     H1 3251   0.974   8.773   2.759
 1003WAT     H2 3252   1.098   8.708   2.675
 1004WAT      O 3253   8.036   7.898   6.773
 1004WAT     H1 3254   8.017   7.839   6.851
 1004WAT     H2 3255   8.062   7.842   6.694
 1005WAT      O 3256   3.310   9.698   9.651
 1005WAT     H1 3257   3.248   9.620   9.642
 1005WAT     H2 3258   3.352   9.697   9.741
 1006WAT      O 3259   0.837   1.686   3.721
 1006WAT     H1 3260   0.737   1.693   3.720
 1006WAT     H2 3261   0.870   1.670   3.628
 1007WAT      O 3262   2.830   1.729   0.070
 1007WAT     H1 3263   2.780   1.651   0.110
 1007WAT     H2 3264   2.901   1.758   0.134
 1008WAT      O 3265   0.826   9.448   4.434
 1008WAT     H1 3266   0.805   9.357   4.470
 1008WAT     H2 3267   0.779   9.517   4.488
 1009WAT      O 3268   4.793   4.710   6.510
 1009WAT     H1 3269   4.735   4.767   6.452
 1009WAT     H2 3270   4.868   4.673   6.456
 1010WAT      O 3271   7.043   9.711   6.673
 1010WAT     H1 3272   7.123   9.768   6.691
 1010WAT     H2 3273   7.072   9.620   6.646
 1011WAT      O 3274   7.176   2.388   6.839
 1011WAT     H1 3275   7.127   2.474   6.823
 1011WAT     H2 3276   7.272   2.408   6.860
 1012WAT      O 3277   6.215   3.942   6.708
 1012WAT     H1 3278   6.257   3.912   6.622
 1012WAT     H2 3279   6.270   3.910   6.785
 1013WAT      O 3280   2.752   0.110   4.892
 1013WAT     H1 3281   2.733   0.140   4.799
 1013WAT     H2 3282   2.802   0.182   4.941
 1014WAT      O 3283   3.664   2.883   4.599
 1014WAT     H1 3284   3.582   2.928   4.563
 1014WAT     H2 3285   3.744   2.942   4.584
 1015WAT      O 3286   4.860   5.210   5.923
 1015WAT     H1 3287   4.801   5.251   5.993
 1015WAT     H2 3288   4.911   5.134   5.962
 1016WAT      O 3289   1.189   5.076   2.645
 1016WAT     H1 3290   1.135   5.006   2.691
 1016WAT     H2 3291   1.164   5.081   2.549
 1017WAT      O 3292   1.892   6.425   2.807
 1017WAT     H1 3293   1.992   6.420   2.802
 1017WAT     H2 3294   1.853   6.371   2.732
 1018WAT      O 3295   3.919   0.994   3.287
 1018WAT     H1 3296   3.944   0.971   3.381
 1018WAT     H2 3297   3.882   0.913   3.242
 1019WAT      O 3298   9.560   7.412   2.574
 1019WAT     H1 3299   9.639   7.440   2.518
 1019WAT     H2 3300   9.589   7.341   2.638
 1020WAT      O 3301   8.657   0.276   0.957
 1020WAT     H1 3302   8.606   0.361   0.964
 1020WAT     H2 3303   8.594   0.198   0.960
 1021WAT      O 3304   7.148   2.692   2.265
 1021WAT     H1 3305   7.127   2.633   2.186
 1021WAT     H2 3306   7.146   2.788   2.236
 1022WAT      O 3307   7.571   4.738   0.898
 1022WAT     H1 3308   7.571   4.640   0.878
 1022WAT     H2 3309   7.602   4.788   0.817
 1023WAT      O 3310   8.437   3.270   0.518
 1023WAT     H1 3311   8.396   3.179   0.510
 1023WAT     H2 3312   8.375   3.330   0.569
 1024WAT      O 3313   3.230   6.436   4.291
 1024WAT     H1 3314   3.267   6.453   4.199
 1024WAT     H2 3315   3.145   6.384   4.284
 1025WAT      O 3316   4.089   8.447   7.835
 1025WAT     H1 3317   3.997   8.452   7.797
 1025WAT     H2 3318   4.144   8.524   7.801
 1026WAT      O 3319   9.332   5.112   2.167
 1026WAT     H1 3320   9.384   5.197   2.158
 1026WAT     H2 3321   9.349   5.054   2.087
 1027WAT      O 3322   6.172   9.239   0.015
 1027WAT     H1 3323   6.072   9.233   0.005
 1027WAT     H2 3324   6.215   9.242  -0.075
 1028WAT      O 3325   1.174   1.999   2.651
 1028WAT     H1 3326   1.123   2.074   2.695
 1028WAT     H2 3327   1.247   1.968   2.712
 1029WAT      O 3328   4.858   5.621   0.125
 1029WAT     H1 3329   4.804   5.704   0.112
 1029WAT     H2 3330   4.820   5.569   0.201
 1030WAT      O 3331   5.487   7.954   3.515
 1030WAT     H1 3332   5.514   8.050   3.502
 1030WAT     H2 3333   5.445   7.919   3.431
 1031WAT      O 3334   4.650   0.697   6.016
 1031WAT     H1 3335   4.721   0.654   5.961
 1031WAT     H2 3336   4.577   0.631   6.034
 1032WAT      O 3337   4.906   9.545   5.998
 1032WAT     H1 3338   4.958   9.471   5.953
 1032WAT     H2 3339   4.913   9.534   6.097
 1033WAT      O 3340   1.853   0.124   8.094
 1033WAT     H1 3341   1.902   0.038   8.082
 1033WAT     H2 3342   1.815   0.128   8.186
 1034WAT      O 3343   3.742   7.245   3.757
 1034WAT     H1 3344   3.755   7.157   3.803
 1034WAT     H2 3345   3.646   7.272   3.764
 1035WAT      O 3346   2.707   1.229   1.561
 1035WAT     H1 3347   2.639   1.283   1.512
 1035WAT     H2 3348   2.728   1.146   1.510
 1036WAT      O 3349   7.595   1.069   0.664
 1036WAT     H1 3350   7.572   0.972   0.665
 1036WAT     H2 3351   7.535   1.117   0.600
 1037WAT      O 3352   6.685   9.782   4.974
 1037WAT     H1 3353   6.701   9.869   5.020
 1037WAT     H2 3354   6.767   9.755   4.923
 1038WAT      O 3355   5.495   3.371   2.758
 1038WAT     H1 3356   5.412   3.320   2.782
 1038WAT     H2 3357   5.474   3.438   2.687
 1039WAT      O 3358   7.514   0.627   9.697
 1039WAT     H1 3359   7.525   0.642   9.795
 1039WAT     H2 3360   7.596   0.583   9.661
 1040WAT      O 3361   0.934   3.198   2.014
 1040WAT     H1 3362   0.879   3.123   2.052
 1040WAT     H2 3363   0.923   3.199   1.915
 1041WAT      O 3364   9.399   5.902   9.794
 1041WAT     H1 3365   9.333   5.972   9.766
 1041WAT     H2 3366   9.453   5.936   9.871
 1042WAT      O 3367   0.954   0.373   4.410
 1042WAT     H1 3368   0.860   0.360   4.377
 1042WAT     H2 3369   0.984   0.292   4.459
 1043WAT      O 3370   6.689   3.328   1.750
 1043WAT     H1 3371   6.629   3.296   1.677
 1043WAT     H2 3372   6.730   3.249   1.796
 1044WAT      O 3373   8.306   3.965   0.590
 1044WAT     H1 3374   8.405   3.958   0.605
 1044WAT     H2 3375   8.289   4.031   0.516
 1045WAT      O 3376   5.378   7.107   1.904
 1045WAT     H1 3377   5.457   7.062   1.863
 1045WAT     H2 3378   5.315   7.136   1.832
 1046WAT      O 3379   7.470   9.047   7.313
 1046WAT     H1 3380   7.430   9.131   7.350
 1046WAT     H2 3381   7.510   9.065   7.224
 1047WAT      O 3382   7.704   5.437   8.222
 1047WAT     H1 3383   7.771   5.439   8.296
 1047WAT     H2 3384   7.751   5.428   8.134
 1048WAT      O 3385   8.244   4.708   8.028
 1048WAT     H1 3386   8.323   4.648   8.015
 1048WAT     H2 3387   8.274   4.803   8.028
 1049WAT      O 3388   2.889   5.489   2.108
 1049WAT     H1 3389   2.962   5.447   2.054
 1049WAT     H2 3390   2.854   5.569   2.060
 1050WAT      O 3391   3.329   3.562   4.354
 1050WAT     H1 3392   3.361   3.653   4.324
 1050WAT     H2 3393   3.398   3.521   4.413
 1051WAT      O 3394   8.640   5.422   8.276
 1051WAT     H1 3395   8.711   5.448   8.342
 1051WAT     H2 3396   8.681   5.408   8.186
 1052WAT      O 3397   2.998   8.628   2.981
 1052WAT     H1 3398   2.943   8.692   3.035
 1052WAT     H2 3399   2.958   8.618   2.890
 1053WAT      O 3400   9.345   8.622   5.855
 1053WAT     H1 3401   9.395   8.536   5.845
 1053WAT     H2 3402   9.251   8.609   5.824
 1054WAT      O 3403   7.268   4.883   9.638
 1054WAT     H1 3404   7.214   4.800   9.649
 1054WAT     H2 3405   7.355   4.860   9.594
 1055WAT      O 3406   3.294   1.377   9.214
 1055WAT     H1 3407   3.370   1.409   9.158
 1055WAT     H2 3408   3.270   1.283   9.187
 1056WAT      O 3409   3.184   5.145   8.085
 1056WAT     H1 3410   3.155   5.051   8.067
 1056WAT     H2 3411   3.155   5.204   8.010
 1057WAT      O 3412   9.605   1.917   8.678
 1057WAT     H1 3413   9.605   1.826   8.636
 1057WAT     H2 3414   9.540   1.918   8.755
 1058WAT      O 3415   1.911   5.827   3.708
 1058WAT     H1 3416   1.861   5.912   3.691
 1058WAT     H2 3417   1.946   5.827   3.802
 1059WAT      O 3418   4.865   0.729   3.157
 1059WAT     H1 3419   4.817   0.801   3.108
 1059WAT     H2 3420   4.947   0.767   3.199
 1060WAT      O 3421   3.039   8.519   5.305
 1060WAT     H1 3422   3.052   8.421   5.294
 1060WAT     H2 3423   3.049   8.564   5.216
 1061WAT      O 3424   8.710   1.947   3.744
 1061WAT     H1 3425   8.719   1.934   3.646
 1061WAT     H2 3426   8.790   1.994   3.780
 1062WAT      O 3427   6.571   1.641   3.316
 1062WAT     H1 3428   6.646   1.575   3.315
 1062WAT     H2 3429   6.483   1.594   3.312
 1063WAT      O 3430   7.493   5.707   2.588
 1063WAT     H1 3431   7.446   5.780   2.637
 1063WAT     H2 3432   7.504   5.628   2.648
 1064WAT      O 3433   5.078   7.890   8.433
 1064WAT     H1 3434   5.094   7.940   8.518
 1064WAT     H2 3435   5.050   7.797   8.454
 1065WAT      O 3436   6.056   3.055   3.975
 1065WAT     H1 3437   6.116   3.032   3.898
 1065WAT     H2 3438   5.998   3.132   3.950
 1066WAT      O 3439   6.705   3.113   7.261
 1066WAT     H1 3440   6.748   3.144   7.347
 1066WAT     H2 3441   6.618   3.069   7.282
 1067WAT      O 3442   5.469   3.537   2.563
 1067WAT     H1 3443   5.438   3.505   2.473
 1067WAT     H2 3444   5.523   3.620   2.551
 1068WAT      O 3445   7.296   8.258   7.656
 1068WAT     H1 3446   7.289   8.165   7.621
 1068WAT     H2 3447   7.365   8.262   7.728
 1069WAT      O 3448   5.731   3.788   9.212
 1069WAT     H1 3449   5.676   3.872   9.205
 1069WAT     H2 3450   5.767   3.765   9.122
 1070WAT      O 3451   8.351   5.996   2.811
 1070WAT     H1 3452   8.332   5.941   2.893
 1070WAT     H2 3453   8.287   5.970   2.738
 1071WAT      O 3454   4.459   1.895   4.154
 1071WAT     H1 3455   4.551   1.920   4.123
 1071WAT     H2 3456   4.418   1.832   4.088
 1072WAT      O 3457   5.064   8.626   7.018
 1072WAT     H1 3458   5.065   8.635   6.918
 1072WAT     H2 3459   4.970   8.636   7.051
 1073WAT      O 3460   9.241   8.126   2.674
 1073WAT     H1 3461   9.195   8.188   2.738
 1073WAT     H2 3462   9.334   8.157   2.658
 1074WAT      O 3463   9.408   6.217   5.171
 1074WAT     H1 3464   9.320   6.232   5.216
 1074WAT     H2 3465   9.481   6.251   5.231
 1075WAT      O 3466   6.470   5.405   5.579
 1075WAT     H1 3467   6.532   5.481   5.557
 1075WAT     H2 3468   6.386   5.414   5.524
 1076WAT      O 3469   2.705   5.825   9.762
 1076WAT     H1 3470   2.677   5.874   9.844
 1076WAT     H2 3471   2.648   5.744   9.750
 1077WAT      O 3472   1.989   8.719   0.326
 1077WAT     H1 3473   2.013   8.816   0.326
 1077WAT     H2 3474   1.897   8.708   0.288
 1078WAT      O 3475   7.306   2.610   2.789
 1078WAT     H1 3476   7.230   2.660   2.830
 1078WAT     H2 3477   7.294   2.607   2.689
 1079WAT      O 3478   4.207   8.744   7.824
 1079WAT     H1 3479   4.210   8.842   7.842
 1079WAT     H2 3480   4.262   8.696   7.893
 1080WAT      O 3481   3.359   6.140   0.286
 1080WAT     H1 3482   3.308   6.135   0.200
 1080WAT     H2 3483   3.312   6.087   0.356
 1081WAT      O 3484   9.637   7.682   8.092
 1081WAT     H1 3485   9.647   7.609   8.160
 1081WAT     H2 3486   9.552   7.667   8.041
 1082WAT      O 3487   4.706   5.205   3.755
 1082WAT     H1 3488   4.729   5.294   3.796
 1082WAT     H2 3489   4.669   5.220   3.663
 1083WAT      O 3490   0.899   2.507   0.809
 1083WAT     H1 3491   0.910   2.592   0.756
 1083WAT     H2 3492   0.886   2.530   0.905
 1084WAT      O 3493   1.213   6.166   5.459
 1084WAT     H1 3494   1.168   6.117   5.385
 1084WAT     H2 3495   1.250   6.252   5.424
 1085WAT      O 3496   3.822   8.525   3.226
 1085WAT     H1 3497   3.822   8.620   3.258
 1085WAT     H2 3498   3.756   8.515   3.152
 1086WAT      O 3499   7.854   7.161   3.059
 1086WAT     H1 3500   7.906   7.233   3.104
 1086WAT     H2 3501   7.758   7.166   3.088
 1087WAT      O 3502   2.767   7.959   2.801
 1087WAT     H1 3503   2.822   8.039   2.828
 1087WAT     H2 3504   2.826   7.892   2.755
 1088WAT      O 3505   7.492   3.055   5.455
 1088WAT     H1 3506   7.455   3.038   5.546
 1088WAT     H2 3507   7.430   3.017   5.386
 1089WAT      O 3508   5.497   1.190   4.880
 1089WAT     H1 3509   5.452   1.189   4.969
 1089WAT     H2 3510   5.464   1.269   4.828
 1090WAT      O 3511   0.616   3.700   6.092
 1090WAT     H1 3512   0.629   3.606   6.125
 1090WAT     H2 3513   0.679   3.761   6.140
 1091WAT      O 3514   3.892   9.718   3.066
 1091WAT     H1 3515   3.918   9.811   3.040
 1091WAT     H2 3516   3.883   9.662   2.984
 1092WAT      O 3517   5.443   2.878   7.084
 1092WAT     H1 3518   5.517   2.870   7.151
 1092WAT     H2 3519   5.446   2.801   7.021
 1093WAT      O 3520   0.088   2.347   7.643
 1093WAT     H1 3521   0.023   2.305   7.706
 1093WAT     H2 3522   0.110   2.282   7.570
 1094WAT      O 3523   9.047   5.072   0.331
 1094WAT     H1 3524   9.009   5.091   0.241
 1094WAT     H2 3525   9.103   4.990   0.327
 1095WAT      O 3526   1.921   9.163   5.422
 1095WAT     H1 3527   1.874   9.111   5.351
 1095WAT     H2 3528   2.014   9.127   5.434
 1096WAT      O 3529   7.712   2.694   6.228
 1096WAT     H1 3530   7.697   2.632   6.151
 1096WAT     H2 3531   7.726   2.641   6.312
 1097WAT      O 3532   0.294   9.750   9.842
 1097WAT     H1 3533   0.348   9.807   9.904
 1097WAT     H2 3534   0.240   9.807   9.781
 1098WAT      O 3535   3.905   1.525   6.597
 1098WAT     H1 3536   3.994   1.491   6.626
 1098WAT     H2 3537   3.853   1.450   6.556
 1099WAT      O 3538   9.426   3.290   5.192
 1099WAT     H1 3539   9.381   3.226   5.129
 1099WAT     H2 3540   9.377   3.377   5.191
 1100WAT      O 3541   4.640   8.435   9.418
 1100WAT     H1 3542   4.650   8.387   9.331
 1100WAT     H2 3543   4.562   8.398   9.468
 1101WAT      O 3544   2.563   3.381   8.722
 1101WAT     H1 3545   2.552   3.289   8.686
 1101WAT     H2 3546   2.658   3.410   8.712
 1102WAT      O 3547   6.525   1.801   9.735
 1102WAT     H1 3548   6.466   1.803   9.654
 1102WAT     H2 3549   6.584   1.721   9.730
 1103WAT      O 3550   6.738   3.365   0.366
 1103WAT     H1 3551   6.796   3.367   0.447
 1103WAT     H2 3552   6.700   3.273   0.354
 1104WAT      O 3553   9.063   6.211   7.003
 1104WAT     H1 3554   9.067   6.238   7.099
 1104WAT     H2 3555   9.152   6.177   6.974
 1105WAT      O 3556   9.095   4.943   1.873
 1105WAT     H1 3557   9.140   4.973   1.789
 1105WAT     H2 3558   9.131   4.854   1.901
 1106WAT      O 3559   1.792   7.026   8.422
 1106WAT     H1 3560   1.871   7.086   8.415
 1106WAT     H2 3561   1.710   7.080   8.439
 1107WAT      O 3562   9.439   1.417   5.700
 1107WAT     H1 3563   9.385   1.440   5.781
 1107WAT     H2 3564   9.378   1.402   5.622
 1108WAT      O 3565   7.667   8.923   7.685
 1108WAT     H1 3566   7.729   8.849   7.660
 1108WAT     H2 3567   7.712   9.011   7.671
 1109WAT      O 3568   4.985   7.413   6.330
 1109WAT     H1 3569   5.065   7.368   6.289
 1109WAT     H2 3570   4.917   7.429   6.259
 1110WAT      O 3571   0.047   4.848   9.307
 1110WAT     H1 3572   0.125   4.899   9.270
 1110WAT     H2 3573  -0.038   4.897   9.286
 1111WAT      O 3574   3.522   6.593   4.205
 1111WAT     H1 3575   3.468   6.608   4.288
 1111WAT     H2 3576   3.469   6.537   4.141
 1112WAT      O 3577   9.024   1.078   1.601
 1112WAT     H1 3578   9.009   1.146   1.672
 1112WAT     H2 3579   9.091   1.112   1.535
 1113WAT      O 3580   9.492   3.012   9.710
 1113WAT     H1 3581   9.491   3.082   9.780
 1113WAT     H2 3582   9.412   2.953   9.720
 1114WAT      O 3583   0.563   9.185   6.550
 1114WAT     H1 3584   0.467   9.160   6.566
 1114WAT     H2 3585   0.597   9.136   6.470
 1115WAT      O 3586   4.499   2.664   7.518
 1115WAT     H1 3587   4.596   2.639   7.515
 1115WAT     H2 3588   4.486   2.751   7.472
 1116WAT      O 3589   6.714   1.016   5.119
 1116WAT     H1 3590   6.749   1.086   5.182
 1116WAT     H2 3591   6.645   0.960   5.165
 1117WAT      O 3592   7.074   6.810   3.834
 1117WAT     H1 3593   7.114   6.850   3.751
 1117WAT     H2 3594   6.990   6.760   3.810
 1118WAT      O 3595   6.883   0.571   9.054
 1118WAT     H1 3596   6.873   0.661   9.011
 1118WAT     H2 3597   6.978   0.555   9.078
 1119WAT      O 3598   0.620   9.484   1.898
 1119WAT     H1 3599   0.552   9.557   1.909
 1119WAT     H2 3600   0.712   9.524   1.899
 1120WAT      O 3601   6.453   1.390   9.012
 1120WAT     H1 3602   6.481   1.296   9.032
 1120WAT     H2 3603   6.474   1.449   9.091
 1121WAT      O 3604   9.338   2.498   3.727
 1121WAT     H1 3605   9.346   2.598   3.718
 1121WAT     H2 3606   9.378   2.470   3.814
 1122WAT      O 3607   5.095   1.987   6.973
 1122WAT     H1 3608   5.077   1.902   7.023
 1122WAT     H2 3609   5.122   2.059   7.038
 1123WAT      O 3610   1.457   0.052   6.898
 1123WAT     H1 3611   1.401   0.128   6.866
 1123WAT     H2 3612   1.493   0.073   6.989
 1124WAT      O 3613   5.059   8.937   5.189
 1124WAT     H1 3614   5.020   8.906   5.102
 1124WAT     H2 3615   4.998   9.003   5.232
 1125WAT      O 3616   2.963   9.241   3.643
 1125WAT     H1 3617   2.934   9.300   3.718
 1125WAT     H2 3618   2.884   9.211   3.591
 1126WAT      O 3619   0.044   0.624   6.815
 1126WAT     H1 3620   0.114   0.634   6.745
 1126WAT     H2 3621   0.067   0.680   6.895
 1127WAT      O 3622   5.693   5.855   5.693
 1127WAT     H1 3623   5.750   5.895   5.621
 1127WAT     H2 3624   5.702   5.755   5.690
 1128WAT      O 3625   6.930   3.936   0.740
 1128WAT     H1 3626   6.832   3.954   0.753
 1128WAT     H2 3627   6.966   3.888   0.820
 1129WAT      O 3628   2.951   5.512   9.692
 1129WAT     H1 3629   2.898   5.485   9.612
 1129WAT     H2 3630   3.003   5.433   9.725
 1130WAT      O 3631   5.599   7.246   3.804
 1130WAT     H1 3632   5.528   7.191   3.760
 1130WAT     H2 3633   5.610   7.332   3.754
 1131WAT      O 3634   3.145   6.789   0.172
 1131WAT     H1 3635   3.123   6.769   0.268
 1131WAT     H2 3636   3.159   6.887   0.161
 1132WAT      O 3637   5.150   6.247   2.414
 1132WAT     H1 3638   5.089   6.202   2.480
 1132WAT     H2 3639   5.099   6.267   2.330
 1133WAT      O 3640   9.360   0.171   2.360
 1133WAT     H1 3641   9.326   0.117   2.437
 1133WAT     H2 3642   9.434   0.122   2.315
 1134WAT      O 3643   6.740   0.778   8.384
 1134WAT     H1 3644   6.658   0.816   8.341
 1134WAT     H2 3645   6.713   0.727   8.467
 1135WAT      O 3646   9.872   7.752   9.038
 1135WAT     H1 3647   9.788   7.760   9.093
 1135WAT     H2 3648   9.889   7.656   9.018
 1136WAT      O 3649   1.320   7.249   8.378
 1136WAT     H1 3650   1.293   7.266   8.473
 1136WAT     H2 3651   1.259   7.180   8.338
 1137WAT      O 3652   3.769   1.132   1.201
 1137WAT     H1 3653   3.830   1.135   1.121
 1137WAT     H2 3654   3.744   1.037   1.220
 1138WAT      O 3655   2.067   3.590   0.056
 1138WAT     H1 3656   2.094   3.497   0.081
 1138WAT     H2 3657   1.968   3.597   0.055
 1139WAT      O 3658   0.324   3.661   3.482
 1139WAT     H1 3659   0.420   3.634   3.467
 1139WAT     H2 3660   0.298   3.729   3.414
 1140WAT      O 3661   3.910   4.824   7.408
 1140WAT     H1 3662   3.898   4.879   7.326
 1140WAT     H2 3663   3.990   4.765   7.398
 1141WAT      O 3664   0.689   3.251   3.211
 1141WAT     H1 3665   0.689   3.324   3.143
 1141WAT     H2 3666   0.711   3.164   3.167
 1142WAT      O 3667   9.702   2.065   3.492
 1142WAT     H1 3668   9.650   2.147   3.515
 1142WAT     H2 3669   9.775   2.052   3.559
 1143WAT      O 3670   7.620   1.228   9.609
 1143WAT     H1 3671   7.563   1.231   9.692
 1143WAT     H2 3672   7.716   1.216   9.635
 1144WAT      O 3673   3.634   4.253   9.634
 1144WAT     H1 3674   3.586   4.276   9.549
 1144WAT     H2 3675   3.723   4.213   9.613
 1145WAT      O 3676   9.340   7.824   2.699
 1145WAT     H1 3677   9.335   7.874   2.612
 1145WAT     H2 3678   9.354   7.727   2.680
 1146WAT      O 3679   9.475   8.653   7.246
 1146WAT     H1 3680   9.416   8.572   7.248
 1146WAT     H2 3681   9.565   8.628   7.209
 1147WAT      O 3682   9.063   7.911   5.191
 1147WAT     H1 3683   9.039   7.823   5.233
 1147WAT     H2 3684   9.124   7.896   5.114
 1148WAT      O 3685   0.918   4.680   4.507
 1148WAT     H1 3686   0.998   4.643   4.553
 1148WAT     H2 3687   0.935   4.776   4.483
 1149WAT      O 3688   0.457   6.944   9.828
 1149WAT     H1 3689   0.496   6.875   9.889
 1149WAT     H2 3690   0.381   6.990   9.874
 1150WAT      O 3691   9.021   1.966   2.296
 1150WAT     H1 3692   9.079   2.046   2.282
 1150WAT     H2 3693   8.933   1.995   2.332
 1151WAT      O 3694   1.873   5.536   7.105
 1151WAT     H1 3695   1.893   5.497   7.195
 1151WAT     H2 3696   1.876   5.465   7.036
 1152WAT      O 3697   2.028   2.174   1.000
 1152WAT     H1 3698   2.019   2.215   0.909
 1152WAT     H2 3699   2.097   2.102   0.998
 1153WAT      O 3700   6.522   3.044   7.839
 1153WAT     H1 3701   6.469   3.082   7.915
 1153WAT     H2 3702   6.619   3.060   7.855
 1154WAT      O 3703   2.730   7.621   5.613
 1154WAT     H1 3704   2.707   7.704   5.563
 1154WAT     H2 3705   2.695   7.541   5.563
 1155WAT      O 3706   6.200   9.464   1.361
 1155WAT     H1 3707   6.155   9.518   1.290
 1155WAT     H2 3708   6.291   9.436   1.329
 1156WAT      O 3709   0.382   4.620   1.978
 1156WAT     H1 3710   0.378   4.527   2.015
 1156WAT     H2 3711   0.466   4.632   1.925
 1157WAT      O 3712   9.479   7.714   2.162
 1157WAT     H1 3713   9.471   7.641   2.094
 1157WAT     H2 3714   9.510   7.676   2.249
 1158WAT      O 3715   7.147   2.888   5.978
 1158WAT     H1 3716   7.102   2.971   5.944
 1158WAT     H2 3717   7.126   2.877   6.076
 1159WAT      O 3718   3.557   0.765   9.304
 1159WAT     H1 3719   3.550   0.665   9.315
 1159WAT     H2 3720   3.536   0.809   9.391
 1160WAT      O 3721   2.853   7.582   8.297
 1160WAT     H1 3722   2.765   7.552   8.333
 1160WAT     H2 3723   2.840   7.629   8.210
 1161WAT      O 3724   0.854   3.573   5.571
 1161WAT     H1 3725   0.852   3.485   5.524
 1161WAT     H2 3726   0.818   3.645   5.511
 1162WAT      O 3727   3.839   8.713   6.665
 1162WAT     H1 3728   3.873   8.678   6.578
 1162WAT     H2 3729   3.873   8.806   6.679
 1163WAT      O 3730   3.978   6.537   3.145
 1163WAT     H1 3731   4.055   6.483   3.112
 1163WAT     H2 3732   3.975   6.624   3.095
 1164WAT      O 3733   7.185   1.438   7.367
 1164WAT     H1 3734   7.147   1.349   7.340
 1164WAT     H2 3735   7.186   1.444   7.467
 1165WAT      O 3736   9.218   5.364   4.206
 1165WAT     H1 3737   9.151   5.290   4.200
 1165WAT     H2 3738   9.272   5.367   4.122
 1166WAT      O 3739   6.395   5.761   7.806
 1166WAT     H1 3740   6.311   5.796   7.848
 1166WAT     H2 3741   6.373   5.715   7.720
 1167WAT      O 3742   4.250   9.170   1.665
 1167WAT     H1 3743   4.322   9.105   1.689
 1167WAT     H2 3744   4.164   9.141   1.707
 1168WAT      O 3745   7.762   6.567   2.792
 1168WAT     H1 3746   7.749   6.571   2.693
 1168WAT     H2 3747   7.696   6.503   2.831
 1169WAT      O 3748   0.639   5.997   9.721
 1169WAT     H1 3749   0.579   5.925   9.686
 1169WAT     H2 3750   0.688   6.040   9.645
 1170WAT      O 3751   7.936   2.330   4.900
 1170WAT     H1 3752   8.029   2.315   4.935
 1170WAT     H2 3753   7.920   2.429   4.892
 1171WAT      O 3754   1.237   5.352   7.738
 1171WAT     H1 3755   1.221   5.341   7.836
 1171WAT     H2 3756   1.253   5.262   7.698
 1172WAT      O 3757   6.432   9.175   8.259
 1172WAT     H1 3758   6.458   9.112   8.332
 1172WAT     H2 3759   6.510   9.193   8.200
 1173WAT      O 3760   4.481   3.657   7.618
 1173WAT     H1 3761   4.557   3.596   7.642
 1173WAT     H2 3762   4.505   3.751   7.642
 1174WAT      O 3763   3.675   1.136   2.437
 1174WAT     H1 3764   3.728   1.051   2.436
 1174WAT     H2 3765   3.581   1.117   2.411
 1175WAT      O 3766   4.263   0.987   6.551
 1175WAT     H1 3767   4.330   1.062   6.552
 1175WAT     H2 3768   4.171   1.026   6.555
 1176WAT      O 3769   7.346   6.707   8.298
 1176WAT     H1 3770   7.394   6.679   8.215
 1176WAT     H2 3771   7.379   6.652   8.376
 1177WAT      O 3772   7.794   2.762   3.610
 1177WAT     H1 3773   7.795   2.675   3.561
 1177WAT     H2 3774   7.833   2.834   3.552
 1178WAT      O 3775   1.648   2.514   5.965
 1178WAT     H1 3776   1.682   2.421   5.975
 1178WAT     H2 3777   1.688   2.572   6.036
 1179WAT      O 3778   3.448   6.170   5.151
 1179WAT     H1 3779   3.387   6.102   5.191
 1179WAT     H2 3780   3.411   6.202   5.065
 1180WAT      O 3781   8.777   2.962   0.556
 1180WAT     H1 3782   8.787   2.922   0.465
 1180WAT     H2 3783   8.687   3.003   0.565
 1181WAT      O 3784   7.499   8.074   6.955
 1181WAT     H1 3785   7.450   7.993   6.986
 1181WAT     H2 3786   7.549   8.114   7.031
 1182WAT      O 3787   5.425   7.826   4.841
 1182WAT     H1 3788   5.490   7.750   4.840
 1182WAT     H2 3789   5.467   7.904   4.888
 1183WAT      O 3790   2.902   1.061   3.585
 1183WAT     H1 3791   2.845   1.045   3.504
 1183WAT     H2 3792   2.906   0.977   3.639
 1184WAT      O 3793   1.410   3.706   3.290
 1184WAT     H1 3794   1.382   3.669   3.379
 1184WAT     H2 3795   1.373   3.799   3.280
 1185WAT      O 3796   9.688   0.156   6.315
 1185WAT     H1 3797   9.719   0.219   6.387
 1185WAT     H2 3798   9.739   0.173   6.231
 1186WAT      O 3799   5.776   6.300   8.158
 1186WAT     H1 3800   5.760   6.321   8.254
 1186WAT     H2 3801   5.704   6.239   8.125
 1187WAT      O 3802   6.543   5.227   5.256
 1187WAT     H1 3803   6.622   5.185   5.300
 1187WAT     H2 3804   6.520   5.176   5.173
 1188WAT      O 3805   2.163   6.802   1.160
 1188WAT     H1 3806   2.128   6.824   1.251
 1188WAT     H2 3807   2.177   6.704   1.152
 1189WAT      O 3808   5.756   3.748   9.476
 1189WAT     H1 3809   5.853   3.748   9.497
 1189WAT     H2 3810   5.742   3.778   9.381
 1190WAT      O 3811   9.766   7.862   5.990
 1190WAT     H1 3812   9.819   7.933   6.036
 1190WAT     H2 3813   9.816   7.776   5.993
 1191WAT      O 3814   0.114   6.843   6.742
 1191WAT     H1 3815   0.056   6.781   6.689
 1191WAT     H2 3816   0.210   6.816   6.732
 1192WAT      O 3817   4.580   9.529   0.016
 1192WAT     H1 3818   4.677   9.552   0.011
 1192WAT     H2 3819   4.549   9.499  -0.075
 1193WAT      O 3820   5.877   6.619   7.773
 1193WAT     H1 3821   5.926   6.536   7.749
 1193WAT     H2 3822   5.786   6.595   7.809
 1194WAT      O 3823   5.880   4.372   4.136
 1194WAT     H1 3824   5.912   4.296   4.079
 1194WAT     H2 3825   5.856   4.450   4.079
 1195WAT      O 3826   3.757   0.995   7.022
 1195WAT     H1 3827   3.700   1.037   7.093
 1195WAT     H2 3828   3.721   1.019   6.932
 1196WAT      O 3829   1.458   8.637   5.410
 1196WAT     H1 3830   1.376   8.602   5.364
 1196WAT     H2 3831   1.431   8.708   5.475
 1197WAT      O 3832   6.283   4.635   5.652
 1197WAT     H1 3833   6.201   4.646   5.708
 1197WAT     H2 3834   6.267   4.564   5.583
 1198WAT      O 3835   1.566   2.180   5.887
 1198WAT     H1 3836   1.471   2.168   5.917
 1198WAT     H2 3837   1.600   2.094   5.849
 1199WAT      O 3838   8.483   2.759   8.980
 1199WAT     H1 3839   8.530   2.774   8.893
 1199WAT     H2 3840   8.522   2.819   9.050
 1200WAT      O 3841   3.398   7.728   5.156
 1200WAT     H1 3842   3.456   7.647   5.152
 1200WAT     H2 3843   3.440   7.796   5.216
 1201WAT      O 3844   7.105   1.367   1.003
 1201WAT     H1 3845   7.093   1.461   1.035
 1201WAT     H2 3846   7.046   1.351   0.925
 1202WAT      O 3847   9.276   2.182   6.280
 1202WAT     H1 3848   9.306   2.277   6.293
 1202WAT     H2 3849   9.337   2.120   6.329
 1203WAT      O 3850   2.689   7.899   1.479
 1203WAT     H1 3851   2.614   7.964   1.476
 1203WAT     H2 3852   2.655   7.808   1.456
 1204WAT      O 3853   8.804   5.804   1.952
 1204WAT     H1 3854   8.767   5.855   1.874
 1204WAT     H2 3855   8.771   5.844   2.037
 1205WAT      O 3856   8.244   1.791   3.928
 1205WAT     H1 3857   8.321   1.728   3.926
 1205WAT     H2 3858   8.187   1.773   4.008
 1206WAT      O 3859   2.622   1.733   3.560
 1206WAT     H1 3860   2.673   1.772   3.483
 1206WAT     H2 3861   2.610   1.802   3.631
 1207WAT      O 3862   3.532   9.642   2.226
 1207WAT     H1 3863   3.616   9.696   2.232
 1207WAT     H2 3864   3.555   9.545   2.226
 1208WAT      O 3865   2.810   4.602   7.879
 1208WAT     H1 3866   2.771   4.537   7.944
 1208WAT     H2 3867   2.736   4.651   7.832
 1209WAT      O 3868   4.209   4.281   2.727
 1209WAT     H1 3869   4.202   4.189   2.766
 1209WAT     H2 3870   4.271   4.336   2.783
 1210WAT      O 3871   1.523   2.145   7.305
 1210WAT     H1 3872   1.450   2.154   7.373
 1210WAT     H2 3873   1.504   2.206   7.228
 1211WAT      O 3874   6.588   0.987   4.073
 1211WAT     H1 3875   6.601   0.895   4.034
 1211WAT     H2 3876   6.515   1.033   4.023
 1212WAT      O 3877   5.308   2.102   9.737
 1212WAT     H1 3878   5.286   2.071   9.830
 1212WAT     H2 3879   5.387   2.051   9.703
 1213WAT      O 3880   6.558   0.281   3.091
 1213WAT     H1 3881   6.623   0.353   3.113
 1213WAT     H2 3882   6.591   0.230   3.011
 1214WAT      O 3883   8.194   9.251   0.699
 1214WAT     H1 3884   8.211   9.156   0.722
 1214WAT     H2 3885   8.164   9.258   0.604
 1215WAT      O 3886   1.344   5.856   8.584
 1215WAT     H1 3887   1.444   5.847   8.580
 1215WAT     H2 3888   1.310   5.803   8.662
 1216WAT      O 3889   5.799   9.769   9.133
 1216WAT     H1 3890   5.743   9.852   9.138
 1216WAT     H2 3891   5.794   9.720   9.220
 1217WAT      O 3892   6.943   9.616   3.731
 1217WAT     H1 3893   6.895   9.674   3.796
 1217WAT     H2 3894   7.032   9.657   3.709
 1218WAT      O 3895   1.504   0.964   6.112
 1218WAT     H1 3896   1.462   0.892   6.057
 1218WAT     H2 3897   1.458   1.051   6.094
 1219WAT      O 3898   7.538   8.166   8.573
 1219WAT     H1 3899   7.624   8.149   8.621
 1219WAT     H2 3900   7.461   8.146   8.634
 1220WAT      O 3901   4.844   4.103   3.540
 1220WAT     H1 3902   4.746   4.123   3.551
 1220WAT     H2 3903   4.896   4.153   3.610
 1221WAT      O 3904   4.883   1.983   7.440
 1221WAT     H1 3905   4.794   1.989   7.486
 1221WAT     H2 3906   4.873   2.013   7.345
 1222WAT      O 3907   3.037   2.595   2.857
 1222WAT     H1 3908   3.026   2.642   2.945
 1222WAT     H2 3909   2.984   2.510   2.858
 1223WAT      O 3910   5.991   2.548   1.730
 1223WAT     H1 3911   6.004   2.473   1.665
 1223WAT     H2 3912   6.071   2.608   1.727
 1224WAT      O 3913   4.807   0.132   2.852
 1224WAT     H1 3914   4.767   0.052   2.809
 1224WAT     H2 3915   4.848   0.105   2.940
 1225WAT      O 3916   2.323   5.058   3.421
 1225WAT     H1 3917   2.362   4.972   3.452
 1225WAT     H2 3918   2.395   5.116   3.383
 1226WAT      O 3919   2.909   0.827   4.182
 1226WAT     H1 3920   2.953   0.834   4.271
 1226WAT     H2 3921   2.978   0.808   4.112
 1227WAT      O 3922   3.075   7.926   1.054
 1227WAT     H1 3923   3.072   8.014   1.101
 1227WAT     H2 3924   3.091   7.853   1.121
 1228WAT      O 3925   4.967   7.058   5.389
 1228WAT     H1 3926   5.061   7.088   5.404
 1228WAT     H2 3927   4.912   7.077   5.470
 1229WAT      O 3928   7.232   8.322   9.086
 1229WAT     H1 3929   7.319   8.334   9.135
 1229WAT     H2 3930   7.159   8.308   9.152
 1230WAT      O 3931   0.756   3.014   4.916
 1230WAT     H1 3932   0.659   3.001   4.899
 1230WAT     H2 3933   0.808   2.939   4.876
 1231WAT      O 3934   8.771   4.715   0.771
 1231WAT     H1 3935   8.676   4.705   0.743
 1231WAT     H2 3936   8.815   4.785   0.714
 1232WAT      O 3937   3.220   7.478   3.660
 1232WAT     H1 3938   3.187   7.573   3.653
 1232WAT     H2 3939   3.186   7.425   3.583
 1233WAT      O 3940   2.169   8.827   8.547
 1233WAT     H1 3941   2.087   8.855   8.498
 1233WAT     H2 3942   2.194   8.897   8.614
 1234WAT      O 3943   3.963   3.723   0.956
 1234WAT     H1 3944   4.032   3.713   0.885
 1234WAT     H2 3945   3.998   3.779   1.030
 1235WAT      O 3946   7.603   3.753   7.205
 1235WAT     H1 3947   7.624   3.690   7.131
 1235WAT     H2 3948   7.548   3.706   7.274
 1236WAT      O 3949   2.577   0.385   8.177
 1236WAT     H1 3950   2.571   0.475   8.220
 1236WAT     H2 3951   2.486   0.352   8.155
 1237WAT      O 3952   1.258   5.016   5.930
 1237WAT     H1 3953   1.229   5.049   6.019
 1237WAT     H2 3954   1.219   5.073   5.858
 1238WAT      O 3955   3.712   6.236   5.144
 1238WAT     H1 3956   3.616   6.220   5.166
 1238WAT     H2 3957   3.770   6.179   5.201
 1239WAT      O 3958   9.234   3.638   7.657
 1239WAT     H1 3959   9.247   3.644   7.756
 1239WAT     H2 3960   9.320   3.660   7.611
 1240WAT      O 3961   1.109   0.636   2.041
 1240WAT     H1 3962   1.042   0.668   2.107
 1240WAT     H2 3963   1.196   0.617   2.088
 1241WAT      O 3964   4.579   3.633   8.882
 1241WAT     H1 3965   4.610   3.708   8.824
 1241WAT     H2 3966   4.560   3.553   8.825
 1242WAT      O 3967   4.753   2.541   0.229
 1242WAT     H1 3968   4.728   2.475   0.159
 1242WAT     H2 3969   4.671   2.572   0.278
 1243WAT      O 3970   1.845   9.407   0.624
 1243WAT     H1 3971   1.772   9.416   0.692
 1243WAT     H2 3972   1.926   9.368   0.666
 1244WAT      O 3973   6.599   6.474   3.154
 1244WAT     H1 3974   6.643   6.559   3.183
 1244WAT     H2 3975   6.655   6.396   3.183
 1245WAT      O 3976   0.842   4.269   8.228
 1245WAT     H1 3977   0.786   4.254   8.146
 1245WAT     H2 3978   0.886   4.183   8.254
 1246WAT      O 3979   0.253   5.017   1.851
 1246WAT     H1 3980   0.230   5.075   1.773
 1246WAT     H2 3981   0.302   5.071   1.920
 1247WAT      O 3982   1.705   0.156   5.871
 1247WAT     H1 3983   1.671   0.231   5.927
 1247WAT     H2 3984   1.746   0.192   5.787
 1248WAT      O 3985   7.720   1.897   0.170
 1248WAT     H1 3986   7.698   1.980   0.220
 1248WAT     H2 3987   7.811   1.905   0.129
 1249WAT      O 3988   7.738   9.267   2.144
 1249WAT     H1 3989   7.796   9.294   2.221
 1249WAT     H2 3990   7.770   9.179   2.108
 1250WAT      O 3991   8.336   4.187   8.458
 1250WAT     H1 3992   8.428   4.215   8.432
 1250WAT     H2 3993   8.301   4.247   8.530
 1251WAT      O 3994   7.557   0.280   9.520
 1251WAT     H1 3995   7.465   0.318   9.525
 1251WAT     H2 3996   7.588   0.281   9.425
 1252WAT      O 3997   7.702   4.679   0.055
 1252WAT     H1 3998   7.782   4.670   0.114
 1252WAT     H2 3999   7.725   4.733  -0.026
 1253WAT      O 4000   4.696   6.102   5.995
 1253WAT     H1 4001   4.620   6.164   5.975
 1253WAT     H2 4002   4.670   6.041   6.070
 1254WAT      O 4003   1.597   3.728   2.998
 1254WAT     H1 4004   1.624   3.786   3.075
 1254WAT     H2 4005   1.553   3.645   3.033
 1255WAT      O 4006   0.803   9.045   4.516
 1255WAT     H1 4007   0.845   9.031   4.427
 1255WAT     H2 4008   0.724   9.106   4.507
 1256WAT      O 4009   4.922   1.142   8.090
 1256WAT     H1 4010   4.827   1.164   8.113
 1256WAT     H2 4011   4.939   1.161   7.994
 1257WAT      O 4012   3.418   6.664   0.525
 1257WAT     H1 4013   3.322   6.678   0.501
 1257WAT     H2 4014   3.466   6.625   0.446
 1258WAT      O 4015   3.182   8.034   3.335
 1258WAT     H1 4016   3.161   8.126   3.301
 1258WAT     H2 4017   3.163   8.031   3.434
 1259WAT      O 4018   1.554   4.138   7.777
 1259WAT     H1 4019   1.505   4.085   7.846
 1259WAT     H2 4020   1.556   4.234   7.804
 1260WAT      O 4021   5.991   0.714   9.286
 1260WAT     H1 4022   6.028   0.715   9.378
 1260WAT     H2 4023   5.891   0.717   9.289
 1261WAT      O 4024   6.025   8.524   1.856
 1261WAT     H1 4025   6.051   8.553   1.949
 1261WAT     H2 4026   6.099   8.544   1.793
 1262WAT      O 4027   2.590   5.094   1.767
 1262WAT     H1 4028   2.539   5.110   1.851
 1262WAT     H2 4029   2.671   5.039   1.787
 1263WAT      O 4030   9.363   4.338   4.412
 1263WAT     H1 4031   9.438   4.309   4.353
 1263WAT     H2 4032   9.383   4.429   4.448
 1264WAT      O 4033   2.548   6.502   6.596
 1264WAT     H1 4034   2.515   6.547   6.679
 1264WAT     H2 4035   2.636   6.541   6.569
 1265WAT      O 4036   3.790   7.846   0.648
 1265WAT     H1 4037   3.879   7.888   0.665
 1265WAT     H2 4038   3.757   7.804   0.732
 1266WAT      O 4039   0.024   4.699   8.867
 1266WAT     H1 4040   0.067   4.609   8.880
 1266WAT     H2 4041   0.016   4.718   8.769
 1267WAT      O 4042   2.716   6.352   8.764
 1267WAT     H1 4043   2.729   6.386   8.671
 1267WAT     H2 4044   2.801   6.309   8.796
 1268WAT      O 4045   1.061   2.517   2.465
 1268WAT     H1 4046   1.027   2.456   2.536
 1268WAT     H2 4047   1.105   2.464   2.393
 1269WAT      O 4048   1.801   2.649   7.733
 1269WAT     H1 4049   1.708   2.681   7.749
 1269WAT     H2 4050   1.818   2.643   7.634
 1270WAT      O 4051   8.877   3.960   1.304
 1270WAT     H1 4052   8.785   3.928   1.324
 1270WAT     H2 4053   8.900   4.036   1.365
 1271WAT      O 4054   1.733   8.984   7.134
 1271WAT     H1 4055   1.639   9.018   7.148
 1271WAT     H2 4056   1.795   9.034   7.195
 1272WAT      O 4057   4.513   5.666   5.925
 1272WAT     H1 4058   4.548   5.658   6.018
 1272WAT     H2 4059   4.420   5.703   5.927
 1273WAT      O 4060   3.234   7.808   6.074
 1273WAT     H1 4061   3.171   7.737   6.105
 1273WAT     H2 4062   3.183   7.879   6.026
 1274WAT      O 4063   1.538   5.602   7.586
 1274WAT     H1 4064   1.548   5.636   7.492
 1274WAT     H2 4065   1.443   5.613   7.615
 1275WAT      O 4066   6.848   2.369   9.647
 1275WAT     H1 4067   6.920   2.387   9.580
 1275WAT     H2 4068   6.765   2.340   9.599
 1276WAT      O 4069   8.565   0.968   8.481
 1276WAT     H1 4070   8.538   0.915   8.401
 1276WAT     H2 4071   8.600   1.057   8.453
 1277WAT      O 4072   4.298   8.650   2.582
 1277WAT     H1 4073   4.388   8.616   2.609
 1277WAT     H2 4074   4.263   8.713   2.651
 1278WAT      O 4075   8.584   5.033   0.323
 1278WAT     H1 4076   8.489   5.002   0.327
 1278WAT     H2 4077   8.602   5.075   0.234
 1279WAT      O 4078   5.708   7.083   8.308
 1279WAT     H1 4079   5.727   7.083   8.210
 1279WAT     H2 4080   5.771   7.146   8.354
 1280WAT      O 4081   9.816   0.225   5.231
 1280WAT     H1 4082   9.839   0.256   5.323
 1280WAT     H2 4083   9.883   0.262   5.166
 1281WAT      O 4084   2.404   2.958   0.971
 1281WAT     H1 4085   2.367   2.910   0.891
 1281WAT     H2 4086   2.361   2.923   1.054
 1282WAT      O 4087   3.017   4.805   6.280
 1282WAT     H1 4088   3.076   4.883   6.261
 1282WAT     H2 4089   2.970   4.777   6.197
 1283WAT      O 4090   0.531   5.890   5.016
 1283WAT     H1 4091   0.558   5.831   5.093
 1283WAT     H2 4092   0.454   5.947   5.043
 1284WAT      O 4093   3.169   5.394   9.176
 1284WAT     H1 4094   3.160   5.465   9.107
 1284WAT     H2 4095   3.263   5.358   9.174
 1285WAT      O 4096   5.066   6.873   8.921
 1285WAT     H1 4097   5.032   6.963   8.896
 1285WAT     H2 4098   5.067   6.814   8.839
 1286WAT      O 4099   3.298   6.850   7.047
 1286WAT     H1 4100   3.319   6.924   7.111
 1286WAT     H2 4101   3.381   6.797   7.029
 1287WAT      O 4102   8.171   7.347   5.377
 1287WAT     H1 4103   8.167   7.334   5.476
 1287WAT     H2 4104   8.148   7.262   5.331
 1288WAT      O 4105   8.105   2.075   0.564
 1288WAT     H1 4106   8.192   2.033   0.588
 1288WAT     H2 4107   8.094   2.076   0.465
 1289WAT      O 4108   6.217   1.839   8.396
 1289WAT     H1 4109   6.216   1.763   8.330
 1289WAT     H2 4110   6.301   1.891   8.385
 1290WAT      O 4111   1.888   0.571   7.188
 1290WAT     H1 4112   1.972   0.530   7.154
 1290WAT     H2 4113   1.864   0.528   7.275
 1291WAT      O 4114   5.155   8.556   8.419
 1291WAT     H1 4115   5.135   8.590   8.327
 1291WAT     H2 4116   5.068   8.535   8.465
 1292WAT      O 4117   3.634   1.839   4.308
 1292WAT     H1 4118   3.658   1.930   4.274
 1292WAT     H2 4119   3.714   1.779   4.300
 1293WAT      O 4120   7.388   0.727   6.668
 1293WAT     H1 4121   7.431   0.802   6.617
 1293WAT     H2 4122   7.290   0.745   6.676
 1294WAT      O 4123   2.014   3.702   9.300
 1294WAT     H1 4124   2.022   3.603   9.288
 1294WAT     H2 4125   2.019   3.725   9.397
 1295WAT      O 4126   9.317   9.324   1.122
 1295WAT     H1 4127   9.358   9.413   1.138
 1295WAT     H2 4128   9.373   9.253   1.166
 1296WAT      O 4129   2.596   0.799   4.561
 1296WAT     H1 4130   2.663   0.778   4.489
 1296WAT     H2 4131   2.564   0.715   4.603
 1297WAT      O 4132   8.494   1.179   2.372
 1297WAT     H1 4133   8.444   1.265   2.366
 1297WAT     H2 4134   8.585   1.196   2.410
 1298WAT      O 4135   8.996   0.403   5.037
 1298WAT     H1 4136   9.050   0.471   5.087
 1298WAT     H2 4137   8.899   0.429   5.040
 1299WAT      O 4138   5.571   4.344   6.747
 1299WAT     H1 4139   5.479   4.329   6.712
 1299WAT     H2 4140   5.627   4.263   6.732
 1300WAT      O 4141   1.071   7.320   9.109
 1300WAT     H1 4142   1.087   7.276   9.197
 1300WAT     H2 4143   1.098   7.416   9.115
 1301WAT      O 4144   3.440   4.575   8.572
 1301WAT     H1 4145   3.357   4.627   8.592
 1301WAT     H2 4146   3.422   4.478   8.589
 1302WAT      O 4147   7.310   4.084   7.707
 1302WAT     H1 4148   7.318   4.082   7.608
 1302WAT     H2 4149   7.252   4.008   7.737
 1303WAT      O 4150   2.841   4.120   2.782
 1303WAT     H1 4151   2.796   4.059   2.846
 1303WAT     H2 4152   2.908   4.176   2.831
 1304WAT      O 4153   7.651   0.333   9.242
 1304WAT     H1 4154   7.608   0.411   9.288
 1304WAT     H2 4155   7.750   0.339   9.252
 1305WAT      O 4156   0.501   1.477   6.671
 1305WAT     H1 4157   0.476   1.469   6.767
 1305WAT     H2 4158   0.520   1.573   6.649
 1306WAT      O 4159   8.957   5.166   5.496
 1306WAT     H1 4160   8.937   5.122   5.584
 1306WAT     H2 4161   9.056   5.177   5.486
 1307WAT      O 4162   7.176   2.563   6.508
 1307WAT     H1 4163   7.239   2.634   6.477
 1307WAT     H2 4164   7.224   2.475   6.513
 1308WAT      O 4165   7.067   9.260   4.938
 1308WAT     H1 4166   7.145   9.303   4.983
 1308WAT     H2 4167   7.030   9.188   4.997
 1309WAT      O 4168   9.012   4.261   8.006
 1309WAT     H1 4169   8.919   4.294   8.025
 1309WAT     H2 4170   9.008   4.188   7.938
 1310WAT      O 4171   8.883   1.344   9.318
 1310WAT     H1 4172   8.924   1.435   9.311
 1310WAT     H2 4173   8.848   1.315   9.229
 1311WAT      O 4174   2.233   0.312   2.092
 1311WAT     H1 4175   2.263   0.220   2.067
 1311WAT     H2 4176   2.134   0.318   2.087
 1312WAT      O 4177   9.159   8.939   6.850
 1312WAT     H1 4178   9.076   8.956   6.904
 1312WAT     H2 4179   9.134   8.897   6.763
 1313WAT      O 4180   3.548   8.248   3.764
 1313WAT     H1 4181   3.509   8.176   3.707
 1313WAT     H2 4182   3.648   8.241   3.762
 1314WAT      O 4183   8.765   4.806   4.145
 1314WAT     H1 4184   8.835   4.752   4.190
 1314WAT     H2 4185   8.724   4.753   4.071
 1315WAT      O 4186   5.125   3.912   5.115
 1315WAT     H1 4187   5.077   3.998   5.131
 1315WAT     H2 4188   5.160   3.911   5.021
 1316WAT      O 4189   8.192   8.608   6.385
 1316WAT     H1 4190   8.186   8.639   6.290
 1316WAT     H2 4191   8.212   8.510   6.387
 1317WAT      O 4192   0.833   4.404   2.948
 1317WAT     H1 4193   0.817   4.325   3.008
 1317WAT     H2 4194   0.852   4.372   2.856
 1318WAT      O 4195   5.322   4.115   1.537
 1318WAT     H1 4196   5.273   4.047   1.482
 1318WAT     H2 4197   5.420   4.106   1.520
 1319WAT      O 4198   7.912   4.160   5.988
 1319WAT     H1 4199   7.890   4.244   5.938
 1319WAT     H2 4200   7.976   4.180   6.062
 1320WAT      O 4201   5.172   8.882   2.547
 1320WAT     H1 4202   5.113   8.805   2.572
 1320WAT     H2 4203   5.201   8.931   2.630
 1321WAT      O 4204   1.514   8.408   6.213
 1321WAT     H1 4205   1.591   8.471   6.211
 1321WAT     H2 4206   1.528   8.341   6.286
 1322WAT      O 4207   4.942   8.642   8.620
 1322WAT     H1 4208   4.909   8.564   8.672
 1322WAT     H2 4209   4.869   8.675   8.559
 1323WAT      O 4210   7.434   2.760   3.175
 1323WAT     H1 4211   7.359   2.794   3.117
 1323WAT     H2 4212   7.471   2.676   3.136
 1324WAT      O 4213   3.400   1.968   6.549
 1324WAT     H1 4214   3.453   2.051   6.535
 1324WAT     H2 4215   3.392   1.919   6.462
 1325WAT      O 4216   5.663   6.329   0.634
 1325WAT     H1 4217   5.616   6.283   0.559
 1325WAT     H2 4218   5.641   6.427   0.633
 1326WAT      O 4219   1.635   7.531   4.160
 1326WAT     H1 4220   1.623   7.432   4.167
 1326WAT     H2 4221   1.697   7.562   4.232
 1327WAT      O 4222   9.262   9.731   1.961
 1327WAT     H1 4223   9.183   9.745   2.020
 1327WAT     H2 4224   9.290   9.818   1.921
 1328WAT      O 4225   6.033   1.839   6.530
 1328WAT     H1 4226   5.960   1.830   6.597
 1328WAT     H2 4227   5.993   1.846   6.438
 1329WAT      O 4228   0.836   7.532   6.267
 1329WAT     H1 4229   0.850   7.590   6.186
 1329WAT     H2 4230   0.925   7.498   6.299
 1330WAT      O 4231   5.028   0.973   6.268
 1330WAT     H1 4232   5.047   0.965   6.170
 1330WAT     H2 4233   5.061   0.891   6.315
 1331WAT      O 4234   2.171   7.519   4.598
 1331WAT     H1 4235   2.210   7.599   4.552
 1331WAT     H2 4236   2.102   7.549   4.665
 1332WAT      O 4237   7.589   0.357   0.713
 1332WAT     H1 4238   7.572   0.451   0.744
 1332WAT     H2 4239   7.626   0.359   0.620
 1333WAT      O 4240   7.621   7.944   7.304
 1333WAT     H1 4241   7.564   7.873   7.345
 1333WAT     H2 4242   7.640   7.922   7.209
 1334WAT      O 4243   6.801   7.406   8.733
 1334WAT     H1 4244   6.870   7.442   8.670
 1334WAT     H2 4245   6.795   7.466   8.813
 1335WAT      O 4246   1.193   5.667   8.985
 1335WAT     H1 4247   1.093   5.666   8.980
 1335WAT     H2 4248   1.223   5.726   9.060
 1336WAT      O 4249   1.367   7.181   5.291
 1336WAT     H1 4250   1.457   7.139   5.298
 1336WAT     H2 4251   1.307   7.124   5.235
 1337WAT      O 4252   8.674   2.225   8.295
 1337WAT     H1 4253   8.621   2.185   8.220
 1337WAT     H2 4254   8.660   2.172   8.378
 1338WAT      O 4255   1.473   9.423   6.599
 1338WAT     H1 4256   1.374   9.431   6.586
 1338WAT     H2 4257   1.500   9.328   6.581
 1339WAT      O 4258   8.415   7.566   4.766
 1339WAT     H1 4259   8.405   7.466   4.763
 1339WAT     H2 4260   8.502   7.589   4.809
 1340WAT      O 4261   3.423   8.300   3.177
 1340WAT     H1 4262   3.422   8.384   3.232
 1340WAT     H2 4263   3.515   8.260   3.178
 1341WAT      O 4264   3.729   4.987   9.323
 1341WAT     H1 4265   3.779   4.996   9.237
 1341WAT     H2 4266   3.635   5.020   9.310
 1342WAT      O 4267   7.649   5.888   6.564
 1342WAT     H1 4268   7.641   5.913   6.660
 1342WAT     H2 4269   7.736   5.921   6.527
 1343WAT      O 4270   8.041   3.571   9.329
 1343WAT     H1 4271   8.067   3.657   9.374
 1343WAT     H2 4272   8.104   3.499   9.358
 1344WAT      O 4273   1.234   4.969   3.073
 1344WAT     H1 4274   1.181   4.966   2.988
 1344WAT     H2 4275   1.304   4.899   3.070
 1345WAT      O 4276   4.154   2.951   3.138
 1345WAT     H1 4277   4.182   3.039   3.178
 1345WAT     H2 4278   4.135   2.886   3.212
 1346WAT      O 4279   3.669   0.495   5.189
 1346WAT     H1 4280   3.743   0.446   5.143
 1346WAT     H2 4281   3.693   0.512   5.285
 1347WAT      O 4282   9.566   7.240   8.374
 1347WAT     H1 4283   9.662   7.221   8.399
 1347WAT     H2 4284   9.506   7.179   8.425
 1348WAT      O 4285   6.038   4.663   9.217
 1348WAT     H1 4286   6.033   4.690   9.121
 1348WAT     H2 4287   6.114   4.710   9.262
 1349WAT      O 4288   0.510   6.390   6.743
 1349WAT     H1 4289   0.586   6.455   6.749
 1349WAT     H2 4290   0.517   6.325   6.819
 1350WAT      O 4291   1.115   1.651   2.207
 1350WAT     H1 4292   1.084   1.565   2.247
 1350WAT     H2 4293   1.092   1.726   2.269
 1351WAT      O 4294   3.920   7.751   8.785
 1351WAT     H1 4295   3.935   7.672   8.844
 1351WAT     H2 4296   3.822   7.761   8.766
 1352WAT      O 4297   1.666   6.665   3.654
 1352WAT     H1 4298   1.653   6.602   3.577
 1352WAT     H2 4299   1.634   6.622   3.738
 1353WAT      O 4300   2.375   1.050   7.715
 1353WAT     H1 4301   2.435   1.024   7.639
 1353WAT     H2 4302   2.430   1.060   7.798
 1354WAT      O 4303   8.473   7.930   4.200
 1354WAT     H1 4304   8.534   7.856   4.175
 1354WAT     H2 4305   8.449   7.922   4.297
 1355WAT      O 4306   7.977   5.096   5.244
 1355WAT     H1 4307   7.926   5.133   5.167
 1355WAT     H2 4308   8.017   5.170   5.297
 1356WAT      O 4309   3.440   1.733   4.946
 1356WAT     H1 4310   3.448   1.831   4.963
 1356WAT     H2 4311   3.531   1.695   4.928
 1357WAT      O 4312   1.131   2.822   5.993
 1357WAT     H1 4313   1.155   2.915   5.966
 1357WAT     H2 4314   1.191   2.792   6.067
 1358WAT      O 4315   9.746   6.784   7.948
 1358WAT     H1 4316   9.672   6.759   8.011
 1358WAT     H2 4317   9.832   6.794   8.000
 1359WAT      O 4318   9.648   1.459   7.817
 1359WAT     H1 4319   9.688   1.530   7.874
 1359WAT     H2 4320   9.676   1.473   7.722
 1360WAT      O 4321   1.104   6.814   7.486
 1360WAT     H1 4322   1.107   6.721   7.450
 1360WAT     H2 4323   1.195   6.856   7.480
 1361WAT      O 4324   3.641   9.543   6.922
 1361WAT     H1 4325   3.628   9.631   6.876
 1361WAT     H2 4326   3.610   9.470   6.863
 1362WAT      O 4327   2.409   8.150   7.256
 1362WAT     H1 4328   2.436   8.204   7.176
 1362WAT     H2 4329   2.310   8.131   7.252
 1363WAT      O 4330   0.911   0.342   8.712
 1363WAT     H1 4331   0.904   0.306   8.804
 1363WAT     H2 4332   0.867   0.432   8.707
 1364WAT      O 4333   4.321   8.580   3.932
 1364WAT     H1 4334   4.334   8.496   3.880
 1364WAT     H2 4335   4.224   8.604   3.933
 1365WAT      O 4336   0.799   0.859   1.815
 1365WAT     H1 4337   0.720   0.844   1.755
 1365WAT     H2 4338   0.874   0.800   1.786
 1366WAT      O 4339   1.731   0.810   8.788
 1366WAT     H1 4340   1.702   0.883   8.851
 1366WAT     H2 4341   1.680   0.726   8.809
 1367WAT      O 4342   3.260   5.348   1.093
 1367WAT     H1 4343   3.230   5.435   1.131
 1367WAT     H2 4344   3.180   5.293   1.066
 1368WAT      O 4345   2.327   3.126   1.448
 1368WAT     H1 4346   2.423   3.124   1.420
 1368WAT     H2 4347   2.319   3.106   1.545
 1369WAT      O 4348   7.040   4.882   8.422
 1369WAT     H1 4349   7.058   4.980   8.435
 1369WAT     H2 4350   7.071   4.832   8.503
 1370WAT      O 4351   0.745   9.690   7.558
 1370WAT     H1 4352   0.835   9.730   7.574
 1370WAT     H2 4353   0.755   9.593   7.537
 1371WAT      O 4354   9.694   0.880   4.206
 1371WAT     H1 4355   9.786   0.866   4.243
 1371WAT     H2 4356   9.688   0.970   4.164
 1372WAT      O 4357   6.480   0.280   4.137
 1372WAT     H1 4358   6.551   0.232   4.085
 1372WAT     H2 4359   6.410   0.214   4.165
 1373WAT      O 4360   1.935   2.790   7.920
 1373WAT     H1 4361   1.895   2.722   7.859
 1373WAT     H2 4362   1.915   2.766   8.015
 1374WAT      O 4363   0.956   5.988   6.690
 1374WAT     H1 4364   0.901   5.965   6.770
 1374WAT     H2 4365   0.897   5.991   6.609
 1375WAT      O 4366   3.842   2.880   9.865
 1375WAT     H1 4367   3.793   2.836   9.939
 1375WAT     H2 4368   3.780   2.896   9.788
 1376WAT      O 4369   2.784   4.788   8.430
 1376WAT     H1 4370   2.739   4.859   8.376
 1376WAT     H2 4371   2.716   4.724   8.464
 1377WAT      O 4372   3.035   4.204   0.049
 1377WAT     H1 4373   3.002   4.229   0.140
 1377WAT     H2 4374   2.960   4.164  -0.004
 1378WAT      O 4375   5.741   9.752   6.559
 1378WAT     H1 4376   5.775   9.658   6.556
 1378WAT     H2 4377   5.778   9.799   6.639
 1379WAT      O 4378   8.421   7.037   8.806
 1379WAT     H1 4379   8.394   7.128   8.776
 1379WAT     H2 4380   8.340   6.977   8.807
 1380WAT      O 4381   2.245   3.128   8.041
 1380WAT     H1 4382   2.184   3.085   7.976
 1380WAT     H2 4383   2.290   3.206   7.998
 1381WAT      O 4384   7.164   1.366   7.638
 1381WAT     H1 4385   7.081   1.325   7.677
 1381WAT     H2 4386   7.232   1.294   7.623
 1382WAT      O 4387   5.708   2.178   8.619
 1382WAT     H1 4388   5.628   2.119   8.627
 1382WAT     H2 4389   5.681   2.266   8.579
 1383WAT      O 4390   9.245   4.816   4.756
 1383WAT     H1 4391   9.249   4.828   4.855
 1383WAT     H2 4392   9.298   4.736   4.730
 1384WAT      O 4393   0.902   3.393   0.121
 1384WAT     H1 4394   0.930   3.317   0.180
 1384WAT     H2 4395   0.838   3.452   0.171
 1385WAT      O 4396   7.334   0.485   6.398
 1385WAT     H1 4397   7.372   0.465   6.307
 1385WAT     H2 4398   7.409   0.499   6.463
 1386WAT      O 4399   9.287   6.649   9.263
 1386WAT     H1 4400   9.194   6.664   9.229
 1386WAT     H2 4401   9.346   6.723   9.231
 1387WAT      O 4402   4.662   1.336   8.761
 1387WAT     H1 4403   4.627   1.429   8.757
 1387WAT     H2 4404   4.586   1.271   8.768
 1388WAT      O 4405   5.177   1.967   1.295
 1388WAT     H1 4406   5.154   1.924   1.383
 1388WAT     H2 4407   5.174   1.897   1.223
 1389WAT      O 4408   9.139   2.851   3.566
 1389WAT     H1 4409   9.135   2.949   3.583
 1389WAT     H2 4410   9.152   2.834   3.469
 1390WAT      O 4411   8.050   4.033   2.700
 1390WAT     H1 4412   8.023   3.942   2.670
 1390WAT     H2 4413   8.129   4.026   2.762
 1391WAT      O 4414   8.664   7.652   6.723
 1391WAT     H1 4415   8.618   7.663   6.635
 1391WAT     H2 4416   8.749   7.601   6.710
 1392WAT      O 4417   7.300   5.702   1.275
 1392WAT     H1 4418   7.261   5.778   1.222
 1392WAT     H2 4419   7.400   5.709   1.276
 1393WAT      O 4420   8.640   6.232   1.408
 1393WAT     H1 4421   8.631   6.277   1.497
 1393WAT     H2 4422   8.551   6.226   1.364
 1394WAT      O 4423   7.276   5.221   2.107
 1394WAT     H1 4424   7.260   5.310   2.150
 1394WAT     H2 4425   7.350   5.229   2.040
 1395WAT      O 4426   5.088   0.037   1.906
 1395WAT     H1 4427   5.011   0.095   1.931
 1395WAT     H2 4428   5.059  -0.028   1.836
 1396WAT      O 4429   9.550   1.674   1.152
 1396WAT     H1 4430   9.528   1.629   1.065
 1396WAT     H2 4431   9.475   1.659   1.217
 1397WAT      O 4432   9.281   1.129   4.065
 1397WAT     H1 4433   9.336   1.071   4.005
 1397WAT     H2 4434   9.200   1.079   4.095
 1398WAT      O 4435   0.921   8.942   2.374
 1398WAT     H1 4436   0.869   8.970   2.455
 1398WAT     H2 4437   1.019   8.953   2.392
 1399WAT      O 4438   2.154   2.128   1.481
 1399WAT     H1 4439   2.202   2.157   1.398
 1399WAT     H2 4440   2.059   2.159   1.477
 1400WAT      O 4441   0.075   5.544   4.819
 1400WAT     H1 4442   0.134   5.499   4.886
 1400WAT     H2 4443   0.090   5.504   4.728
 1401WAT      O 4444   6.442   3.752   7.410
 1401WAT     H1 4445   6.428   3.657   7.436
 1401WAT     H2 4446   6.428   3.763   7.311
 1402WAT      O 4447   9.716   3.359   1.118
 1402WAT     H1 4448   9.798   3.311   1.087
 1402WAT     H2 4449   9.713   3.450   1.075
 1403WAT      O 4450   6.390   3.768   8.303
 1403WAT     H1 4451   6.323   3.695   8.315
 1403WAT     H2 4452   6.371   3.842   8.367
 1404WAT      O 4453   9.358   5.120   0.269
 1404WAT     H1 4454   9.306   5.199   0.301
 1404WAT     H2 4455   9.294   5.050   0.236
 1405WAT      O 4456   2.518   5.406   9.296
 1405WAT     H1 4457   2.450   5.406   9.222
 1405WAT     H2 4458   2.606   5.376   9.261
 1406WAT      O 4459   1.628   5.393   0.324
 1406WAT     H1 4460   1.630   5.444   0.410
 1406WAT     H2 4461   1.537   5.401   0.283
 1407WAT      O 4462   5.674   9.175   8.161
 1407WAT     H1 4463   5.606   9.217   8.220
 1407WAT     H2 4464   5.634   9.160   8.070
 1408WAT      O 4465   1.404   4.885   5.178
 1408WAT     H1 4466   1.434   4.925   5.264
 1408WAT     H2 4467   1.360   4.797   5.195
 1409WAT      O 4468   3.758   0.931   2.112
 1409WAT     H1 4469   3.798   1.001   2.054
 1409WAT     H2 4470   3.735   0.851   2.056
 1410WAT      O 4471   4.337   3.248   5.927
 1410WAT     H1 4472   4.320   3.156   5.893
 1410WAT     H2 4473   4.252   3.300   5.927
 1411WAT      O 4474   1.630   1.100   3.900
 1411WAT     H1 4475   1.584   1.185   3.925
 1411WAT     H2 4476   1.566   1.039   3.854
 1412WAT      O 4477   4.188   0.977   2.178
 1412WAT     H1 4478   4.229   1.063   2.211
 1412WAT     H2 4479   4.148   0.928   2.255
 1413WAT      O 4480   0.837   9.351   1.221
 1413WAT     H1 4481   0.928   9.392   1.214
 1413WAT     H2 4482   0.845   9.256   1.252
 1414WAT      O 4483   0.477   0.543   5.245
 1414WAT     H1 4484   0.480   0.448   5.215
 1414WAT     H2 4485   0.542   0.556   5.320
 1415WAT      O 4486   1.916   4.325   8.870
 1415WAT     H1 4487   2.008   4.328   8.908
 1415WAT     H2 4488   1.867   4.408   8.896
 1416WAT      O 4489   1.146   4.513   7.465
 1416WAT     H1 4490   1.167   4.425   7.507
 1416WAT     H2 4491   1.047   4.525   7.460
 1417WAT      O 4492   2.551   1.401   5.218
 1417WAT     H1 4493   2.478   1.468   5.228
 1417WAT     H2 4494   2.521   1.314   5.259
 1418WAT      O 4495   9.834   0.956   9.828
 1418WAT     H1 4496   9.749   0.985   9.873
 1418WAT     H2 4497   9.822   0.957   9.729
 1419WAT      O 4498   1.215   1.012   2.440
 1419WAT     H1 4499   1.132   1.006   2.496
 1419WAT     H2 4500   1.224   0.930   2.384
 1420WAT      O 4501   4.047   4.253   3.180
 1420WAT     H1 4502   4.064   4.348   3.154
 1420WAT     H2 4503   3.958   4.246   3.225
 1421WAT      O 4504   5.139   9.133   1.800
 1421WAT     H1 4505   5.087   9.129   1.715
 1421WAT     H2 4506   5.220   9.075   1.792
 1422WAT      O 4507   5.575   4.049   2.768
 1422WAT     H1 4508   5.658   3.994   2.777
 1422WAT     H2 4509   5.498   3.989   2.746
 1423WAT      O 4510   5.622   9.063   0.470
 1423WAT     H1 4511   5.701   9.072   0.410
 1423WAT     H2 4512   5.608   9.148   0.520
 1424WAT      O 4513   7.406   3.210   1.929
 1424WAT     H1 4514   7.449   3.285   1.880
 1424WAT     H2 4515   7.425   3.219   2.027
 1425WAT      O 4516   8.918   3.801   2.800
 1425WAT     H1 4517   8.880   3.759   2.882
 1425WAT     H2 4518   8.997   3.748   2.769
 1426WAT      O 4519   6.852   6.986   6.606
 1426WAT     H1 4520   6.755   6.965   6.592
 1426WAT     H2 4521   6.900   6.903   6.635
 1427WAT      O 4522   2.312   6.761   7.711
 1427WAT     H1 4523   2.359   6.679   7.743
 1427WAT     H2 4524   2.315   6.764   7.611
 1428WAT      O 4525   3.346   8.601   1.918
 1428WAT     H1 4526   3.272   8.604   1.850
 1428WAT     H2 4527   3.390   8.511   1.914
 1429WAT      O 4528   7.606   5.753   7.288
 1429WAT     H1 4529   7.522   5.754   7.234
 1429WAT     H2 4530   7.678   5.801   7.237
 1430WAT      O 4531   1.968   3.860   2.187
 1430WAT     H1 4532   2.020   3.777   2.208
 1430WAT     H2 4533   2.021   3.917   2.124
 1431WAT      O 4534   6.898   0.102   3.213
 1431WAT     H1 4535   6.979   0.160   3.214
 1431WAT     H2 4536   6.926   0.007   3.229
 1432WAT      O 4537   8.122   6.850   2.842
 1432WAT     H1 4538   8.027   6.850   2.813
 1432WAT     H2 4539   8.150   6.758   2.869
 1433WAT      O 4540   5.214   5.847   6.570
 1433WAT     H1 4541   5.187   5.926   6.626
 1433WAT     H2 4542   5.133   5.792   6.549
 1434WAT      O 4543   5.615   8.270   1.848
 1434WAT     H1 4544   5.570   8.273   1.759
 1434WAT     H2 4545   5.689   8.204   1.845
 1435WAT      O 4546   7.041   8.906   5.326
 1435WAT     H1 4547   6.995   8.840   5.266
 1435WAT     H2 4548   7.108   8.858   5.383
 1436WAT      O 4549   5.439   9.445   1.962
 1436WAT     H1 4550   5.464   9.416   2.054
 1436WAT     H2 4551   5.447   9.368   1.899
 1437WAT      O 4552   7.018   3.396   9.405
 1437WAT     H1 4553   6.936   3.451   9.392
 1437WAT     H2 4554   7.080   3.444   9.468
 1438WAT      O 4555   2.140   7.939   3.163
 1438WAT     H1 4556   2.152   7.894   3.251
 1438WAT     H2 4557   2.109   8.033   3.177
 1439WAT      O 4558   0.396   4.764   3.551
 1439WAT     H1 4559   0.449   4.834   3.600
 1439WAT     H2 4560   0.353   4.703   3.618
 1440WAT      O 4561   4.934   6.918   3.986
 1440WAT     H1 4562   4.983   6.845   3.938
 1440WAT     H2 4563   4.953   6.913   4.084
 1441WAT      O 4564   1.528   8.112   3.184
 1441WAT     H1 4565   1.613   8.059   3.188
 1441WAT     H2 4566   1.492   8.110   3.091
 1442WAT      O 4567   2.788   5.515   5.515
 1442WAT     H1 4568   2.717   5.460   5.558
 1442WAT     H2 4569   2.753   5.607   5.499
 1443WAT      O 4570   3.354   9.683   0.353
 1443WAT     H1 4571   3.433   9.648   0.402
 1443WAT     H2 4572   3.377   9.697   0.257
 1444WAT      O 4573   8.697   7.579   6.015
 1444WAT     H1 4574   8.744   7.555   6.100
 1444WAT     H2 4575   8.740   7.659   5.974
 1445WAT      O 4576   8.716   7.065   0.827
 1445WAT     H1 4577   8.761   7.134   0.770
 1445WAT     H2 4578   8.660   7.006   0.769
 1446WAT      O 4579   0.394   9.197   0.354
 1446WAT     H1 4580   0.473   9.172   0.297
 1446WAT     H2 4581   0.410   9.167   0.448
 1447WAT      O 4582   5.342   5.967   4.105
 1447WAT     H1 4583   5.361   6.047   4.048
 1447WAT     H2 4584   5.428   5.932   4.141
 1448WAT      O 4585   3.893   4.838   1.830
 1448WAT     H1 4586   3.877   4.744   1.860
 1448WAT     H2 4587   3.914   4.896   1.909
 1449WAT      O 4588   3.811   5.821   4.207
 1449WAT     H1 4589   3.909   5.806   4.203
 1449WAT     H2 4590   3.764   5.737   4.235
 1450WAT      O 4591   1.393   4.782   1.994
 1450WAT     H1 4592   1.314   4.841   2.003
 1450WAT     H2 4593   1.409   4.762   1.897
 1451WAT      O 4594   9.289   4.697   0.721
 1451WAT     H1 4595   9.326   4.790   0.733
 1451WAT     H2 4596   9.364   4.632   0.717
 1452WAT      O 4597   8.815   1.779   8.540
 1452WAT     H1 4598   8.857   1.834   8.468
 1452WAT     H2 4599   8.731   1.738   8.505
 1453WAT      O 4600   7.260   7.459   7.043
 1453WAT     H1 4601   7.286   7.503   7.129
 1453WAT     H2 4602   7.272   7.360   7.051
 1454WAT      O 4603   5.054   1.859   1.038
 1454WAT     H1 4604   5.051   1.762   1.063
 1454WAT     H2 4605   5.086   1.867   0.943
 1455WAT      O 4606   3.308   4.008   2.554
 1455WAT     H1 4607   3.224   4.046   2.593
 1455WAT     H2 4608   3.383   4.072   2.566
 1456WAT      O 4609   3.252   0.592   7.083
 1456WAT     H1 4610   3.321   0.616   7.151
 1456WAT     H2 4611   3.297   0.571   6.996
 1457WAT      O 4612   0.140   7.617   3.977
 1457WAT     H1 4613   0.113   7.633   3.882
 1457WAT     H2 4614   0.189   7.530   3.984
 1458WAT      O 4615   4.032   4.874   1.315
 1458WAT     H1 4616   4.011   4.777   1.301
 1458WAT     H2 4617   4.120   4.882   1.363
 1459WAT      O 4618   3.565   9.208   1.391
 1459WAT     H1 4619   3.499   9.183   1.462
 1459WAT     H2 4620   3.598   9.125   1.346
 1460WAT      O 4621   7.603   1.057   4.912
 1460WAT     H1 4622   7.606   1.067   4.812
 1460WAT     H2 4623   7.691   1.084   4.951
 1461WAT      O 4624   5.550   9.362   0.211
 1461WAT     H1 4625   5.488   9.336   0.285
 1461WAT     H2 4626   5.525   9.453   0.178
 1462WAT      O 4627   3.349   8.552   5.467
 1462WAT     H1 4628   3.369   8.576   5.371
 1462WAT     H2 4629   3.312   8.460   5.471
 1463WAT      O 4630   3.726   2.272   6.261
 1463WAT     H1 4631   3.799   2.236   6.204
 1463WAT     H2 4632   3.755   2.357   6.305
 1464WAT      O 4633   7.011   1.904   0.013
 1464WAT     H1 4634   7.101   1.875  -0.019
 1464WAT     H2 4635   6.944   1.831  -0.005
 1465WAT      O 4636   5.969   1.459   7.889
 1465WAT     H1 4637   6.005   1.387   7.830
 1465WAT     H2 4638   6.029   1.539   7.885
 1466WAT      O 4639   7.761   8.072   2.726
 1466WAT     H1 4640   7.791   8.132   2.652
 1466WAT     H2 4641   7.831   8.067   2.796
 1467WAT      O 4642   9.300   2.691   7.261
 1467WAT     H1 4643   9.251   2.622   7.208
 1467WAT     H2 4644   9.341   2.649   7.341
 1468WAT      O 4645   4.570   7.296   5.833
 1468WAT     H1 4646   4.486   7.249   5.857
 1468WAT     H2 4647   4.574   7.310   5.734
 1469WAT      O 4648   1.049   1.494   4.208
 1469WAT     H1 4649   0.977   1.563   4.220
 1469WAT     H2 4650   1.089   1.472   4.297
 1470WAT      O 4651   9.741   3.227   1.950
 1470WAT     H1 4652   9.697   3.219   1.861
 1470WAT     H2 4653   9.677   3.265   2.016
 1471WAT      O 4654   6.341   5.070   4.080
 1471WAT     H1 4655   6.244   5.049   4.093
 1471WAT     H2 4656   6.374   5.124   4.158
 1472WAT      O 4657   5.947   4.095   9.176
 1472WAT     H1 4658   6.008   4.155   9.123
 1472WAT     H2 4659   6.002   4.037   9.236
 1473WAT      O 4660   3.802   9.360   0.313
 1473WAT     H1 4661   3.824   9.264   0.301
 1473WAT     H2 4662   3.750   9.393   0.235
 1474WAT      O 4663   2.757   5.977   7.756
 1474WAT     H1 4664   2.672   5.948   7.800
 1474WAT     H2 4665   2.820   5.900   7.749
 1475WAT      O 4666   5.038   7.264   8.373
 1475WAT     H1 4667   4.942   7.235   8.371
 1475WAT     H2 4668   5.064   7.284   8.468
 1476WAT      O 4669   4.418   3.070   0.497
 1476WAT     H1 4670   4.340   3.010   0.520
 1476WAT     H2 4671   4.386   3.164   0.491
 1477WAT      O 4672   0.353   3.668   6.402
 1477WAT     H1 4673   0.380   3.764   6.412
 1477WAT     H2 4674   0.317   3.653   6.310
 1478WAT      O 4675   4.646   7.370   2.410
 1478WAT     H1 4676   4.737   7.394   2.378
 1478WAT     H2 4677   4.652   7.324   2.499
 1479WAT      O 4678   7.381   3.527   0.638
 1479WAT     H1 4679   7.455   3.582   0.600
 1479WAT     H2 4680   7.412   3.481   0.721
 1480WAT      O 4681   2.305   7.122   6.287
 1480WAT     H1 4682   2.282   7.060   6.212
 1480WAT     H2 4683   2.293   7.074   6.374
 1481WAT      O 4684   2.855   0.322   7.333
 1481WAT     H1 4685   2.918   0.390   7.295
 1481WAT     H2 4686   2.775   0.316   7.275
 1482WAT      O 4687   7.307   5.087   3.986
 1482WAT     H1 4688   7.327   5.182   3.965
 1482WAT     H2 4689   7.321   5.070   4.083
 1483WAT      O 4690   1.652   5.645   1.214
 1483WAT     H1 4691   1.685   5.551   1.200
 1483WAT     H2 4692   1.730   5.706   1.227
 1484WAT      O 4693   4.113   3.456   1.338
 1484WAT     H1 4694   4.055   3.472   1.258
 1484WAT     H2 4695   4.108   3.359   1.364
 1485WAT      O 4696   3.893   2.009   9.272
 1485WAT     H1 4697   3.810   2.027   9.325
 1485WAT     H2 4698   3.875   1.938   9.205
 1486WAT      O 4699   5.778   2.835   3.813
 1486WAT     H1 4700   5.712   2.909   3.821
 1486WAT     H2 4701   5.835   2.832   3.895
 1487WAT      O 4702   6.840   8.448   5.017
 1487WAT     H1 4703   6.924   8.418   4.971
 1487WAT     H2 4704   6.822   8.543   4.994
 1488WAT      O 4705   8.873   9.323   2.463
 1488WAT     H1 4706   8.818   9.260   2.408
 1488WAT     H2 4707   8.831   9.334   2.553
 1489WAT      O 4708   5.799   7.281   1.167
 1489WAT     H1 4709   5.828   7.252   1.258
 1489WAT     H2 4710   5.829   7.375   1.151
 1490WAT      O 4711   4.364   4.206   1.717
 1490WAT     H1 4712   4.285   4.193   1.776
 1490WAT     H2 4713   4.408   4.294   1.738
 1491WAT      O 4714   0.702   7.726   3.225
 1491WAT     H1 4715   0.714   7.749   3.321
 1491WAT     H2 4716   0.646   7.643   3.217
 1492WAT      O 4717   6.036   9.437   0.740
 1492WAT     H1 4718   5.938   9.427   0.727
 1492WAT     H2 4719   6.063   9.393   0.826
 1493WAT      O 4720   0.838   6.412   5.994
 1493WAT     H1 4721   0.885   6.466   6.064
 1493WAT     H2 4722   0.887   6.420   5.907
 1494WAT      O 4723   1.788   8.109   7.277
 1494WAT     H1 4724   1.712   8.169   7.252
 1494WAT     H2 4725   1.841   8.151   7.351
 1495WAT      O 4726   8.688   6.403   2.480
 1495WAT     H1 4727   8.755   6.435   2.547
 1495WAT     H2 4728   8.722   6.419   2.387
 1496WAT      O 4729   6.088   0.432   4.279
 1496WAT     H1 4730   6.017   0.423   4.210
 1496WAT     H2 4731   6.053   0.486   4.355
 1497WAT      O 4732   6.154   3.230   1.973
 1497WAT     H1 4733   6.133   3.176   1.891
 1497WAT     H2 4734   6.109   3.189   2.053
 1498WAT      O 4735   5.866   2.383   0.514
 1498WAT     H1 4736   5.943   2.440   0.544
 1498WAT     H2 4737   5.785   2.407   0.566
 1499WAT      O 4738   1.554   7.182   2.474
 1499WAT     H1 4739   1.523   7.090   2.449
 1499WAT     H2 4740   1.609   7.219   2.400
 1500WAT      O 4741   4.706   1.862   3.641
 1500WAT     H1 4742   4.646   1.855   3.721
 1500WAT     H2 4743   4.678   1.940   3.585
 1501WAT      O 4744   1.591   3.574   7.254
 1501WAT     H1 4745   1.655   3.559   7.178
 1501WAT     H2 4746   1.640   3.612   7.332
 1502WAT      O 4747   6.925   0.239   7.221
 1502WAT     H1 4748   7.001   0.274   7.275
 1502WAT     H2 4749   6.903   0.303   7.147
 1503WAT      O 4750   4.165   0.229   8.877
 1503WAT     H1 4751   4.149   0.130   8.875
 1503WAT     H2 4752   4.105   0.271   8.945
 1504WAT      O 4753   3.716   0.505   6.485
 1504WAT     H1 4754   3.771   0.505   6.568
 1504WAT     H2 4755   3.687   0.412   6.463
 1505WAT      O 4756   0.705   6.874   8.888
 1505WAT     H1 4757   0.606   6.880   8.901
 1505WAT     H2 4758   0.732   6.779   8.878
 1506WAT      O 4759   3.079   2.666   3.717
 1506WAT     H1 4760   3.169   2.623   3.708
 1506WAT     H2 4761   3.084   2.761   3.687
 1507WAT      O 4762   2.345   1.439   2.891
 1507WAT     H1 4763   2.388   1.394   2.969
 1507WAT     H2 4764   2.408   1.440   2.814
 1508WAT      O 4765   5.404   0.276   7.997
 1508WAT     H1 4766   5.412   0.209   8.070
 1508WAT     H2 4767   5.472   0.348   8.010
 1509WAT      O 4768   6.454   8.172   2.000
 1509WAT     H1 4769   6.546   8.208   2.016
 1509WAT     H2 4770   6.395   8.197   2.076
 1510WAT      O 4771   8.764   0.299   1.388
 1510WAT     H1 4772   8.668   0.275   1.407
 1510WAT     H2 4773   8.804   0.229   1.329
 1511WAT      O 4774   2.599   2.509   7.641
 1511WAT     H1 4775   2.584   2.573   7.716
 1511WAT     H2 4776   2.697   2.489   7.633
 1512WAT      O 4777   1.672   5.572   5.116
 1512WAT     H1 4778   1.578   5.538   5.119
 1512WAT     H2 4779   1.735   5.498   5.139
 1513WAT      O 4780   9.569   2.992   6.012
 1513WAT     H1 4781   9.541   2.931   5.939
 1513WAT     H2 4782   9.587   3.083   5.974
 1514WAT      O 4783   3.334   3.172   2.306
 1514WAT     H1 4784   3.387   3.231   2.245
 1514WAT     H2 4785   3.237   3.193   2.297
 1515WAT      O 4786   7.026   3.500   4.005
 1515WAT     H1 4787   7.109   3.526   3.955
 1515WAT     H2 4788   7.045   3.502   4.103
 1516WAT      O 4789   0.948   8.976   6.092
 1516WAT     H1 4790   0.856   8.936   6.101
 1516WAT     H2 4791   0.991   8.940   6.009
 1517WAT      O 4792   2.591   3.293   5.785
 1517WAT     H1 4793   2.631   3.385   5.784
 1517WAT     H2 4794   2.508   3.293   5.729
 1518WAT      O 4795   9.019   5.958   4.249
 1518WAT     H1 4796   9.039   5.897   4.326
 1518WAT     H2 4797   9.069   5.928   4.168
 1519WAT      O 4798   0.071   8.967   5.350
 1519WAT     H1 4799   0.085   8.897   5.420
 1519WAT     H2 4800  -0.020   9.007   5.361
 1520WAT      O 4801   9.542   2.895   7.497
 1520WAT     H1 4802   9.519   2.943   7.582
 1520WAT     H2 4803   9.505   2.802   7.499
 1521WAT      O 4804   9.302   9.279   8.978
 1521WAT     H1 4805   9.220   9.224   8.965
 1521WAT     H2 4806   9.332   9.274   9.073
 1522WAT      O 4807   0.993   9.005   1.519
 1522WAT     H1 4808   1.067   9.067   1.491
 1522WAT     H2 4809   0.931   9.054   1.580
 1523WAT      O 4810   5.999   5.455   1.023
 1523WAT     H1 4811   5.994   5.555   1.026
 1523WAT     H2 4812   5.914   5.418   0.986
 1524WAT      O 4813   9.661   5.683   2.138
 1524WAT     H1 4814   9.562   5.677   2.129
 1524WAT     H2 4815   9.690   5.778   2.132
 1525WAT      O 4816   9.367   3.281   6.855
 1525WAT     H1 4817   9.441   3.289   6.921
 1525WAT     H2 4818   9.295   3.222   6.893
 1526WAT      O 4819   0.655   7.644   6.535
 1526WAT     H1 4820   0.561   7.636   6.501
 1526WAT     H2 4821   0.693   7.553   6.550
 1527WAT      O 4822   7.127   5.967   6.270
 1527WAT     H1 4823   7.167   5.884   6.229
 1527WAT     H2 4824   7.044   5.942   6.320
 1528WAT      O 4825   8.718   1.977   9.219
 1528WAT     H1 4826   8.618   1.970   9.221
 1528WAT     H2 4827   8.754   1.969   9.312
 1529WAT      O 4828   0.296   5.456   9.169
 1529WAT     H1 4829   0.310   5.476   9.266
 1529WAT     H2 4830   0.383   5.432   9.127
 1530WAT      O 4831   8.155   1.605   6.039
 1530WAT     H1 4832   8.123   1.699   6.052
 1530WAT     H2 4833   8.125   1.571   5.950
 1531WAT      O 4834   3.565   2.181   6.471
 1531WAT     H1 4835   3.614   2.204   6.386
 1531WAT     H2 4836   3.632   2.161   6.543
 1532WAT      O 4837   4.960   1.983   6.142
 1532WAT     H1 4838   4.919   2.067   6.177
 1532WAT     H2 4839   5.052   1.973   6.179
 1533WAT      O 4840   8.506   9.797   7.820
 1533WAT     H1 4841   8.460   9.748   7.746
 1533WAT     H2 4842   8.460   9.776   7.907
 1534WAT      O 4843   8.541   9.067   6.639
 1534WAT     H1 4844   8.632   9.048   6.677
 1534WAT     H2 4845   8.542   9.049   6.540
 1535WAT      O 4846   2.828   4.254   4.565
 1535WAT     H1 4847   2.875   4.341   4.571
 1535WAT     H2 4848   2.894   4.179   4.575
 1536WAT      O 4849   8.625   6.598   9.747
 1536WAT     H1 4850   8.694   6.631   9.813
 1536WAT     H2 4851   8.668   6.588   9.657
 1537WAT      O 4852   1.734   4.204   9.236
 1537WAT     H1 4853   1.648   4.254   9.245
 1537WAT     H2 4854   1.741   4.167   9.143
 1538WAT      O 4855   6.829   8.007   2.007
 1538WAT     H1 4856   6.828   8.093   1.956
 1538WAT     H2 4857   6.842   7.930   1.944
 1539WAT      O 4858   3.738   5.509   5.865
 1539WAT     H1 4859   3.716   5.481   5.959
 1539WAT     H2 4860   3.737   5.430   5.805
 1540WAT      O 4861   6.725   8.011   9.366
 1540WAT     H1 4862   6.709   8.052   9.456
 1540WAT     H2 4863   6.776   8.075   9.309
 1541WAT      O 4864   0.036   1.797   5.642
 1541WAT     H1 4865   0.044   1.701   5.614
 1541WAT     H2 4866   0.018   1.854   5.562
 1542WAT      O 4867   6.391   4.712   3.908
 1542WAT     H1 4868   6.403   4.728   3.810
 1542WAT     H2 4869   6.444   4.779   3.959
 1543WAT      O 4870   4.608   2.394   2.321
 1543WAT     H1 4871   4.691   2.338   2.334
 1543WAT     H2 4872   4.603   2.464   2.393
 1544WAT      O 4873   4.904   3.542   8.704
 1544WAT     H1 4874   4.961   3.571   8.627
 1544WAT     H2 4875   4.954   3.554   8.790
 1545WAT      O 4876   4.749   1.384   2.660
 1545WAT     H1 4877   4.782   1.421   2.572
 1545WAT     H2 4878   4.752   1.456   2.729
 1546WAT      O 4879   6.925   5.765   4.819
 1546WAT     H1 4880   6.937   5.832   4.892
 1546WAT     H2 4881   7.015   5.742   4.780
 1547WAT      O 4882   9.475   1.213   7.301
 1547WAT     H1 4883   9.537   1.143   7.265
 1547WAT     H2 4884   9.381   1.186   7.284
 1548WAT      O 4885   7.639   8.108   7.875
 1548WAT     H1 4886   7.603   8.015   7.878
 1548WAT     H2 4887   7.599   8.162   7.949
 1549WAT      O 4888   8.821   7.946   9.529
 1549WAT     H1 4889   8.793   7.955   9.433
 1549WAT     H2 4890   8.920   7.935   9.534
 1550WAT      O 4891   6.385   6.004   8.498
 1550WAT     H1 4892   6.339   5.945   8.564
 1550WAT     H2 4893   6.480   6.018   8.526
 1551WAT      O 4894   0.336   5.152   7.379
 1551WAT     H1 4895   0.394   5.079   7.344
 1551WAT     H2 4896   0.255   5.161   7.322
 1552WAT      O 4897   3.241   5.904   5.917
 1552WAT     H1 4898   3.259   5.935   5.824
 1552WAT     H2 4899   3.265   5.976   5.982
 1553WAT      O 4900   3.181   8.151   7.870
 1553WAT     H1 4901   3.145   8.079   7.810
 1553WAT     H2 4902   3.112   8.175   7.938
 1554WAT      O 4903   7.439   1.116   9.231
 1554WAT     H1 4904   7.427   1.149   9.137
 1554WAT     H2 4905   7.475   1.191   9.288
 1555WAT      O 4906   1.454   0.008   3.143
 1555WAT     H1 4907   1.462   0.039   3.238
 1555WAT     H2 4908   1.540   0.024   3.095
 1556WAT      O 4909   2.441   8.044   9.292
 1556WAT     H1 4910   2.510   8.087   9.233
 1556WAT     H2 4911   2.407   8.111   9.358
 1557WAT      O 4912   1.609   3.667   6.111
 1557WAT     H1 4913   1.702   3.703   6.102
 1557WAT     H2 4914   1.557   3.688   6.028
 1558WAT      O 4915   3.773   5.048   6.897
 1558WAT     H1 4916   3.767   5.019   6.992
 1558WAT     H2 4917   3.866   5.081   6.877
 1559WAT      O 4918   8.015   6.008   7.297
 1559WAT     H1 4919   8.050   5.987   7.388
 1559WAT     H2 4920   8.070   5.960   7.228
 1560WAT      O 4921   8.467   4.872   8.640
 1560WAT     H1 4922   8.417   4.811   8.578
 1560WAT     H2 4923   8.565   4.863   8.623
 1561WAT      O 4924   6.945   8.221   6.255
 1561WAT     H1 4925   6.864   8.275   6.231
 1561WAT     H2 4926   6.931   8.126   6.228
 1562WAT      O 4927   9.794   7.535   7.844
 1562WAT     H1 4928   9.784   7.476   7.925
 1562WAT     H2 4929   9.791   7.631   7.872
 1563WAT      O 4930   0.286   6.457   0.351
 1563WAT     H1 4931   0.305   6.478   0.255
 1563WAT     H2 4932   0.356   6.394   0.385
 1564WAT      O 4933   2.605   6.870   7.970
 1564WAT     H1 4934   2.681   6.911   8.020
 1564WAT     H2 4935   2.588   6.778   8.006
 1565WAT      O 4936   3.617   6.042   5.759
 1565WAT     H1 4937   3.623   5.986   5.842
 1565WAT     H2 4938   3.522   6.044   5.728
 1566WAT      O 4939   1.325   4.220   6.390
 1566WAT     H1 4940   1.313   4.312   6.426
 1566WAT     H2 4941   1.237   4.183   6.362
 1567WAT      O 4942   4.834   2.125   9.068
 1567WAT     H1 4943   4.775   2.161   9.140
 1567WAT     H2 4944   4.886   2.047   9.103
 1568WAT      O 4945   0.529   3.231   7.648
 1568WAT     H1 4946   0.582   3.314   7.667
 1568WAT     H2 4947   0.584   3.168   7.593
 1569WAT      O 4948   6.085   5.700   8.363
 1569WAT     H1 4949   6.100   5.611   8.407
 1569WAT     H2 4950   6.035   5.760   8.424
 1570WAT      O 4951   2.229   9.142   9.300
 1570WAT     H1 4952   2.310   9.199   9.316
 1570WAT     H2 4953   2.188   9.169   9.213
 1571WAT      O 4954   8.160   2.196   8.685
 1571WAT     H1 4955   8.147   2.108   8.639
 1571WAT     H2 4956   8.096   2.263   8.647
 1572WAT      O 4957   2.955   3.533   1.258
 1572WAT     H1 4958   3.001   3.556   1.343
 1572WAT     H2 4959   2.958   3.434   1.244
 1573WAT      O 4960   2.619   8.029   2.549
 1573WAT     H1 4961   2.539   7.974   2.574
 1573WAT     H2 4962   2.701   7.988   2.589
 1574WAT      O 4963   3.281   4.816   7.549
 1574WAT     H1 4964   3.272   4.760   7.631
 1574WAT     H2 4965   3.325   4.762   7.477
 1575WAT      O 4966   4.063   5.508   2.176
 1575WAT     H1 4967   4.067   5.544   2.269
 1575WAT     H2 4968   3.997   5.561   2.123
 1576WAT      O 4969   5.296   1.801   4.859
 1576WAT     H1 4970   5.264   1.838   4.946
 1576WAT     H2 4971   5.375   1.741   4.874
 1577WAT      O 4972   9.443   3.082   9.235
 1577WAT     H1 4973   9.459   3.178   9.259
 1577WAT     H2 4974   9.480   3.023   9.306
 1578WAT      O 4975   8.368   4.875   7.258
 1578WAT     H1 4976   8.400   4.803   7.196
 1578WAT     H2 4977   8.269   4.887   7.246
 1579WAT      O 4978   7.582   2.594   2.769
 1579WAT     H1 4979   7.483   2.583   2.778
 1579WAT     H2 4980   7.623   2.504   2.754
 1580WAT      O 4981   6.798   0.523   7.857
 1580WAT     H1 4982   6.744   0.481   7.784
 1580WAT     H2 4983   6.865   0.586   7.818
 1581WAT      O 4984   2.849   2.430   6.068
 1581WAT     H1 4985   2.927   2.466   6.016
 1581WAT     H2 4986   2.773   2.494   6.061
 1582WAT      O 4987   7.171   0.428   2.760
 1582WAT     H1 4988   7.189   0.511   2.812
 1582WAT     H2 4989   7.078   0.396   2.780
 1583WAT      O 4990   8.698   1.869   4.591
 1583WAT     H1 4991   8.754   1.789   4.569
 1583WAT     H2 4992   8.720   1.901   4.683
 1584WAT      O 4993   8.436   4.869   1.402
 1584WAT     H1 4994   8.533   4.859   1.378
 1584WAT     H2 4995   8.416   4.810   1.481
 1585WAT      O 4996   5.064   3.066   5.718
 1585WAT     H1 4997   5.157   3.104   5.722
 1585WAT     H2 4998   5.011   3.102   5.795
 1586WAT      O 4999   2.106   4.785   4.658
 1586WAT     H1 5000   2.014   4.748   4.659
 1586WAT     H2 5001   2.161   4.742   4.730
 1587WAT      O 5002   3.850   9.771   4.834
 1587WAT     H1 5003   3.851   9.731   4.742
 1587WAT     H2 5004   3.893   9.861   4.832
 1588WAT      O 5005   6.786   3.754   0.498
 1588WAT     H1 5006   6.736   3.709   0.424
 1588WAT     H2 5007   6.883   3.730   0.492
 1589WAT      O 5008   2.197   3.554   5.320
 1589WAT     H1 5009   2.132   3.499   5.267
 1589WAT     H2 5010   2.186   3.650   5.298
 1590WAT      O 5011   4.913   8.587   3.048
 1590WAT     H1 5012   4.959   8.537   2.975
 1590WAT     H2 5013   4.951   8.679   3.054
 1591WAT      O 5014   1.658   4.465   0.098
 1591WAT     H1 5015   1.598   4.533   0.058
 1591WAT     H2 5016   1.645   4.464   0.198
 1592WAT      O 5017   4.543   6.855   3.071
 1592WAT     H1 5018   4.567   6.912   2.992
 1592WAT     H2 5019   4.464   6.895   3.118
 1593WAT      O 5020   3.306   0.123   2.717
 1593WAT     H1 5021   3.224   0.132   2.661
 1593WAT     H2 5022   3.323   0.208   2.767
 1594WAT      O 5023   5.656   6.406   5.503
 1594WAT     H1 5024   5.642   6.307   5.498
 1594WAT     H2 5025   5.593   6.446   5.569
 1595WAT      O 5026   5.911   2.065   9.617
 1595WAT     H1 5027   5.936   2.070   9.521
 1595WAT     H2 5028   5.860   2.147   9.643
 1596WAT      O 5029   9.810   5.248   9.089
 1596WAT     H1 5030   9.873   5.274   9.016
 1596WAT     H2 5031   9.730   5.307   9.087
 1597WAT      O 5032   0.730   9.226   3.659
 1597WAT     H1 5033   0.813   9.210   3.713
 1597WAT     H2 5034   0.745   9.303   3.597
 1598WAT      O 5035   4.747   1.187   5.128
 1598WAT     H1 5036   4.814   1.256   5.102
 1598WAT     H2 5037   4.691   1.164   5.048
 1599WAT      O 5038   7.315   7.738   6.403
 1599WAT     H1 5039   7.234   7.787   6.433
 1599WAT     H2 5040   7.364   7.793   6.335
 1600WAT      O 5041   8.654   0.278   3.083
 1600WAT     H1 5042   8.580   0.215   3.061
 1600WAT     H2 5043   8.666   0.343   3.008
 1601WAT      O 5044   5.243   5.337   4.352
 1601WAT     H1 5045   5.317   5.372   4.409
 1601WAT     H2 5046   5.277   5.322   4.259
 1602WAT      O 5047   3.268   1.661   8.506
 1602WAT     H1 5048   3.175   1.648   8.540
 1602WAT     H2 5049   3.318   1.574   8.513
 1603WAT      O 5050   5.040   0.578   7.497
 1603WAT     H1 5051   5.033   0.504   7.563
 1603WAT     H2 5052   5.103   0.552   7.424
 1604WAT      O 5053   9.883   5.832   4.958
 1604WAT     H1 5054   9.927   5.847   5.047
 1604WAT     H2 5055   9.922   5.752   4.914
 1605WAT      O 5056   1.938   6.184   7.758
 1605WAT     H1 5057   1.865   6.118   7.771
 1605WAT     H2 5058   1.909   6.254   7.693
 1606WAT      O 5059   2.159   2.925   7.828
 1606WAT     H1 5060   2.244   2.873   7.823
 1606WAT     H2 5061   2.086   2.867   7.864
 1607WAT      O 5062   6.899   8.723   3.598
 1607WAT     H1 5063   6.804   8.728   3.567
 1607WAT     H2 5064   6.901   8.711   3.697
 1608WAT      O 5065   5.200   4.568   6.596
 1608WAT     H1 5066   5.261   4.647   6.595
 1608WAT     H2 5067   5.178   4.542   6.502
 1609WAT      O 5068   3.191   5.166   3.263
 1609WAT     H1 5069   3.208   5.140   3.168
 1609WAT     H2 5070   3.137   5.096   3.308
 1610WAT      O 5071   2.113   4.882   1.250
 1610WAT     H1 5072   2.165   4.834   1.320
 1610WAT     H2 5073   2.058   4.954   1.292
 1611WAT      O 5074   8.572   4.997   5.158
 1611WAT     H1 5075   8.477   5.007   5.128
 1611WAT     H2 5076   8.590   5.059   5.234
 1612WAT      O 5077   5.384   9.429   4.987
 1612WAT     H1 5078   5.297   9.462   5.024
 1612WAT     H2 5079   5.425   9.498   4.928
 1613WAT      O 5080   3.897   8.840   5.108
 1613WAT     H1 5081   3.935   8.751   5.081
 1613WAT     H2 5082   3.948   8.876   5.185
 1614WAT      O 5083   5.890   7.254   3.194
 1614WAT     H1 5084   5.894   7.174   3.135
 1614WAT     H2 5085   5.847   7.229   3.281
 1615WAT      O 5086   6.912   0.098   2.918
 1615WAT     H1 5087   6.918   0.102   3.017
 1615WAT     H2 5088   6.819   0.070   2.891
 1616WAT      O 5089   6.279   5.809   8.693
 1616WAT     H1 5090   6.322   5.739   8.750
 1616WAT     H2 5091   6.197   5.772   8.650
 1617WAT      O 5092   4.610   0.810   6.556
 1617WAT     H1 5093   4.529   0.787   6.610
 1617WAT     H2 5094   4.688   0.758   6.590
 1618WAT      O 5095   6.069   3.811   9.022
 1618WAT     H1 5096   6.010   3.736   9.051
 1618WAT     H2 5097   6.052   3.830   8.925
 1619WAT      O 5098   8.376   5.922   4.242
 1619WAT     H1 5099   8.308   5.987   4.277
 1619WAT     H2 5100   8.457   5.924   4.301
 1620WAT      O 5101   9.552   2.617   9.435
 1620WAT     H1 5102   9.479   2.673   9.396
 1620WAT     H2 5103   9.586   2.554   9.366
 1621WAT      O 5104   6.125   1.818   8.648
 1621WAT     H1 5105   6.160   1.829   8.554
 1621WAT     H2 5106   6.040   1.869   8.658
 1622WAT      O 5107   0.893   7.964   8.802
 1622WAT     H1 5108   0.800   7.954   8.767
 1622WAT     H2 5109   0.936   7.874   8.809
 1623WAT      O 5110   0.320   9.040   5.835
 1623WAT     H1 5111   0.249   9.054   5.765
 1623WAT     H2 5112   0.305   8.951   5.879
 1624WAT      O 5113   4.289   5.658   8.714
 1624WAT     H1 5114   4.268   5.689   8.621
 1624WAT     H2 5115   4.275   5.559   8.720
 1625WAT      O 5116   6.929   8.007   8.237
 1625WAT     H1 5117   6.885   7.997   8.148
 1625WAT     H2 5118   6.859   8.008   8.308
 1626WAT      O 5119   2.073   6.993   7.963
 1626WAT     H1 5120   2.123   7.073   7.995
 1626WAT     H2 5121   2.043   6.939   8.041
 1627WAT      O 5122   2.258   7.439   2.650
 1627WAT     H1 5123   2.205   7.484   2.721
 1627WAT     H2 5124   2.202   7.425   2.568
 1628WAT      O 5125   0.541   9.763   5.899
 1628WAT     H1 5126   0.640   9.754   5.903
 1628WAT     H2 5127   0.499   9.685   5.946
 1629WAT      O 5128   2.231   6.929   3.735
 1629WAT     H1 5129   2.255   6.839   3.701
 1629WAT     H2 5130   2.242   6.932   3.834
 1630WAT      O 5131   4.356   2.308   1.698
 1630WAT     H1 5132   4.393   2.328   1.788
 1630WAT     H2 5133   4.430   2.306   1.631
 1631WAT      O 5134   2.995   3.402   2.649
 1631WAT     H1 5135   2.972   3.427   2.743
 1631WAT     H2 5136   3.093   3.382   2.643
 1632WAT      O 5137   0.461   9.455   7.865
 1632WAT     H1 5138   0.467   9.522   7.791
 1632WAT     H2 5139   0.395   9.384   7.841
 1633WAT      O 5140   3.533   5.798   6.911
 1633WAT     H1 5141   3.583   5.718   6.878
 1633WAT     H2 5142   3.513   5.859   6.835
 1634WAT      O 5143   2.508   0.132   8.943
 1634WAT     H1 5144   2.517   0.177   8.855
 1634WAT     H2 5145   2.480   0.198   9.012
 1635WAT      O 5146   3.416   7.801   3.542
 1635WAT     H1 5147   3.377   7.764   3.458
 1635WAT     H2 5148   3.350   7.792   3.617
 1636WAT      O 5149   1.372   9.675   4.841
 1636WAT     H1 5150   1.311   9.625   4.902
 1636WAT     H2 5151   1.322   9.701   4.758
 1637WAT      O 5152   1.267   7.931   8.851
 1637WAT     H1 5153   1.238   7.986   8.772
 1637WAT     H2 5154   1.237   7.836   8.838
 1638WAT      O 5155   0.576   2.050   7.671
 1638WAT     H1 5156   0.503   2.062   7.739
 1638WAT     H2 5157   0.550   1.979   7.606
 1639WAT      O 5158   4.892   4.349   3.385
 1639WAT     H1 5159   4.920   4.257   3.412
 1639WAT     H2 5160   4.794   4.360   3.403
 1640WAT      O 5161   0.089   7.604   0.533
 1640WAT     H1 5162   0.159   7.663   0.574
 1640WAT     H2 5163   0.001   7.621   0.577
 1641WAT      O 5164   0.571   4.280   0.696
 1641WAT     H1 5165   0.557   4.277   0.795
 1641WAT     H2 5166   0.627   4.203   0.668
 1642WAT      O 5167   1.129   9.454   4.357
 1642WAT     H1 5168   1.122   9.366   4.312
 1642WAT     H2 5169   1.057   9.463   4.426
 1643WAT      O 5170   0.673   9.426   5.387
 1643WAT     H1 5171   0.660   9.451   5.483
 1643WAT     H2 5172   0.614   9.348   5.365
 1644WAT      O 5173   5.752   1.797   9.659
 1644WAT     H1 5174   5.751   1.720   9.595
 1644WAT     H2 5175   5.817   1.867   9.627
 1645WAT      O 5176   7.542   5.689   4.392
 1645WAT     H1 5177   7.454   5.705   4.436
 1645WAT     H2 5178   7.616   5.710   4.456
 1646WAT      O 5179   3.259   5.283   5.570
 1646WAT     H1 5180   3.332   5.332   5.522
 1646WAT     H2 5181   3.291   5.257   5.661
 1647WAT      O 5182   6.772   8.109   7.278
 1647WAT     H1 5183   6.748   8.144   7.187
 1647WAT     H2 5184   6.860   8.062   7.274
 1648WAT      O 5185   3.539   0.316   0.231
 1648WAT     H1 5186   3.470   0.346   0.165
 1648WAT     H2 5187   3.525   0.219   0.252
 1649WAT      O 5188   2.396   2.228   7.444
 1649WAT     H1 5189   2.386   2.191   7.352
 1649WAT     H2 5190   2.420   2.325   7.438
 1650WAT      O 5191   7.271   9.780   2.496
 1650WAT     H1 5192   7.299   9.702   2.552
 1650WAT     H2 5193   7.349   9.815   2.445
 1651WAT      O 5194   3.652   3.295   8.492
 1651WAT     H1 5195   3.667   3.281   8.590
 1651WAT     H2 5196   3.559   3.329   8.477
 1652WAT      O 5197   0.368   1.951   0.838
 1652WAT     H1 5198   0.398   1.952   0.933
 1652WAT     H2 5199   0.404   2.032   0.791
 1653WAT      O 5200   2.508   1.633   5.869
 1653WAT     H1 5201   2.537   1.724   5.898
 1653WAT     H2 5202   2.531   1.621   5.772
 1654WAT      O 5203   5.518   5.169   3.619
 1654WAT     H1 5204   5.446   5.231   3.647
 1654WAT     H2 5205   5.606   5.216   3.620
 1655WAT      O 5206   5.890   9.140   0.810
 1655WAT     H1 5207   5.829   9.203   0.857
 1655WAT     H2 5208   5.917   9.066   0.871
 1656WAT      O 5209   0.461   4.250   6.479
 1656WAT     H1 5210   0.445   4.152   6.471
 1656WAT     H2 5211   0.450   4.277   6.575
 1657WAT      O 5212   2.366   0.429   4.902
 1657WAT     H1 5213   2.295   0.499   4.898
 1657WAT     H2 5214   2.328   0.342   4.870
 1658WAT      O 5215   8.418   2.648   7.761
 1658WAT     H1 5216   8.366   2.595   7.827
 1658WAT     H2 5217   8.466   2.723   7.807
 1659WAT      O 5218   4.361   9.725   3.128
 1659WAT     H1 5219   4.419   9.803   3.153
 1659WAT     H2 5220   4.380   9.699   3.034
 1660WAT      O 5221   8.125   6.055   0.557
 1660WAT     H1 5222   8.125   6.024   0.462
 1660WAT     H2 5223   8.204   6.016   0.604
 1661WAT      O 5224   8.082   1.867   6.078
 1661WAT     H1 5225   7.988   1.886   6.051
 1661WAT     H2 5226   8.145   1.923   6.023
 1662WAT      O 5227   6.798   1.048   4.251
 1662WAT     H1 5228   6.725   1.042   4.183
 1662WAT     H2 5229   6.762   1.024   4.341
 1663WAT      O 5230   5.160   0.211   1.077
 1663WAT     H1 5231   5.111   0.141   1.025
 1663WAT     H2 5232   5.095   0.269   1.125
 1664WAT      O 5233   8.591   7.473   9.662
 1664WAT     H1 5234   8.545   7.556   9.692
 1664WAT     H2 5235   8.534   7.393   9.683
 1665WAT      O 5236   8.918   5.695   1.491
 1665WAT     H1 5237   8.867   5.751   1.426
 1665WAT     H2 5238   8.982   5.753   1.542
 1666WAT      O 5239   4.344   8.413   3.729
 1666WAT     H1 5240   4.440   8.385   3.738
 1666WAT     H2 5241   4.288   8.363   3.794
 1667WAT      O 5242   1.725   2.615   8.684
 1667WAT     H1 5243   1.675   2.685   8.633
 1667WAT     H2 5244   1.806   2.656   8.726
 1668WAT      O 5245   7.242   3.279   4.487
 1668WAT     H1 5246   7.158   3.300   4.538
 1668WAT     H2 5247   7.223   3.282   4.389
 1669WAT      O 5248   6.927   9.510   5.159
 1669WAT     H1 5249   6.973   9.531   5.073
 1669WAT     H2 5250   6.964   9.567   5.232
 1670WAT      O 5251   1.241   6.524   8.133
 1670WAT     H1 5252   1.323   6.578   8.114
 1670WAT     H2 5253   1.160   6.579   8.113
 1671WAT      O 5254   5.473   9.730   6.386
 1671WAT     H1 5255   5.571   9.727   6.408
 1671WAT     H2 5256   5.455   9.810   6.328
 1672WAT      O 5257   6.665   6.427   0.850
 1672WAT     H1 5258   6.570   6.403   0.831
 1672WAT     H2 5259   6.693   6.502   0.791
 1673WAT      O 5260   5.672   4.225   6.035
 1673WAT     H1 5261   5.573   4.235   6.041
 1673WAT     H2 5262   5.695   4.135   5.998
 1674WAT      O 5263   7.016   8.380   9.654
 1674WAT     H1 5264   6.956   8.455   9.679
 1674WAT     H2 5265   7.107   8.395   9.694
 1675WAT      O 5266   2.188   9.335   5.859
 1675WAT     H1 5267   2.165   9.330   5.956
 1675WAT     H2 5268   2.233   9.422   5.839
 1676WAT      O 5269   9.664   5.552   4.940
 1676WAT     H1 5270   9.741   5.547   4.875
 1676WAT     H2 5271   9.586   5.503   4.901
 1677WAT      O 5272   5.163   3.150   3.531
 1677WAT     H1 5273   5.105   3.090   3.476
 1677WAT     H2 5274   5.196   3.100   3.611
 1678WAT      O 5275   0.930   0.966   1.101
 1678WAT     H1 5276   0.931   1.062   1.132
 1678WAT     H2 5277   0.964   0.907   1.175
 1679WAT      O 5278   2.518   2.270   3.336
 1679WAT     H1 5279   2.464   2.265   3.251
 1679WAT     H2 5280   2.456   2.280   3.414
 1680WAT      O 5281   9.241   9.682   4.348
 1680WAT     H1 5282   9.324   9.669   4.294
 1680WAT     H2 5283   9.232   9.606   4.412
 1681WAT      O 5284   6.314   4.624   1.507
 1681WAT     H1 5285   6.287   4.625   1.410
 1681WAT     H2 5286   6.359   4.710   1.529
 1682WAT      O 5287   7.206   5.959   5.450
 1682WAT     H1 5288   7.141   5.901   5.499
 1682WAT     H2 5289   7.168   5.986   5.362
 1683WAT      O 5290   0.680   5.058   0.005
 1683WAT     H1 5291   0.736   5.018   0.078
 1683WAT     H2 5292   0.676   5.157   0.017
 1684WAT      O 5293   1.979   3.203   5.919
 1684WAT     H1 5294   1.909   3.273   5.904
 1684WAT     H2 5295   1.936   3.113   5.918
 1685WAT      O 5296   1.133   5.178   5.729
 1685WAT     H1 5297   1.041   5.198   5.764
 1685WAT     H2 5298   1.146   5.225   5.642
 1686WAT      O 5299   2.213   9.431   1.514
 1686WAT     H1 5300   2.184   9.380   1.433
 1686WAT     H2 5301   2.310   9.413   1.532
 1687WAT      O 5302   1.653   9.797   2.456
 1687WAT     H1 5303   1.690   9.812   2.364
 1687WAT     H2 5304   1.645   9.699   2.474
 1688WAT      O 5305   6.380   9.460   2.041
 1688WAT     H1 5306   6.364   9.477   2.138
 1688WAT     H2 5307   6.305   9.404   2.004
 1689WAT      O 5308   8.579   7.799   1.634
 1689WAT     H1 5309   8.493   7.772   1.676
 1689WAT     H2 5310   8.623   7.719   1.593
 1690WAT      O 5311   2.617   0.233   0.609
 1690WAT     H1 5312   2.518   0.218   0.615
 1690WAT     H2 5313   2.635   0.331   0.598
 1691WAT      O 5314   3.464   4.026   1.204
 1691WAT     H1 5315   3.402   4.052   1.130
 1691WAT     H2 5316   3.557   4.058   1.183
 1692WAT      O 5317   7.557   2.516   1.881
 1692WAT     H1 5318   7.475   2.543   1.932
 1692WAT     H2 5319   7.534   2.502   1.785
 1693WAT      O 5320   7.849   0.628   9.631
 1693WAT     H1 5321   7.906   0.635   9.713
 1693WAT     H2 5322   7.846   0.533   9.600
 1694WAT      O 5323   2.276   9.686   3.310
 1694WAT     H1 5324   2.248   9.633   3.230
 1694WAT     H2 5325   2.240   9.779   3.303
 1695WAT      O 5326   9.174   9.013   7.179
 1695WAT     H1 5327   9.111   8.964   7.120
 1695WAT     H2 5328   9.125   9.082   7.232
 1696WAT      O 5329   9.413   5.426   2.099
 1696WAT     H1 5330   9.382   5.516   2.068
 1696WAT     H2 5331   9.507   5.410   2.069
 1697WAT      O 5332   6.087   3.426   6.115
 1697WAT     H1 5333   6.084   3.464   6.023
 1697WAT     H2 5334   6.112   3.498   6.180
 1698WAT      O 5335   1.342   9.831   7.395
 1698WAT     H1 5336   1.256   9.871   7.428
 1698WAT     H2 5337   1.378   9.887   7.320
 1699WAT      O 5338   8.721   8.539   0.445
 1699WAT     H1 5339   8.625   8.511   0.445
 1699WAT     H2 5340   8.745   8.575   0.355
 1700WAT      O 5341   7.295   4.441   6.660
 1700WAT     H1 5342   7.249   4.529   6.645
 1700WAT     H2 5343   7.228   4.374   6.693
 1701WAT      O 5344   9.417   0.843   2.168
 1701WAT     H1 5345   9.474   0.861   2.248
 1701WAT     H2 5346   9.323   0.870   2.188
 1702WAT      O 5347   5.311   6.388   2.819
 1702WAT     H1 5348   5.336   6.297   2.785
 1702WAT     H2 5349   5.224   6.381   2.869
 1703WAT      O 5350   9.317   3.274   4.097
 1703WAT     H1 5351   9.260   3.351   4.069
 1703WAT     H2 5352   9.311   3.262   4.197
 1704WAT      O 5353   9.531   3.607   8.077
 1704WAT     H1 5354   9.609   3.574   8.129
 1704WAT     H2 5355   9.474   3.666   8.135
 1705WAT      O 5356   0.296   4.837   9.760
 1705WAT     H1 5357   0.373   4.881   9.715
 1705WAT     H2 5358   0.237   4.793   9.692
 1706WAT      O 5359   1.183   6.760   4.508
 1706WAT     H1 5360   1.109   6.821   4.478
 1706WAT     H2 5361   1.155   6.712   4.591
 1707WAT      O 5362   7.417   0.030   5.633
 1707WAT     H1 5363   7.347   0.065   5.570
 1707WAT     H2 5364   7.445   0.103   5.696
 1708WAT      O 5365   5.222   3.758   7.080
 1708WAT     H1 5366   5.310   3.795   7.052
 1708WAT     H2 5367   5.210   3.667   7.041
 1709WAT      O 5368   7.385   9.539   9.887
 1709WAT     H1 5369   7.407   9.627   9.928
 1709WAT     H2 5370   7.469   9.486   9.873
 1710WAT      O 5371   5.752   3.048   2.338
 1710WAT     H1 5372   5.715   3.140   2.328
 1710WAT     H2 5373   5.773   3.031   2.434
 1711WAT      O 5374   1.514   2.185   8.826
 1711WAT     H1 5375   1.450   2.236   8.883
 1711WAT     H2 5376   1.465   2.143   8.749
 1712WAT      O 5377   4.026   4.360   1.537
 1712WAT     H1 5378   4.083   4.397   1.610
 1712WAT     H2 5379   4.075   4.286   1.491
 1713WAT      O 5380   1.881   9.464   4.123
 1713WAT     H1 5381   1.781   9.469   4.129
 1713WAT     H2 5382   1.907   9.413   4.041
 1714WAT      O 5383   3.553   8.770   6.549
 1714WAT     H1 5384   3.649   8.773   6.578
 1714WAT     H2 5385   3.511   8.686   6.584
 1715WAT      O 5386   5.724   3.521   3.549
 1715WAT     H1 5387   5.729   3.424   3.577
 1715WAT     H2 5388   5.761   3.531   3.457
 1716WAT      O 5389   8.112   0.806   5.391
 1716WAT     H1 5390   8.064   0.740   5.449
 1716WAT     H2 5391   8.203   0.772   5.370
 1717WAT      O 5392   1.372   7.090   7.816
 1717WAT     H1 5393   1.303   7.159   7.840
 1717WAT     H2 5394   1.463   7.132   7.819
 1718WAT      O 5395   6.094   5.629   3.293
 1718WAT     H1 5396   6.004   5.621   3.250
 1718WAT     H2 5397   6.082   5.656   3.389
 1719WAT      O 5398   1.350   5.233   7.252
 1719WAT     H1 5399   1.395   5.244   7.163
 1719WAT     H2 5400   1.417   5.200   7.319
 1720WAT      O 5401   5.618   0.734   2.048
 1720WAT     H1 5402   5.553   0.696   1.982
 1720WAT     H2 5403   5.606   0.690   2.137
 1721WAT      O 5404   3.598   5.114   1.573
 1721WAT     H1 5405   3.575   5.125   1.669
 1721WAT     H2 5406   3.659   5.188   1.544
 1722WAT      O 5407   9.452   5.684   6.436
 1722WAT     H1 5408   9.528   5.737   6.399
 1722WAT     H2 5409   9.439   5.707   6.533
 1723WAT      O 5410   3.717   0.262   8.004
 1723WAT     H1 5411   3.710   0.224   7.912
 1723WAT     H2 5412   3.677   0.353   8.006
 1724WAT      O 5413   0.682   4.660   3.275
 1724WAT     H1 5414   0.729   4.589   3.328
 1724WAT     H2 5415   0.712   4.750   3.307
 1725WAT      O 5416   4.921   4.238   9.628
 1725WAT     H1 5417   4.931   4.272   9.534
 1725WAT     H2 5418   4.830   4.262   9.662
 1726WAT      O 5419   1.974   2.176   4.691
 1726WAT     H1 5420   2.034   2.203   4.616
 1726WAT     H2 5421   1.879   2.175   4.659
 1727WAT      O 5422   0.552   8.943   9.330
 1727WAT     H1 5423   0.638   8.975   9.371
 1727WAT     H2 5424   0.533   8.850   9.362
 1728WAT      O 5425   8.211   2.842   7.237
 1728WAT     H1 5426   8.228   2.934   7.202
 1728WAT     H2 5427   8.206   2.777   7.161
 1729WAT      O 5428   7.701   4.877   2.714
 1729WAT     H1 5429   7.749   4.863   2.801
 1729WAT     H2 5430   7.605   4.854   2.725
 1730WAT      O 5431   5.725   0.204   4.230
 1730WAT     H1 5432   5.705   0.286   4.283
 1730WAT     H2 5433   5.813   0.214   4.184
 1731WAT      O 5434   0.792   2.010   9.291
 1731WAT     H1 5435   0.751   1.994   9.381
 1731WAT     H2 5436   0.831   1.925   9.256
 1732WAT      O 5437   4.170   8.572   0.408
 1732WAT     H1 5438   4.220   8.651   0.442
 1732WAT     H2 5439   4.143   8.588   0.313
 1733WAT      O 5440   3.388   5.814   2.295
 1733WAT     H1 5441   3.310   5.803   2.357
 1733WAT     H2 5442   3.375   5.894   2.238
 1734WAT      O 5443   1.941   5.313   6.927
 1734WAT     H1 5444   1.885   5.255   6.869
 1734WAT     H2 5445   2.012   5.258   6.971
 1735WAT      O 5446   6.110   4.491   3.155
 1735WAT     H1 5447   6.144   4.503   3.062
 1735WAT     H2 5448   6.090   4.580   3.195
 1736WAT      O 5449   0.193   9.813   4.826
 1736WAT     H1 5450   0.117   9.843   4.883
 1736WAT     H2 5451   0.276   9.808   4.882
 1737WAT      O 5452   8.545   6.224   4.124
 1737WAT     H1 5453   8.579   6.316   4.107
 1737WAT     H2 5454   8.622   6.164   4.148
 1738WAT      O 5455   8.580   3.392   1.319
 1738WAT     H1 5456   8.515   3.417   1.391
 1738WAT     H2 5457   8.553   3.436   1.233
 1739WAT      O 5458   0.370   6.709   6.573
 1739WAT     H1 5459   0.356   6.613   6.596
 1739WAT     H2 5460   0.396   6.760   6.656
 1740WAT      O 5461   6.002   7.516   6.252
 1740WAT     H1 5462   5.912   7.477   6.271
 1740WAT     H2 5463   6.026   7.501   6.156
 1741WAT      O 5464   3.987   8.359   8.195
 1741WAT     H1 5465   3.976   8.348   8.096
 1741WAT     H2 5466   4.052   8.432   8.213
 1742WAT      O 5467   6.454   1.621   8.886
 1742WAT     H1 5468   6.548   1.653   8.870
 1742WAT     H2 5469   6.457   1.534   8.936
 1743WAT      O 5470   4.633   3.677   7.267
 1743WAT     H1 5471   4.542   3.709   7.293
 1743WAT     H2 5472   4.670   3.737   7.196
 1744WAT      O 5473   2.476   4.496   0.070
 1744WAT     H1 5474   2.568   4.534   0.086
 1744WAT     H2 5475   2.417   4.521   0.147
 1745WAT      O 5476   7.815   9.524   8.783
 1745WAT     H1 5477   7.788   9.605   8.732
 1745WAT     H2 5478   7.746   9.453   8.771
 1746WAT      O 5479   5.825   6.780   6.829
 1746WAT     H1 5480   5.833   6.750   6.735
 1746WAT     H2 5481   5.743   6.836   6.840
 1747WAT      O 5482   3.013   2.582   9.351
 1747WAT     H1 5483   3.069   2.530   9.286
 1747WAT     H2 5484   3.072   2.645   9.402
 1748WAT      O 5485   0.641   0.899   8.465
 1748WAT     H1 5486   0.552   0.889   8.419
 1748WAT     H2 5487   0.705   0.944   8.403
 1749WAT      O 5488   6.754   7.922   1.042
 1749WAT     H1 5489   6.759   7.941   1.140
 1749WAT     H2 5490   6.709   7.998   0.996
 1750WAT      O 5491   7.017   6.332   5.552
 1750WAT     H1 5492   7.113   6.329   5.578
 1750WAT     H2 5493   6.988   6.427   5.542
 1751WAT      O 5494   6.130   2.431   5.036
 1751WAT     H1 5495   6.064   2.472   4.973
 1751WAT     H2 5496   6.104   2.455   5.130
 1752WAT      O 5497   5.603   0.146   7.812
 1752WAT     H1 5498   5.529   0.213   7.815
 1752WAT     H2 5499   5.578   0.065   7.865
 1753WAT      O 5500   0.658   7.380   5.328
 1753WAT     H1 5501   0.708   7.453   5.282
 1753WAT     H2 5502   0.721   7.329   5.388
 1754WAT      O 5503   9.808   6.452   2.212
 1754WAT     H1 5504   9.760   6.460   2.125
 1754WAT     H2 5505   9.896   6.499   2.207
 1755WAT      O 5506   3.556   1.179   0.652
 1755WAT     H1 5507   3.542   1.235   0.733
 1755WAT     H2 5508   3.496   1.211   0.578
 1756WAT      O 5509   4.933   2.394   8.655
 1756WAT     H1 5510   4.872   2.460   8.700
 1756WAT     H2 5511   4.954   2.319   8.717
 1757WAT      O 5512   8.413   9.326   6.601
 1757WAT     H1 5513   8.482   9.254   6.606
 1757WAT     H2 5514   8.362   9.319   6.516
 1758WAT      O 5515   3.129   1.744   3.230
 1758WAT     H1 5516   3.223   1.710   3.230
 1758WAT     H2 5517   3.101   1.766   3.323
 1759WAT      O 5518   2.392   8.339   6.090
 1759WAT     H1 5519   2.459   8.269   6.111
 1759WAT     H2 5520   2.362   8.383   6.175
 1760WAT      O 5521   2.817   7.591   1.436
 1760WAT     H1 5522   2.872   7.647   1.498
 1760WAT     H2 5523   2.876   7.529   1.386
 1761WAT      O 5524   8.633   7.762   2.551
 1761WAT     H1 5525   8.631   7.831   2.623
 1761WAT     H2 5526   8.584   7.797   2.471
 1762WAT      O 5527   4.693   7.935   6.670
 1762WAT     H1 5528   4.772   7.954   6.612
 1762WAT     H2 5529   4.667   7.839   6.661
 1763WAT      O 5530   5.470   7.734   8.207
 1763WAT     H1 5531   5.385   7.727   8.155
 1763WAT     H2 5532   5.548   7.734   8.144
 1764WAT      O 5533   7.023   7.635   7.008
 1764WAT     H1 5534   7.100   7.573   7.024
 1764WAT     H2 5535   6.940   7.582   6.991
 1765WAT      O 5536   9.447   9.805   2.845
 1765WAT     H1 5537   9.397   9.772   2.765
 1765WAT     H2 5538   9.386   9.803   2.925
 1766WAT      O 5539   3.707   2.189   5.158
 1766WAT     H1 5540   3.630   2.233   5.202
 1766WAT     H2 5541   3.703   2.090   5.173
 1767WAT      O 5542   9.507   5.807   8.408
 1767WAT     H1 5543   9.451   5.843   8.333
 1767WAT     H2 5544   9.585   5.758   8.370
 1768WAT      O 5545   0.933   3.587   6.229
 1768WAT     H1 5546   0.846   3.543   6.207
 1768WAT     H2 5547   0.972   3.544   6.311
 1769WAT      O 5548   6.334   7.049   6.203
 1769WAT     H1 5549   6.263   7.117   6.219
 1769WAT     H2 5550   6.410   7.063   6.267
 1770WAT      O 5551   4.546   8.287   2.716
 1770WAT     H1 5552   4.607   8.251   2.787
 1770WAT     H2 5553   4.524   8.214   2.651
 1771WAT      O 5554   6.820   4.824   6.163
 1771WAT     H1 5555   6.833   4.857   6.070
 1771WAT     H2 5556   6.722   4.807   6.179
 1772WAT      O 5557   3.682   6.556   5.914
 1772WAT     H1 5558   3.609   6.490   5.895
 1772WAT     H2 5559   3.703   6.554   6.012
 1773WAT      O 5560   8.348   3.884   7.147
 1773WAT     H1 5561   8.396   3.956   7.097
 1773WAT     H2 5562   8.250   3.889   7.126
 1774WAT      O 5563   3.296   1.949   5.902
 1774WAT     H1 5564   3.285   2.002   5.986
 1774WAT     H2 5565   3.325   1.856   5.925
 1775WAT      O 5566   8.357   3.385   3.194
 1775WAT     H1 5567   8.397   3.301   3.232
 1775WAT     H2 5568   8.347   3.375   3.095
 1776WAT      O 5569   1.711   7.628   1.854
 1776WAT     H1 5570   1.802   7.662   1.831
 1776WAT     H2 5571   1.658   7.702   1.897
 1777WAT      O 5572   4.676   7.827   7.884
 1777WAT     H1 5573   4.735   7.822   7.964
 1777WAT     H2 5574   4.612   7.903   7.893
 1778WAT      O 5575   6.465   1.315   7.962
 1778WAT     H1 5576   6.541   1.276   8.015
 1778WAT     H2 5577   6.430   1.247   7.898
 1779WAT      O 5578   1.319   7.193   9.077
 1779WAT     H1 5579   1.225   7.228   9.075
 1779WAT     H2 5580   1.373   7.246   9.143
 1780WAT      O 5581   8.907   1.231   0.910
 1780WAT     H1 5582   8.910   1.174   0.828
 1780WAT     H2 5583   8.829   1.205   0.967
 1781WAT      O 5584   4.779   2.512   8.831
 1781WAT     H1 5585   4.848   2.512   8.903
 1781WAT     H2 5586   4.731   2.599   8.831
 1782WAT      O 5587   3.847   1.475   0.466
 1782WAT     H1 5588   3.765   1.504   0.416
 1782WAT     H2 5589   3.836   1.496   0.563
 1783WAT      O 5590   6.243   0.706   1.952
 1783WAT     H1 5591   6.236   0.652   2.036
 1783WAT     H2 5592   6.153   0.744   1.929
 1784WAT      O 5593   1.373   4.773   2.919
 1784WAT     H1 5594   1.299   4.710   2.940
 1784WAT     H2 5595   1.368   4.801   2.823
 1785WAT      O 5596   9.713   8.518   9.136
 1785WAT     H1 5597   9.665   8.588   9.083
 1785WAT     H2 5598   9.658   8.436   9.142
 1786WAT      O 5599   4.680   1.555   3.625
 1786WAT     H1 5600   4.673   1.583   3.529
 1786WAT     H2 5601   4.631   1.621   3.682
 1787WAT      O 5602   0.429   7.557   3.187
 1787WAT     H1 5603   0.397   7.608   3.267
 1787WAT     H2 5604   0.362   7.486   3.164
 1788WAT      O 5605   6.886   7.226   7.906
 1788WAT     H1 5606   6.833   7.151   7.946
 1788WAT     H2 5607   6.936   7.192   7.826
 1789WAT      O 5608   0.470   9.631   2.245
 1789WAT     H1 5609   0.567   9.622   2.269
 1789WAT     H2 5610   0.461   9.692   2.167
 1790WAT      O 5611   8.794   5.321   8.968
 1790WAT     H1 5612   8.731   5.273   9.029
 1790WAT     H2 5613   8.812   5.265   8.888
 1791WAT      O 5614   8.790   8.511   3.659
 1791WAT     H1 5615   8.846   8.439   3.618
 1791WAT     H2 5616   8.808   8.598   3.612
 1792WAT      O 5617   5.491   2.682   6.274
 1792WAT     H1 5618   5.559   2.753   6.292
 1792WAT     H2 5619   5.515   2.600   6.326
 1793WAT      O 5620   0.769   9.018   1.867
 1793WAT     H1 5621   0.775   9.078   1.787
 1793WAT     H2 5622   0.818   9.058   1.944
 1794WAT      O 5623   2.929   3.649   8.173
 1794WAT     H1 5624   2.941   3.551   8.163
 1794WAT     H2 5625   2.949   3.695   8.086
 1795WAT      O 5626   2.861   4.402   1.454
 1795WAT     H1 5627   2.954   4.370   1.471
 1795WAT     H2 5628   2.796   4.342   1.500
 1796WAT      O 5629   6.566   7.057   2.222
 1796WAT     H1 5630   6.541   6.996   2.147
 1796WAT     H2 5631   6.611   7.138   2.186
 1797WAT      O 5632   7.724   2.698   4.128
 1797WAT     H1 5633   7.804   2.753   4.107
 1797WAT     H2 5634   7.748   2.627   4.195
 1798WAT      O 5635   8.251   8.983   6.702
 1798WAT     H1 5636   8.239   8.886   6.721
 1798WAT     H2 5637   8.348   9.006   6.712
 1799WAT      O 5638   8.680   1.127   8.761
 1799WAT     H1 5639   8.581   1.138   8.772
 1799WAT     H2 5640   8.716   1.071   8.836
 1800WAT      O 5641   3.012   2.350   2.224
 1800WAT     H1 5642   2.917   2.326   2.203
 1800WAT     H2 5643   3.014   2.420   2.295
 1801WAT      O 5644   7.058   5.860   1.581
 1801WAT     H1 5645   6.988   5.930   1.572
 1801WAT     H2 5646   7.141   5.889   1.532
 1802WAT      O 5647   3.543   8.990   2.896
 1802WAT     H1 5648   3.560   8.913   2.835
 1802WAT     H2 5649   3.565   8.964   2.990
 1803WAT      O 5650   8.445   4.329   4.285
 1803WAT     H1 5651   8.476   4.244   4.243
 1803WAT     H2 5652   8.497   4.346   4.368
 1804WAT      O 5653   5.998   2.134   3.316
 1804WAT     H1 5654   5.943   2.082   3.251
 1804WAT     H2 5655   6.064   2.073   3.361
 1805WAT      O 5656   9.662   5.470   9.040
 1805WAT     H1 5657   9.749   5.513   9.060
 1805WAT     H2 5658   9.607   5.531   8.982
 1806WAT      O 5659   7.021   2.606   6.791
 1806WAT     H1 5660   6.922   2.618   6.778
 1806WAT     H2 5661   7.070   2.646   6.713
 1807WAT      O 5662   4.766   2.594   7.145
 1807WAT     H1 5663   4.781   2.531   7.221
 1807WAT     H2 5664   4.776   2.544   7.058
 1808WAT      O 5665   8.706   3.076   6.627
 1808WAT     H1 5666   8.803   3.094   6.646
 1808WAT     H2 5667   8.695   3.050   6.532
 1809WAT      O 5668   2.927   5.986   9.695
 1809WAT     H1 5669   2.847   5.936   9.728
 1809WAT     H2 5670   3.007   5.926   9.697
 1810WAT      O 5671   0.041   2.907   6.041
 1810WAT     H1 5672   0.109   2.834   6.038
 1810WAT     H2 5673   0.087   2.995   6.054
 1811WAT      O 5674   4.473   9.364   4.706
 1811WAT     H1 5675   4.445   9.276   4.668
 1811WAT     H2 5676   4.472   9.433   4.633
 1812WAT      O 5677   9.371   6.480   7.256
 1812WAT     H1 5678   9.351   6.578   7.245
 1812WAT     H2 5679   9.288   6.427   7.237
 1813WAT      O 5680   2.359   3.729   3.884
 1813WAT     H1 5681   2.441   3.673   3.894
 1813WAT     H2 5682   2.278   3.671   3.883
 1814WAT      O 5683   4.247   7.139   3.438
 1814WAT     H1 5684   4.307   7.063   3.462
 1814WAT     H2 5685   4.179   7.153   3.510
 1815WAT      O 5686   8.910   4.046   9.135
 1815WAT     H1 5687   8.870   3.972   9.189
 1815WAT     H2 5688   8.850   4.068   9.059
 1816WAT      O 5689   6.892   1.713   8.512
 1816WAT     H1 5690   6.940   1.799   8.531
 1816WAT     H2 5691   6.916   1.645   8.581
 1817WAT      O 5692   7.329   9.509   4.621
 1817WAT     H1 5693   7.325   9.459   4.708
 1817WAT     H2 5694   7.317   9.607   4.638
 1818WAT      O 5695   8.635   7.824   7.568
 1818WAT     H1 5696   8.687   7.768   7.633
 1818WAT     H2 5697   8.543   7.840   7.604
 1819WAT      O 5698   9.137   1.168   8.746
 1819WAT     H1 5699   9.065   1.233   8.720
 1819WAT     H2 5700   9.096   1.079   8.765
 1820WAT      O 5701   7.675   0.763   0.411
 1820WAT     H1 5702   7.671   0.859   0.381
 1820WAT     H2 5703   7.751   0.751   0.474
 1821WAT      O 5704   0.529   2.911   0.135
 1821WAT     H1 5705   0.431   2.907   0.119
 1821WAT     H2 5706   0.573   2.960   0.059
 1822WAT      O 5707   7.499   4.608   8.437
 1822WAT     H1 5708   7.470   4.645   8.349
 1822WAT     H2 5709   7.555   4.526   8.423
 1823WAT      O 5710   5.443   2.612   3.691
 1823WAT     H1 5711   5.447   2.684   3.760
 1823WAT     H2 5712   5.534   2.600   3.651
 1824WAT      O 5713   4.610   7.980   5.690
 1824WAT     H1 5714   4.632   8.017   5.780
 1824WAT     H2 5715   4.687   7.925   5.657
 1825WAT      O 5716   8.586   1.880   7.535
 1825WAT     H1 5717   8.641   1.961   7.558
 1825WAT     H2 5718   8.636   1.797   7.562
 1826WAT      O 5719   7.936   2.411   1.653
 1826WAT     H1 5720   8.022   2.367   1.628
 1826WAT     H2 5721   7.860   2.359   1.614
 1827WAT      O 5722   9.144   4.478   0.843
 1827WAT     H1 5723   9.175   4.569   0.818
 1827WAT     H2 5724   9.100   4.434   0.764
 1828WAT      O 5725   2.572   8.653   3.511
 1828WAT     H1 5726   2.565   8.628   3.414
 1828WAT     H2 5727   2.659   8.620   3.548
 1829WAT      O 5728   4.610   0.733   5.167
 1829WAT     H1 5729   4.668   0.783   5.231
 1829WAT     H2 5730   4.583   0.646   5.207
 1830WAT      O 5731   8.885   8.689   1.393
 1830WAT     H1 5732   8.794   8.727   1.408
 1830WAT     H2 5733   8.927   8.733   1.314
 1831WAT      O 5734   6.177   8.553   5.632
 1831WAT     H1 5735   6.235   8.535   5.552
 1831WAT     H2 5736   6.081   8.556   5.603
 1832WAT      O 5737   2.127   5.615   9.829
 1832WAT     H1 5738   2.175   5.668   9.899
 1832WAT     H2 5739   2.180   5.616   9.744
 1833WAT      O 5740   5.669   3.049   8.668
 1833WAT     H1 5741   5.737   2.987   8.708
 1833WAT     H2 5742   5.611   3.086   8.740
 1834WAT      O 5743   8.316   6.185   9.857
 1834WAT     H1 5744   8.282   6.192   9.951
 1834WAT     H2 5745   8.379   6.260   9.838
 1835WAT      O 5746   0.357   8.430   0.962
 1835WAT     H1 5747   0.303   8.375   1.026
 1835WAT     H2 5748   0.409   8.370   0.902
 1836WAT      O 5749   3.747   4.965   1.194
 1836WAT     H1 5750   3.717   4.912   1.115
 1836WAT     H2 5751   3.843   4.944   1.214
 1837WAT      O 5752   8.544   0.118   1.750
 1837WAT     H1 5753   8.542   0.029   1.795
 1837WAT     H2 5754   8.603   0.179   1.802
 1838WAT      O 5755   0.744   6.327   1.089
 1838WAT     H1 5756   0.829   6.274   1.080
 1838WAT     H2 5757   0.681   6.301   1.017
 1839WAT      O 5758   2.749   3.836   3.713
 1839WAT     H1 5759   2.838   3.868   3.679
 1839WAT     H2 5760   2.756   3.816   3.811
 1840WAT      O 5761   4.606   8.703   0.766
 1840WAT     H1 5762   4.656   8.790   0.768
 1840WAT     H2 5763   4.573   8.681   0.858
 1841WAT      O 5764   6.177   9.329   1.872
 1841WAT     H1 5765   6.132   9.245   1.903
 1841WAT     H2 5766   6.111   9.386   1.823
 1842WAT      O 5767   1.788   2.511   8.267
 1842WAT     H1 5768   1.700   2.547   8.237
 1842WAT     H2 5769   1.856   2.584   8.266
 1843WAT      O 5770   9.174   1.574   5.053
 1843WAT     H1 5771   9.229   1.526   4.985
 1843WAT     H2 5772   9.164   1.670   5.027
 1844WAT      O 5773   3.457   9.416   6.219
 1844WAT     H1 5774   3.511   9.402   6.302
 1844WAT     H2 5775   3.516   9.451   6.147
 1845WAT      O 5776   2.580   6.190   3.949
 1845WAT     H1 5777   2.680   6.193   3.956
 1845WAT     H2 5778   2.554   6.130   3.873
 1846WAT      O 5779   8.185   9.732   1.952
 1846WAT     H1 5780   8.091   9.763   1.969
 1846WAT     H2 5781   8.229   9.711   2.039
 1847WAT      O 5782   8.041   6.708   3.657
 1847WAT     H1 5783   8.126   6.672   3.618
 1847WAT     H2 5784   7.975   6.724   3.584
 1848WAT      O 5785   6.251   3.289   8.459
 1848WAT     H1 5786   6.308   3.241   8.525
 1848WAT     H2 5787   6.297   3.373   8.430
 1849WAT      O 5788   9.294   0.296   8.015
 1849WAT     H1 5789   9.386   0.290   8.054
 1849WAT     H2 5790   9.261   0.390   8.022
 1850WAT      O 5791   7.477   7.342   7.497
 1850WAT     H1 5792   7.416   7.265   7.478
 1850WAT     H2 5793   7.456   7.379   7.587
 1851WAT      O 5794   1.639   3.322   2.973
 1851WAT     H1 5795   1.704   3.255   3.009
 1851WAT     H2 5796   1.603   3.377   3.048
 1852WAT      O 5797   5.129   1.813   1.516
 1852WAT     H1 5798   5.181   1.798   1.599
 1852WAT     H2 5799   5.037   1.777   1.527
 1853WAT      O 5800   0.359   8.331   5.090
 1853WAT     H1 5801   0.263   8.305   5.089
 1853WAT     H2 5802   0.374   8.407   5.027
 1854WAT      O 5803   6.731   3.891   9.470
 1854WAT     H1 5804   6.739   3.832   9.550
 1854WAT     H2 5805   6.665   3.852   9.406
 1855WAT      O 5806   7.921   6.390   6.646
 1855WAT     H1 5807   7.988   6.317   6.665
 1855WAT     H2 5808   7.968   6.470   6.610
 1856WAT      O 5809   0.512   6.283   9.453
 1856WAT     H1 5810   0.542   6.327   9.537
 1856WAT     H2 5811   0.588   6.278   9.389
 1857WAT      O 5812   7.738   6.065   3.050
 1857WAT     H1 5813   7.708   6.025   3.136
 1857WAT     H2 5814   7.742   6.165   3.058
 1858WAT      O 5815   1.839   8.881   5.592
 1858WAT     H1 5816   1.848   8.815   5.667
 1858WAT     H2 5817   1.748   8.922   5.594
 1859WAT      O 5818   1.355   7.202   5.685
 1859WAT     H1 5819   1.416   7.127   5.660
 1859WAT     H2 5820   1.290   7.219   5.611
 1860WAT      O 5821   3.030   9.169   4.579
 1860WAT     H1 5822   3.067   9.080   4.554
 1860WAT     H2 5823   3.102   9.223   4.624
 1861WAT      O 5824   6.470   9.653   3.595
 1861WAT     H1 5825   6.413   9.604   3.528
 1861WAT     H2 5826   6.430   9.642   3.686
 1862WAT      O 5827   0.860   2.815   1.733
 1862WAT     H1 5828   0.792   2.872   1.688
 1862WAT     H2 5829   0.833   2.799   1.828
 1863WAT      O 5830   0.080   3.745   7.790
 1863WAT     H1 5831   0.150   3.682   7.757
 1863WAT     H2 5832  -0.009   3.701   7.789
 1864WAT      O 5833   9.083   1.010   0.249
 1864WAT     H1 5834   9.012   0.958   0.296
 1864WAT     H2 5835   9.054   1.105   0.240
 1865WAT      O 5836   0.852   1.834   0.763
 1865WAT     H1 5837   0.902   1.813   0.679
 1865WAT     H2 5838   0.802   1.920   0.752
 1866WAT      O 5839   9.293   1.293   9.182
 1866WAT     H1 5840   9.350   1.274   9.263
 1866WAT     H2 5841   9.285   1.391   9.170
 1867WAT      O 5842   2.706   2.996   8.929
 1867WAT     H1 5843   2.651   2.915   8.950
 1867WAT     H2 5844   2.684   3.069   8.993
 1868WAT      O 5845   4.860   8.593   8.945
 1868WAT     H1 5846   4.846   8.538   8.862
 1868WAT     H2 5847   4.813   8.680   8.935
 1869WAT      O 5848   9.781   1.598   4.954
 1869WAT     H1 5849   9.743   1.553   4.873
 1869WAT     H2 5850   9.784   1.532   5.029
 1870WAT      O 5851   0.770   7.258   3.780
 1870WAT     H1 5852   0.776   7.350   3.743
 1870WAT     H2 5853   0.696   7.253   3.847
 1871WAT      O 5854   7.501   8.986   9.589
 1871WAT     H1 5855   7.587   8.991   9.537
 1871WAT     H2 5856   7.515   9.025   9.680
 1872WAT      O 5857   0.625   5.364   4.539
 1872WAT     H1 5858   0.665   5.278   4.569
 1872WAT     H2 5859   0.685   5.440   4.565
 1873WAT      O 5860   3.891   4.589   1.926
 1873WAT     H1 5861   3.973   4.574   1.982
 1873WAT     H2 5862   3.874   4.507   1.871
 1874WAT      O 5863   8.956   5.537   7.388
 1874WAT     H1 5864   8.935   5.583   7.474
 1874WAT     H2 5865   9.052   5.510   7.386
 1875WAT      O 5866   1.586   2.677   5.341
 1875WAT     H1 5867   1.507   2.688   5.400
 1875WAT     H2 5868   1.589   2.583   5.306
 1876WAT      O 5869   8.390   7.665   0.110
 1876WAT     H1 5870   8.303   7.713   0.099
 1876WAT     H2 5871   8.373   7.569   0.135
 1877WAT      O 5872   8.539   3.764   8.511
 1877WAT     H1 5873   8.483   3.765   8.428
 1877WAT     H2 5874   8.536   3.673   8.552
 1878WAT      O 5875   2.338   8.224   9.483
 1878WAT     H1 5876   2.416   8.236   9.544
 1878WAT     H2 5877   2.256   8.265   9.525
 1879WAT      O 5878   4.952   1.332   9.126
 1879WAT     H1 5879   5.038   1.345   9.175
 1879WAT     H2 5880   4.923   1.418   9.084
 1880WAT      O 5881   7.114   9.507   1.243
 1880WAT     H1 5882   7.116   9.572   1.319
 1880WAT     H2 5883   7.121   9.414   1.279
 1881WAT      O 5884   6.920   5.806   9.411
 1881WAT     H1 5885   6.915   5.892   9.462
 1881WAT     H2 5886   6.966   5.821   9.324
 1882WAT      O 5887   2.726   1.896   2.128
 1882WAT     H1 5888   2.739   1.801   2.155
 1882WAT     H2 5889   2.630   1.921   2.141
 1883WAT      O 5890   0.852   2.843   3.331
 1883WAT     H1 5891   0.758   2.859   3.361
 1883WAT     H2 5892   0.906   2.926   3.343
 1884WAT      O 5893   1.786   6.133   9.462
 1884WAT     H1 5894   1.816   6.045   9.498
 1884WAT     H2 5895   1.734   6.119   9.378
 1885WAT      O 5896   0.766   3.021   4.450
 1885WAT     H1 5897   0.727   3.080   4.521
 1885WAT     H2 5898   0.846   3.066   4.410
 1886WAT      O 5899   0.588   7.093   1.779
 1886WAT     H1 5900   0.600   7.186   1.744
 1886WAT     H2 5901   0.507   7.052   1.737
 1887WAT      O 5902   4.511   5.748   1.838
 1887WAT     H1 5903   4.437   5.686   1.810
 1887WAT     H2 5904   4.518   5.748   1.938
 1888WAT      O 5905   6.221   0.531   3.535
 1888WAT     H1 5906   6.231   0.630   3.543
 1888WAT     H2 5907   6.232   0.489   3.625
 1889WAT      O 5908   5.777   4.503   3.340
 1889WAT     H1 5909   5.776   4.438   3.416
 1889WAT     H2 5910   5.827   4.586   3.367
 1890WAT      O 5911   2.972   7.541   7.672
 1890WAT     H1 5912   2.896   7.525   7.608
 1890WAT     H2 5913   3.051   7.576   7.621
 1891WAT      O 5914   2.349   7.804   1.474
 1891WAT     H1 5915   2.361   7.793   1.573
 1891WAT     H2 5916   2.375   7.897   1.448
 1892WAT      O 5917   5.235   9.647   8.690
 1892WAT     H1 5918   5.153   9.693   8.657
 1892WAT     H2 5919   5.316   9.686   8.644
 1893WAT      O 5920   3.417   9.418   9.121
 1893WAT     H1 5921   3.428   9.443   9.217
 1893WAT     H2 5922   3.381   9.497   9.070
 1894WAT      O 5923   8.716   6.088   4.565
 1894WAT     H1 5924   8.740   6.179   4.531
 1894WAT     H2 5925   8.661   6.097   4.648
 1895WAT      O 5926   6.966   4.641   6.665
 1895WAT     H1 5927   6.874   4.659   6.699
 1895WAT     H2 5928   6.961   4.580   6.585
 1896WAT      O 5929   0.582   5.151   7.927
 1896WAT     H1 5930   0.508   5.099   7.884
 1896WAT     H2 5931   0.660   5.155   7.865
 1897WAT      O 5932   4.315   6.881   1.916
 1897WAT     H1 5933   4.286   6.906   2.008
 1897WAT     H2 5934   4.370   6.955   1.877
 1898WAT      O 5935   8.195   3.528   7.164
 1898WAT     H1 5936   8.209   3.590   7.087
 1898WAT     H2 5937   8.143   3.448   7.134
 1899WAT      O 5938   8.237   1.499   9.472
 1899WAT     H1 5939   8.188   1.576   9.513
 1899WAT     H2 5940   8.323   1.531   9.432
 1900WAT      O 5941   4.515   4.209   3.190
 1900WAT     H1 5942   4.567   4.128   3.216
 1900WAT     H2 5943   4.424   4.182   3.158
 1901WAT      O 5944   2.473   2.064   6.274
 1901WAT     H1 5945   2.404   1.997   6.300
 1901WAT     H2 5946   2.559   2.018   6.255
 1902WAT      O 5947   3.768   3.575   8.754
 1902WAT     H1 5948   3.707   3.654   8.742
 1902WAT     H2 5949   3.861   3.601   8.727
 1903WAT      O 5950   3.421   3.915   7.127
 1903WAT     H1 5951   3.412   3.817   7.109
 1903WAT     H2 5952   3.337   3.962   7.099
 1904WAT      O 5953   1.931   6.286   1.059
 1904WAT     H1 5954   1.894   6.358   1.001
 1904WAT     H2 5955   1.856   6.227   1.090
 1905WAT      O 5956   0.236   2.691   1.504
 1905WAT     H1 5957   0.207   2.787   1.504
 1905WAT     H2 5958   0.158   2.633   1.526
 1906WAT      O 5959   3.192   4.697   2.887
 1906WAT     H1 5960   3.155   4.789   2.881
 1906WAT     H2 5961   3.280   4.699   2.933
 1907WAT      O 5962   9.643   0.431   0.229
 1907WAT     H1 5963   9.707   0.430   0.152
 1907WAT     H2 5964   9.639   0.339   0.270
 1908WAT      O 5965   8.758   8.609   0.193
 1908WAT     H1 5966   8.851   8.577   0.175
 1908WAT     H2 5967   8.735   8.683   0.129
 1909WAT      O 5968   2.628   5.767   0.502
 1909WAT     H1 5969   2.536   5.766   0.541
 1909WAT     H2 5970   2.630   5.834   0.427
 1910WAT      O 5971   7.621   9.771   4.085
 1910WAT     H1 5972   7.544   9.834   4.077
 1910WAT     H2 5973   7.661   9.756   3.994
 1911WAT      O 5974   7.925   0.053   7.478
 1911WAT     H1 5975   7.853   0.026   7.543
 1911WAT     H2 5976   7.960  -0.029   7.432
 1912WAT      O 5977   1.281   3.952   6.031
 1912WAT     H1 5978   1.272   3.932   5.933
 1912WAT     H2 5979   1.360   4.011   6.046
 1913WAT      O 5980   2.316   1.739   8.803
 1913WAT     H1 5981   2.370   1.812   8.762
 1913WAT     H2 5982   2.264   1.692   8.731
 1914WAT      O 5983   4.419   5.289   9.050
 1914WAT     H1 5984   4.518   5.287   9.064
 1914WAT     H2 5985   4.380   5.370   9.094
 1915WAT      O 5986   0.308   8.721   1.469
 1915WAT     H1 5987   0.376   8.793   1.484
 1915WAT     H2 5988   0.355   8.635   1.446
 1916WAT      O 5989   6.865   7.298   0.802
 1916WAT     H1 5990   6.960   7.277   0.780
 1916WAT     H2 5991   6.838   7.383   0.758
 1917WAT      O 5992   2.044   8.258   8.906
 1917WAT     H1 5993   2.101   8.337   8.883
 1917WAT     H2 5994   2.103   8.181   8.930
 1918WAT      O 5995   1.562   5.111   6.027
 1918WAT     H1 5996   1.506   5.163   5.962
 1918WAT     H2 5997   1.650   5.157   6.039
 1919WAT      O 5998   8.579   3.894   6.262
 1919WAT     H1 5999   8.567   3.801   6.227
 1919WAT     H2 6000   8.643   3.893   6.339
 1920WAT      O 6001   4.844   0.598   1.081
 1920WAT     H1 6002   4.834   0.569   0.986
 1920WAT     H2 6003   4.817   0.523   1.142
 1921WAT      O 6004   1.661   1.848   8.089
 1921WAT     H1 6005   1.711   1.779   8.141
 1921WAT     H2 6006   1.724   1.917   8.054
 1922WAT      O 6007   0.510   0.046   1.656
 1922WAT     H1 6008   0.429   0.077   1.607
 1922WAT     H2 6009   0.486   0.017   1.748
 1923WAT      O 6010   6.260   3.659   4.529
 1923WAT     H1 6011   6.305   3.745   4.507
 1923WAT     H2 6012   6.162   3.666   4.511
 1924WAT      O 6013   7.241   6.934   5.724
 1924WAT     H1 6014   7.275   6.993   5.651
 1924WAT     H2 6015   7.164   6.977   5.770
 1925WAT      O 6016   7.497   1.128   6.826
 1925WAT     H1 6017   7.457   1.144   6.735
 1925WAT     H2 6018   7.578   1.072   6.816
 1926WAT      O 6019   1.438   9.239   0.274
 1926WAT     H1 6020   1.373   9.282   0.336
 1926WAT     H2 6021   1.479   9.159   0.318
 1927WAT      O 6022   9.783   4.333   8.022
 1927WAT     H1 6023   9.771   4.424   7.984
 1927WAT     H2 6024   9.809   4.340   8.118
 1928WAT      O 6025   5.716   0.090   2.946
 1928WAT     H1 6026   5.763   0.157   3.004
 1928WAT     H2 6027   5.767   0.080   2.861
 1929WAT      O 6028   5.899   5.135   8.735
 1929WAT     H1 6029   5.936   5.141   8.828
 1929WAT     H2 6030   5.813   5.185   8.729
 1930WAT      O 6031   3.469   3.143   6.394
 1930WAT     H1 6032   3.527   3.065   6.370
 1930WAT     H2 6033   3.527   3.218   6.428
 1931WAT      O 6034   6.853   6.829   8.590
 1931WAT     H1 6035   6.813   6.919   8.571
 1931WAT     H2 6036   6.953   6.838   8.594
 1932WAT      O 6037   3.124   8.810   2.519
 1932WAT     H1 6038   3.179   8.762   2.451
 1932WAT     H2 6039   3.028   8.807   2.492
 1933WAT      O 6040   7.935   4.339   1.992
 1933WAT     H1 6041   7.858   4.353   2.054
 1933WAT     H2 6042   8.020   4.367   2.038
 1934WAT      O 6043   8.134   2.893   5.572
 1934WAT     H1 6044   8.156   2.836   5.651
 1934WAT     H2 6045   8.037   2.885   5.551
 1935WAT      O 6046   4.623   8.258   5.860
 1935WAT     H1 6047   4.697   8.279   5.924
 1935WAT     H2 6048   4.659   8.258   5.767
 1936WAT      O 6049   9.552   0.625   1.340
 1936WAT     H1 6050   9.490   0.547   1.327
 1936WAT     H2 6051   9.499   0.709   1.344
 1937WAT      O 6052   0.556   7.699   6.922
 1937WAT     H1 6053   0.553   7.780   6.862
 1937WAT     H2 6054   0.633   7.642   6.896
 1938WAT      O 6055   7.898   1.200   9.658
 1938WAT     H1 6056   7.918   1.106   9.688
 1938WAT     H2 6057   7.983   1.246   9.635
 1939WAT      O 6058   8.104   1.778   4.158
 1939WAT     H1 6059   8.040   1.744   4.227
 1939WAT     H2 6060   8.194   1.736   4.172
 1940WAT      O 6061   0.142   3.283   2.244
 1940WAT     H1 6062   0.131   3.356   2.177
 1940WAT     H2 6063   0.104   3.198   2.207
 1941WAT      O 6064   9.139   1.416   3.843
 1941WAT     H1 6065   9.205   1.356   3.797
 1941WAT     H2 6066   9.082   1.461   3.775
 1942WAT      O 6067   2.014   2.702   2.074
 1942WAT     H1 6068   1.982   2.785   2.119
 1942WAT     H2 6069   1.942   2.666   2.015
 1943WAT      O 6070   9.472   6.824   7.586
 1943WAT     H1 6071   9.423   6.884   7.649
 1943WAT     H2 6072   9.431   6.733   7.588
 1944WAT      O 6073   1.943   1.874   6.917
 1944WAT     H1 6074   1.955   1.972   6.900
 1944WAT     H2 6075   2.013   1.842   6.980
 1945WAT      O 6076   7.347   5.891   4.151
 1945WAT     H1 6077   7.365   5.934   4.240
 1945WAT     H2 6078   7.425   5.834   4.125
 1946WAT      O 6079   3.074   5.534   8.657
 1946WAT     H1 6080   3.119   5.506   8.572
 1946WAT     H2 6081   3.008   5.606   8.637
 1947WAT      O 6082   6.260   6.722   8.836
 1947WAT     H1 6083   6.272   6.623   8.847
 1947WAT     H2 6084   6.294   6.749   8.746
 1948WAT      O 6085   9.281   9.752   9.371
 1948WAT     H1 6086   9.339   9.778   9.449
 1948WAT     H2 6087   9.263   9.833   9.315
 1949WAT      O 6088   4.415   1.614   4.048
 1949WAT     H1 6089   4.488   1.545   4.045
 1949WAT     H2 6090   4.328   1.569   4.065
 1950WAT      O 6091   8.979   8.342   5.340
 1950WAT     H1 6092   9.039   8.281   5.288
 1950WAT     H2 6093   8.934   8.290   5.413
 1951WAT      O 6094   9.435   1.990   3.267
 1951WAT     H1 6095   9.518   1.936   3.260
 1951WAT     H2 6096   9.449   2.079   3.225
 1952WAT      O 6097   6.872   7.706   6.494
 1952WAT     H1 6098   6.876   7.633   6.562
 1952WAT     H2 6099   6.867   7.666   6.403
 1953WAT      O 6100   8.472   0.267   9.868
 1953WAT     H1 6101   8.472   0.305   9.960
 1953WAT     H2 6102   8.559   0.220   9.852
 1954WAT      O 6103   8.348   1.126   1.597
 1954WAT     H1 6104   8.351   1.052   1.665
 1954WAT     H2 6105   8.419   1.193   1.618
 1955WAT      O 6106   0.939   7.636   1.622
 1955WAT     H1 6107   0.944   7.704   1.696
 1955WAT     H2 6108   0.844   7.607   1.610
 1956WAT      O 6109   3.449   7.793   9.153
 1956WAT     H1 6110   3.405   7.827   9.070
 1956WAT     H2 6111   3.461   7.868   9.218
 1957WAT      O 6112   7.202   3.321   9.235
 1957WAT     H1 6113   7.206   3.387   9.159
 1957WAT     H2 6114   7.123   3.342   9.293
 1958WAT      O 6115   6.679   6.074   6.016
 1958WAT     H1 6116   6.755   6.012   6.036
 1958WAT     H2 6117   6.652   6.122   6.099
 1959WAT      O 6118   0.298   9.191   6.647
 1959WAT     H1 6119   0.306   9.236   6.736
 1959WAT     H2 6120   0.204   9.201   6.613
 1960WAT      O 6121   2.539   4.380   9.516
 1960WAT     H1 6122   2.467   4.345   9.456
 1960WAT     H2 6123   2.609   4.310   9.528
 1961WAT      O 6124   8.559   1.784   0.063
 1961WAT     H1 6125   8.551   1.721   0.140
 1961WAT     H2 6126   8.545   1.878   0.096
 1962WAT      O 6127   7.828   8.679   6.220
 1962WAT     H1 6128   7.772   8.761   6.205
 1962WAT     H2 6129   7.867   8.683   6.312
 1963WAT      O 6130   8.782   3.897   8.526
 1963WAT     H1 6131   8.804   3.949   8.444
 1963WAT     H2 6132   8.697   3.847   8.512
 1964WAT      O 6133   6.293   8.361   8.629
 1964WAT     H1 6134   6.277   8.386   8.533
 1964WAT     H2 6135   6.373   8.302   8.635
 1965WAT      O 6136   8.886   8.824   8.307
 1965WAT     H1 6137   8.966   8.866   8.263
 1965WAT     H2 6138   8.896   8.725   8.305
 1966WAT      O 6139   6.045   6.356   6.110
 1966WAT     H1 6140   6.011   6.313   6.194
 1966WAT     H2 6141   6.061   6.453   6.126
 1967WAT      O 6142   6.208   1.012   7.079
 1967WAT     H1 6143   6.303   0.991   7.056
 1967WAT     H2 6144   6.169   1.071   7.009
 1968WAT      O 6145   1.299   1.115   8.511
 1968WAT     H1 6146   1.315   1.034   8.455
 1968WAT     H2 6147   1.386   1.151   8.543
 1969WAT      O 6148   0.967   5.218   8.970
 1969WAT     H1 6149   1.000   5.167   8.891
 1969WAT     H2 6150   1.044   5.266   9.013
 1970WAT      O 6151   1.365   8.344   3.722
 1970WAT     H1 6152   1.420   8.303   3.795
 1970WAT     H2 6153   1.388   8.441   3.713
 1971WAT      O 6154   7.051   7.222   2.344
 1971WAT     H1 6155   7.140   7.267   2.338
 1971WAT     H2 6156   7.046   7.149   2.277
 1972WAT      O 6157   9.860   5.176   6.523
 1972WAT     H1 6158   9.774   5.135   6.551
 1972WAT     H2 6159   9.845   5.272   6.500
 1973WAT      O 6160   8.040   4.292   6.207
 1973WAT     H1 6161   8.124   4.326   6.249
 1973WAT     H2 6162   7.975   4.266   6.278
 1974WAT      O 6163   6.460   2.633   2.187
 1974WAT     H1 6164   6.393   2.568   2.151
 1974WAT     H2 6165   6.422   2.726   2.182
 1975WAT      O 6166   3.822   0.576   9.371
 1975WAT     H1 6167   3.772   0.517   9.434
 1975WAT     H2 6168   3.851   0.522   9.292
 1976WAT      O 6169   1.093   2.774   5.639
 1976WAT     H1 6170   1.124   2.679   5.641
 1976WAT     H2 6171   1.101   2.813   5.730
 1977WAT      O 6172   7.616   3.749   1.949
 1977WAT     H1 6173   7.705   3.707   1.969
 1977WAT     H2 6174   7.555   3.682   1.908
 1978WAT      O 6175   0.476   5.656   0.980
 1978WAT     H1 6176   0.490   5.733   1.042
 1978WAT     H2 6177   0.562   5.633   0.935
 1979WAT      O 6178   1.430   3.553   0.524
 1979WAT     H1 6179   1.440   3.622   0.595
 1979WAT     H2 6180   1.357   3.581   0.461
 1980WAT      O 6181   6.660   2.478   1.739
 1980WAT     H1 6182   6.709   2.424   1.807
 1980WAT     H2 6183   6.696   2.458   1.648
 1981WAT      O 6184   2.315   2.137   7.794
 1981WAT     H1 6185   2.405   2.177   7.779
 1981WAT     H2 6186   2.278   2.170   7.881
 1982WAT      O 6187   4.791   6.631   2.527
 1982WAT     H1 6188   4.737   6.650   2.609
 1982WAT     H2 6189   4.885   6.610   2.554
 1983WAT      O 6190   8.638   6.371   7.010
 1983WAT     H1 6191   8.697   6.290   7.006
 1983WAT     H2 6192   8.544   6.343   7.027
 1984WAT      O 6193   5.093   0.461   9.557
 1984WAT     H1 6194   5.145   0.542   9.583
 1984WAT     H2 6195   5.082   0.402   9.637
 1985WAT      O 6196   7.028   5.435   5.868
 1985WAT     H1 6197   7.119   5.399   5.889
 1985WAT     H2 6198   6.989   5.383   5.792
 1986WAT      O 6199   8.213   6.534   4.852
 1986WAT     H1 6200   8.167   6.622   4.865
 1986WAT     H2 6201   8.178   6.491   4.769
 1987WAT      O 6202   9.000   9.099   1.955
 1987WAT     H1 6203   9.096   9.073   1.964
 1987WAT     H2 6204   8.992   9.199   1.956
 1988WAT      O 6205   8.827   2.648   8.876
 1988WAT     H1 6206   8.851   2.557   8.908
 1988WAT     H2 6207   8.874   2.667   8.790
 1989WAT      O 6208   3.752   2.559   5.186
 1989WAT     H1 6209   3.808   2.541   5.267
 1989WAT     H2 6210   3.783   2.499   5.111
 1990WAT      O 6211   3.615   2.134   3.396
 1990WAT     H1 6212   3.548   2.172   3.333
 1990WAT     H2 6213   3.649   2.207   3.456
 1991WAT      O 6214   7.716   6.564   7.908
 1991WAT     H1 6215   7.725   6.638   7.975
 1991WAT     H2 6216   7.805   6.519   7.897
 1992WAT      O 6217   2.488   8.857   4.964
 1992WAT     H1 6218   2.586   8.846   4.952
 1992WAT     H2 6219   2.469   8.936   5.022
 1993WAT      O 6220   9.406   1.661   7.405
 1993WAT     H1 6221   9.422   1.730   7.476
 1993WAT     H2 6222   9.334   1.694   7.343
 1994WAT      O 6223   0.134   4.675   8.193
 1994WAT     H1 6224   0.123   4.692   8.095
 1994WAT     H2 6225   0.217   4.720   8.226
 1995WAT      O 6226   0.222   7.039   5.463
 1995WAT     H1 6227   0.144   7.050   5.401
 1995WAT     H2 6228   0.189   7.036   5.558
 1996WAT      O 6229   3.477   2.563   4.617
 1996WAT     H1 6230   3.477   2.469   4.649
 1996WAT     H2 6231   3.571   2.598   4.615
 1997WAT      O 6232   1.511   3.427   2.625
 1997WAT     H1 6233   1.566   3.434   2.542
 1997WAT     H2 6234   1.535   3.342   2.673
 1998WAT      O 6235   2.631   2.683   5.921
 1998WAT     H1 6236   2.645   2.769   5.971
 1998WAT     H2 6237   2.692   2.680   5.842
 1999WAT      O 6238   9.884   7.198   6.381
 1999WAT     H1 6239   9.930   7.280   6.348
 1999WAT     H2 6240   9.930   7.164   6.463
 2000WAT      O 6241   9.261   2.250   6.036
 2000WAT     H1 6242   9.242   2.225   6.131
 2000WAT     H2 6243   9.314   2.178   5.993
 2001WAT      O 6244   0.258   7.682   5.353
 2001WAT     H1 6245   0.290   7.615   5.419
 2001WAT     H2 6246   0.316   7.764   5.358
 2002WAT      O 6247   6.346   9.046   0.575
 2002WAT     H1 6248   6.267   8.986   0.587
 2002WAT     H2 6249   6.415   9.025   0.645
 2003WAT      O 6250   9.708   3.768   1.954
 2003WAT     H1 6251   9.708   3.854   2.004
 2003WAT     H2 6252   9.791   3.762   1.898
 2004WAT      O 6253   7.353   1.261   0.954
 2004WAT     H1 6254   7.260   1.297   0.949
 2004WAT     H2 6255   7.351   1.166   0.983
 2005WAT      O 6256   3.651   4.838   6.730
 2005WAT     H1 6257   3.687   4.896   6.802
 2005WAT     H2 6258   3.602   4.894   6.663
 2006WAT      O 6259   0.538   3.015   3.899
 2006WAT     H1 6260   0.540   3.112   3.922
 2006WAT     H2 6261   0.626   2.974   3.924
 2007WAT      O 6262   0.574   9.670   2.852
 2007WAT     H1 6263   0.563   9.664   2.753
 2007WAT     H2 6264   0.649   9.611   2.881
 2008WAT      O 6265   3.168   1.216   0.270
 2008WAT     H1 6266   3.142   1.155   0.195
 2008WAT     H2 6267   3.151   1.310   0.244
 2009WAT      O 6268   7.085   0.762   4.676
 2009WAT     H1 6269   7.173   0.798   4.705
 2009WAT     H2 6270   7.098   0.710   4.591
 2010WAT      O 6271   6.161   3.188   8.946
 2010WAT     H1 6272   6.238   3.124   8.937
 2010WAT     H2 6273   6.191   3.280   8.920
 2011WAT      O 6274   9.496   8.122   4.686
 2011WAT     H1 6275   9.464   8.166   4.770
 2011WAT     H2 6276   9.446   8.160   4.608
 2012WAT      O 6277   0.355   0.882   5.583
 2012WAT     H1 6278   0.454   0.884   5.570
 2012WAT     H2 6279   0.311   0.938   5.514
 2013WAT      O 6280   5.596   0.975   8.602
 2013WAT     H1 6281   5.512   0.921   8.613
 2013WAT     H2 6282   5.648   0.940   8.524
 2014WAT      O 6283   9.057   9.146   8.959
 2014WAT     H1 6284   9.017   9.146   8.867
 2014WAT     H2 6285   9.014   9.218   9.014
 2015WAT      O 6286   1.232   4.360   1.559
 2015WAT     H1 6287   1.197   4.411   1.638
 2015WAT     H2 6288   1.237   4.420   1.480
 2016WAT      O 6289   9.366   9.390   7.560
 2016WAT     H1 6290   9.340   9.321   7.493
 2016WAT     H2 6291   9.378   9.478   7.514
 2017WAT      O 6292   6.365   7.466   9.257
 2017WAT     H1 6293   6.358   7.470   9.158
 2017WAT     H2 6294   6.303   7.533   9.298
 2018WAT      O 6295   9.410   1.480   0.219
 2018WAT     H1 6296   9.337   1.545   0.240
 2018WAT     H2 6297   9.469   1.469   0.300
 2019WAT      O 6298   3.024   4.944   6.986
 2019WAT     H1 6299   3.080   4.863   6.974
 2019WAT     H2 6300   2.928   4.917   6.993
 2020WAT      O 6301   3.996   5.330   4.956
 2020WAT     H1 6302   4.001   5.402   4.887
 2020WAT     H2 6303   3.996   5.371   5.047
 2021WAT      O 6304   1.914   6.648   8.291
 2021WAT     H1 6305   1.980   6.599   8.347
 2021WAT     H2 6306   1.860   6.709   8.349
 2022WAT      O 6307   7.527   4.469   3.962
 2022WAT     H1 6308   7.549   4.383   4.008
 2022WAT     H2 6309   7.574   4.544   4.009
 2023WAT      O 6310   6.074   5.207   4.264
 2023WAT     H1 6311   5.983   5.237   4.237
 2023WAT     H2 6312   6.085   5.217   4.363
 2024WAT      O 6313   3.368   6.017   4.217
 2024WAT     H1 6314   3.337   6.002   4.311
 2024WAT     H2 6315   3.431   6.094   4.215
 2025WAT      O 6316   4.692   9.674   0.457
 2025WAT     H1 6317   4.712   9.771   0.469
 2025WAT     H2 6318   4.611   9.663   0.399
 2026WAT      O 6319   0.775   2.194   8.437
 2026WAT     H1 6320   0.821   2.234   8.358
 2026WAT     H2 6321   0.677   2.215   8.432
 2027WAT      O 6322   1.355   3.829   7.002
 2027WAT     H1 6323   1.317   3.764   7.068
 2027WAT     H2 6324   1.294   3.838   6.924
 2028WAT      O 6325   6.541   8.161   6.083
 2028WAT     H1 6326   6.541   8.113   6.171
 2028WAT     H2 6327   6.489   8.107   6.016
 2029WAT      O 6328   9.752   6.820   7.529
 2029WAT     H1 6329   9.654   6.826   7.547
 2029WAT     H2 6330   9.793   6.751   7.589
 2030WAT      O 6331   5.876   4.202   5.544
 2030WAT     H1 6332   5.970   4.195   5.578
 2030WAT     H2 6333   5.877   4.227   5.448
 2031WAT      O 6334   8.877   1.269   7.809
 2031WAT     H1 6335   8.885   1.191   7.870
 2031WAT     H2 6336   8.868   1.237   7.715
 2032WAT      O 6337   1.104   2.187   0.906
 2032WAT     H1 6338   1.043   2.189   0.827
 2032WAT     H2 6339   1.159   2.271   0.908
 2033WAT      O 6340   6.154   7.296   8.561
 2033WAT     H1 6341   6.099   7.219   8.591
 2033WAT     H2 6342   6.101   7.353   8.498
 2034WAT      O 6343   2.771   9.168   4.487
 2034WAT     H1 6344   2.869   9.166   4.507
 2034WAT     H2 6345   2.719   9.150   4.571
 2035WAT      O 6346   3.714   7.477   3.952
 2035WAT     H1 6347   3.737   7.499   3.857
 2035WAT     H2 6348   3.782   7.413   3.988
 2036WAT      O 6349   2.553   6.298   4.262
 2036WAT     H1 6350   2.489   6.291   4.185
 2036WAT     H2 6351   2.588   6.391   4.268
 2037WAT      O 6352   3.707   1.603   4.958
 2037WAT     H1 6353   3.798   1.620   4.994
 2037WAT     H2 6354   3.704   1.513   4.913
 2038WAT      O 6355   4.637   6.298   1.892
 2038WAT     H1 6356   4.613   6.306   1.795
 2038WAT     H2 6357   4.557   6.269   1.944
 2039WAT      O 6358   2.547   4.994   5.880
 2039WAT     H1 6359   2.614   5.015   5.951
 2039WAT     H2 6360   2.468   5.055   5.891
 2040WAT      O 6361   0.031   9.120   2.450
 2040WAT     H1 6362   0.058   9.215   2.435
 2040WAT     H2 6363   0.017   9.074   2.362
 2041WAT      O 6364   1.537   6.392   2.086
 2041WAT     H1 6365   1.526   6.321   2.155
 2041WAT     H2 6366   1.581   6.354   2.004
 2042WAT      O 6367   8.887   7.903   1.811
 2042WAT     H1 6368   8.869   7.898   1.910
 2042WAT     H2 6369   8.832   7.834   1.765
 2043WAT      O 6370   1.071   7.874   2.868
 2043WAT     H1 6371   1.112   7.825   2.945
 2043WAT     H2 6372   1.069   7.972   2.889
 2044WAT      O 6373   4.449   6.869   1.616
 2044WAT     H1 6374   4.473   6.830   1.527
 2044WAT     H2 6375   4.425   6.795   1.679
 2045WAT      O 6376   3.922   3.426   3.449
 2045WAT     H1 6377   3.932   3.525   3.433
 2045WAT     H2 6378   3.997   3.394   3.507
 2046WAT      O 6379   8.754   4.818   6.117
 2046WAT     H1 6380   8.660   4.787   6.132
 2046WAT     H2 6381   8.766   4.908   6.158
 2047WAT      O 6382   4.523   4.383   7.558
 2047WAT     H1 6383   4.605   4.363   7.505
 2047WAT     H2 6384   4.493   4.301   7.606
 2048WAT      O 6385   0.278   7.680   1.975
 2048WAT     H1 6386   0.298   7.675   2.073
 2048WAT     H2 6387   0.253   7.773   1.951
 2049WAT      O 6388   6.735   7.769   7.611
 2049WAT     H1 6389   6.787   7.852   7.590
 2049WAT     H2 6390   6.790   7.710   7.670
 2050WAT      O 6391   8.165   3.704   5.597
 2050WAT     H1 6392   8.259   3.738   5.595
 2050WAT     H2 6393   8.104   3.772   5.555
 2051WAT      O 6394   5.237   5.475   7.349
 2051WAT     H1 6395   5.311   5.507   7.408
 2051WAT     H2 6396   5.203   5.551   7.293
 2052WAT      O 6397   9.803   0.937   3.940
 2052WAT     H1 6398   9.791   0.889   3.854
 2052WAT     H2 6399   9.819   0.871   4.013
 2053WAT      O 6400   6.237   1.954   5.102
 2053WAT     H1 6401   6.145   1.917   5.110
 2053WAT     H2 6402   6.239   2.047   5.141
 2054WAT      O 6403   5.218   0.037   7.290
 2054WAT     H1 6404   5.278   0.108   7.252
 2054WAT     H2 6405   5.274  -0.039   7.324
 2055WAT      O 6406   4.124   9.323   4.315
 2055WAT     H1 6407   4.149   9.269   4.235
 2055WAT     H2 6408   4.142   9.271   4.398
 2056WAT      O 6409   7.971   6.445   1.322
 2056WAT     H1 6410   8.048   6.466   1.262
 2056WAT     H2 6411   7.937   6.530   1.364
 2057WAT      O 6412   5.192   7.839   0.462
 2057WAT     H1 6413   5.115   7.830   0.398
 2057WAT     H2 6414   5.275   7.803   0.420
 2058WAT      O 6415   0.737   3.013   2.079
 2058WAT     H1 6416   0.703   2.997   2.171
 2058WAT     H2 6417   0.670   3.066   2.027
 2059WAT      O 6418   6.014   6.553   6.391
 2059WAT     H1 6419   5.968   6.542   6.479
 2059WAT     H2 6420   6.112   6.541   6.402
 2060WAT      O 6421   0.961   9.316   9.774
 2060WAT     H1 6422   1.042   9.359   9.732
 2060WAT     H2 6423   0.884   9.380   9.769
 2061WAT      O 6424   7.856   3.230   9.159
 2061WAT     H1 6425   7.861   3.220   9.060
 2061WAT     H2 6426   7.786   3.168   9.195
 2062WAT      O 6427   4.180   7.793   9.116
 2062WAT     H1 6428   4.276   7.799   9.092
 2062WAT     H2 6429   4.124   7.823   9.039
 2063WAT      O 6430   0.879   8.441   6.566
 2063WAT     H1 6431   0.934   8.358   6.551
 2063WAT     H2 6432   0.922   8.497   6.637
 2064WAT      O 6433   0.902   6.929   8.133
 2064WAT     H1 6434   0.851   6.872   8.197
 2064WAT     H2 6435   0.874   7.025   8.143
 2065WAT      O 6436   3.444   3.885   0.355
 2065WAT     H1 6437   3.346   3.892   0.336
 2065WAT     H2 6438   3.488   3.830   0.284
 2066WAT      O 6439   4.870   0.497   9.760
 2066WAT     H1 6440   4.809   0.417   9.754
 2066WAT     H2 6441   4.903   0.506   9.854
 2067WAT      O 6442   7.497   8.007   8.899
 2067WAT     H1 6443   7.424   8.054   8.851
 2067WAT     H2 6444   7.563   7.971   8.834
 2068WAT      O 6445   2.464   3.591   9.001
 2068WAT     H1 6446   2.420   3.585   9.090
 2068WAT     H2 6447   2.563   3.576   9.012
 2069WAT      O 6448   3.898   9.065   7.324
 2069WAT     H1 6449   3.829   9.019   7.268
 2069WAT     H2 6450   3.873   9.162   7.333
 2070WAT      O 6451   7.949   0.137   6.736
 2070WAT     H1 6452   8.019   0.208   6.730
 2070WAT     H2 6453   7.983   0.054   6.692
 2071WAT      O 6454   8.886   6.321   1.293
 2071WAT     H1 6455   8.863   6.400   1.236
 2071WAT     H2 6456   8.802   6.283   1.332
 2072WAT      O 6457   8.567   6.603   6.128
 2072WAT     H1 6458   8.477   6.611   6.087
 2072WAT     H2 6459   8.581   6.509   6.160
 2073WAT      O 6460   3.750   5.513   4.801
 2073WAT     H1 6461   3.735   5.532   4.898
 2073WAT     H2 6462   3.835   5.556   4.772
 2074WAT      O 6463   4.137   8.126   7.510
 2074WAT     H1 6464   4.161   8.080   7.425
 2074WAT     H2 6465   4.161   8.223   7.503
 2075WAT      O 6466   3.471   9.660   1.127
 2075WAT     H1 6467   3.505   9.573   1.165
 2075WAT     H2 6468   3.544   9.704   1.075
 2076WAT      O 6469   0.140   4.211   9.540
 2076WAT     H1 6470   0.199   4.288   9.516
 2076WAT     H2 6471   0.167   4.175   9.629
 2077WAT      O 6472   1.574   9.683   2.115
 2077WAT     H1 6473   1.663   9.730   2.117
 2077WAT     H2 6474   1.589   9.587   2.091
 2078WAT      O 6475   6.505   2.846   6.363
 2078WAT     H1 6476   6.421   2.900   6.363
 2078WAT     H2 6477   6.493   2.767   6.303
 2079WAT      O 6478   2.560   9.773   0.759
 2079WAT     H1 6479   2.578   9.709   0.684
 2079WAT     H2 6480   2.463   9.769   0.784
 2080WAT      O 6481   3.886   1.251   0.777
 2080WAT     H1 6482   3.881   1.190   0.698
 2080WAT     H2 6483   3.870   1.345   0.748
 2081WAT      O 6484   9.382   4.669   1.140
 2081WAT     H1 6485   9.433   4.688   1.056
 2081WAT     H2 6486   9.284   4.671   1.121
 2082WAT      O 6487   3.848   5.845   6.155
 2082WAT     H1 6488   3.841   5.871   6.251
 2082WAT     H2 6489   3.943   5.847   6.126
 2083WAT      O 6490   5.989   5.749   4.299
 2083WAT     H1 6491   5.957   5.692   4.223
 2083WAT     H2 6492   5.916   5.760   4.366
 2084WAT      O 6493   0.013   0.367   5.002
 2084WAT     H1 6494  -0.045   0.328   4.930
 2084WAT     H2 6495  -0.012   0.463   5.016
 2085WAT      O 6496  -0.001   1.442   4.139
 2085WAT     H1 6497  -0.064   1.391   4.197
 2085WAT     H2 6498   0.085   1.457   4.187
 2086WAT      O 6499   9.832   1.643   6.712
 2086WAT     H1 6500   9.827   1.546   6.691
 2086WAT     H2 6501   9.767   1.665   6.784
 2087WAT      O 6502   4.271   5.803   2.310
 2087WAT     H1 6503   4.363   5.838   2.289
 2087WAT     H2 6504   4.202   5.858   2.263
 2088WAT      O 6505   3.867   0.204   5.711
 2088WAT     H1 6506   3.839   0.166   5.623
 2088WAT     H2 6507   3.792   0.194   5.777
 2089WAT      O 6508   5.501   4.519   9.805
 2089WAT     H1 6509   5.591   4.480   9.785
 2089WAT     H2 6510   5.461   4.556   9.721
 2090WAT      O 6511   6.544   4.587   9.715
 2090WAT     H1 6512   6.578   4.681   9.721
 2090WAT     H2 6513   6.604   4.533   9.656
 2091WAT      O 6514   2.190   5.678   2.689
 2091WAT     H1 6515   2.193   5.593   2.636
 2091WAT     H2 6516   2.144   5.661   2.776
 2092WAT      O 6517   9.275   7.180   6.697
 2092WAT     H1 6518   9.183   7.178   6.738
 2092WAT     H2 6519   9.271   7.230   6.610
 2093WAT      O 6520   7.815   5.397   5.640
 2093WAT     H1 6521   7.857   5.437   5.558
 2093WAT     H2 6522   7.776   5.307   5.616
 2094WAT      O 6523   7.054   3.288   6.147
 2094WAT     H1 6524   7.134   3.330   6.190
 2094WAT     H2 6525   7.019   3.215   6.205
 2095WAT      O 6526   6.634   8.745   2.229
 2095WAT     H1 6527   6.647   8.795   2.315
 2095WAT     H2 6528   6.599   8.807   2.159
 2096WAT      O 6529   7.218   2.223   6.112
 2096WAT     H1 6530   7.310   2.245   6.145
 2096WAT     H2 6531   7.177   2.305   6.072
 2097WAT      O 6532   0.901   6.879   3.482
 2097WAT     H1 6533   0.942   6.844   3.398
 2097WAT     H2 6534   0.901   6.979   3.481
 2098WAT      O 6535   6.472   0.074   9.782
 2098WAT     H1 6536   6.372   0.070   9.790
 2098WAT     H2 6537   6.499   0.051   9.689
 2099WAT      O 6538   2.974   9.481   0.253
 2099WAT     H1 6539   2.963   9.385   0.280
 2099WAT     H2 6540   2.959   9.540   0.333
 2100WAT      O 6541   0.960   5.433   8.486
 2100WAT     H1 6542   1.030   5.497   8.518
 2100WAT     H2 6543   1.002   5.365   8.426
 2101WAT      O 6544   2.310   2.634   4.983
 2101WAT     H1 6545   2.344   2.541   4.999
 2101WAT     H2 6546   2.269   2.669   5.067
 2102WAT      O 6547   8.401   8.414   6.220
 2102WAT     H1 6548   8.470   8.359   6.267
 2102WAT     H2 6549   8.314   8.407   6.269
 2103WAT      O 6550   8.479   8.769   2.942
 2103WAT     H1 6551   8.541   8.822   2.884
 2103WAT     H2 6552   8.520   8.679   2.960
 2104WAT      O 6553   2.494   9.373   3.329
 2104WAT     H1 6554   2.518   9.455   3.382
 2104WAT     H2 6555   2.400   9.346   3.352
 2105WAT      O 6556   7.509   2.298   0.084
 2105WAT     H1 6557   7.559   2.378   0.052
 2105WAT     H2 6558   7.567   2.245   0.146
 2106WAT      O 6559   7.416   2.985   3.913
 2106WAT     H1 6560   7.503   2.980   3.961
 2106WAT     H2 6561   7.430   2.969   3.815
 2107WAT      O 6562   8.795   5.721   7.282
 2107WAT     H1 6563   8.833   5.644   7.332
 2107WAT     H2 6564   8.799   5.702   7.184
 2108WAT      O 6565   4.127   3.373   4.333
 2108WAT     H1 6566   4.223   3.374   4.305
 2108WAT     H2 6567   4.080   3.297   4.289
 2109WAT      O 6568   4.765   8.141   7.650
 2109WAT     H1 6569   4.711   8.114   7.570
 2109WAT     H2 6570   4.826   8.216   7.625
 2110WAT      O 6571   8.843   1.426   8.368
 2110WAT     H1 6572   8.855   1.524   8.382
 2110WAT     H2 6573   8.903   1.375   8.430
 2111WAT      O 6574   2.521   8.328   0.175
 2111WAT     H1 6575   2.444   8.378   0.135
 2111WAT     H2 6576   2.509   8.230   0.158
 2112WAT      O 6577   3.254   3.847   5.857
 2112WAT     H1 6578   3.259   3.750   5.836
 2112WAT     H2 6579   3.271   3.861   5.954
 2113WAT      O 6580   8.074   8.643   6.924
 2113WAT     H1 6581   8.116   8.644   6.833
 2113WAT     H2 6582   7.993   8.585   6.922
 2114WAT      O 6583   4.103   2.307   7.235
 2114WAT     H1 6584   4.200   2.286   7.237
 2114WAT     H2 6585   4.090   2.399   7.196
 2115WAT      O 6586   1.060   1.978   3.591
 2115WAT     H1 6587   1.070   1.891   3.638
 2115WAT     H2 6588   1.127   2.043   3.627
 2116WAT      O 6589   0.475   4.954   4.334
 2116WAT     H1 6590   0.381   4.971   4.363
 2116WAT     H2 6591   0.519   5.041   4.313
 2117WAT      O 6592   5.631   3.676   8.573
 2117WAT     H1 6593   5.677   3.635   8.651
 2117WAT     H2 6594   5.675   3.763   8.550
 2118WAT      O 6595   9.318   0.027   5.445
 2118WAT     H1 6596   9.358  -0.049   5.393
 2118WAT     H2 6597   9.245   0.070   5.392
 2119WAT      O 6598   4.041   2.170   0.764
 2119WAT     H1 6599   3.985   2.165   0.846
 2119WAT     H2 6600   3.991   2.130   0.687
 2120WAT      O 6601   8.967   4.815   2.660
 2120WAT     H1 6602   9.016   4.785   2.742
 2120WAT     H2 6603   9.006   4.900   2.627
 2121WAT      O 6604   8.329   5.894   9.311
 2121WAT     H1 6605   8.370   5.985   9.320
 2121WAT     H2 6606   8.242   5.902   9.262
 2122WAT      O 6607   7.172   9.340   2.326
 2122WAT     H1 6608   7.214   9.253   2.297
 2122WAT     H2 6609   7.146   9.334   2.422
 2123WAT      O 6610   4.714   0.775   1.681
 2123WAT     H1 6611   4.689   0.708   1.751
 2123WAT     H2 6612   4.759   0.854   1.724
 2124WAT      O 6613   4.072   5.609   9.145
 2124WAT     H1 6614   3.998   5.591   9.209
 2124WAT     H2 6615   4.059   5.699   9.104
 2125WAT      O 6616   7.473   7.560   2.292
 2125WAT     H1 6617   7.419   7.582   2.211
 2125WAT     H2 6618   7.541   7.490   2.269
 2126WAT      O 6619   5.728   6.427   8.415
 2126WAT     H1 6620   5.813   6.459   8.456
 2126WAT     H2 6621   5.668   6.391   8.486
 2127WAT      O 6622   5.972   3.040   5.348
 2127WAT     H1 6623   5.905   3.003   5.412
 2127WAT     H2 6624   6.034   2.968   5.318
 2128WAT      O 6625   2.710   2.000   1.875
 2128WAT     H1 6626   2.725   1.958   1.964
 2128WAT     H2 6627   2.790   2.054   1.848
 2129WAT      O 6628   1.700   8.986   6.797
 2129WAT     H1 6629   1.726   9.018   6.888
 2129WAT     H2 6630   1.685   8.887   6.799
 2130WAT      O 6631   8.219   4.930   2.154
 2130WAT     H1 6632   8.171   4.899   2.237
 2130WAT     H2 6633   8.186   5.021   2.129
 2131WAT      O 6634   2.350   7.251   7.997
 2131WAT     H1 6635   2.396   7.200   7.924
 2131WAT     H2 6636   2.330   7.189   8.073
 2132WAT      O 6637   3.185   3.843   1.537
 2132WAT     H1 6638   3.222   3.774   1.599
 2132WAT     H2 6639   3.241   3.848   1.454
 2133WAT      O 6640   0.062   7.806   6.946
 2133WAT     H1 6641  -0.006   7.873   6.915
 2133WAT     H2 6642   0.028   7.759   7.027
 2134WAT      O 6643   0.561   1.217   2.623
 2134WAT     H1 6644   0.557   1.284   2.697
 2134WAT     H2 6645   0.576   1.265   2.536
 2135WAT      O 6646   8.289   0.046   3.900
 2135WAT     H1 6647   8.374   0.008   3.936
 2135WAT     H2 6648   8.217   0.036   3.968
 2136WAT      O 6649   1.438   7.019   3.156
 2136WAT     H1 6650   1.447   6.998   3.059
 2136WAT     H2 6651   1.367   7.087   3.170
 2137WAT      O 6652   5.135   1.001   0.248
 2137WAT     H1 6653   5.229   1.034   0.251
 2137WAT     H2 6654   5.078   1.066   0.198
 2138WAT      O 6655   0.638   3.388   1.538
 2138WAT     H1 6656   0.656   3.471   1.486
 2138WAT     H2 6657   0.574   3.408   1.612
 2139WAT      O 6658   3.890   9.090   5.758
 2139WAT     H1 6659   3.791   9.102   5.769
 2139WAT     H2 6660   3.908   9.002   5.715
 2140WAT      O 6661   7.710   3.591   1.277
 2140WAT     H1 6662   7.642   3.653   1.238
 2140WAT     H2 6663   7.800   3.635   1.274
 2141WAT      O 6664   8.825   9.490   1.754
 2141WAT     H1 6665   8.725   9.489   1.751
 2141WAT     H2 6666   8.858   9.582   1.734
 2142WAT      O 6667   3.073   9.106   1.167
 2142WAT     H1 6668   3.158   9.127   1.119
 2142WAT     H2 6669   2.995   9.138   1.112
 2143WAT      O 6670   3.432   4.971   6.613
 2143WAT     H1 6671   3.341   4.982   6.653
 2143WAT     H2 6672   3.493   5.041   6.650
 2144WAT      O 6673   9.036   4.565   3.831
 2144WAT     H1 6674   9.080   4.639   3.779
 2144WAT     H2 6675   8.984   4.507   3.769
 2145WAT      O 6676   4.109   9.001   7.967
 2145WAT     H1 6677   4.049   8.973   7.892
 2145WAT     H2 6678   4.125   9.099   7.961
 2146WAT      O 6679   5.187   0.429   0.484
 2146WAT     H1 6680   5.135   0.449   0.401
 2146WAT     H2 6681   5.187   0.331   0.500
 2147WAT      O 6682   7.681   5.118   8.380
 2147WAT     H1 6683   7.751   5.127   8.309
 2147WAT     H2 6684   7.681   5.200   8.437
 2148WAT      O 6685   3.012   5.513   2.376
 2148WAT     H1 6686   2.940   5.519   2.446
 2148WAT     H2 6687   2.971   5.485   2.289
 2149WAT      O 6688   9.854   9.198   3.758
 2149WAT     H1 6689   9.913   9.178   3.837
 2149WAT     H2 6690   9.780   9.259   3.787
 2150WAT      O 6691   5.594   8.474   9.586
 2150WAT     H1 6692   5.502   8.438   9.572
 2150WAT     H2 6693   5.661   8.400   9.580
 2151WAT      O 6694   7.676   0.560   8.180
 2151WAT     H1 6695   7.598   0.544   8.119
 2151WAT     H2 6696   7.652   0.630   8.247
 2152WAT      O 6697   3.654   6.158   1.144
 2152WAT     H1 6698   3.566   6.111   1.153
 2152WAT     H2 6699   3.699   6.128   1.060
 2153WAT      O 6700   9.202   9.085   9.675
 2153WAT     H1 6701   9.123   9.104   9.733
 2153WAT     H2 6702   9.187   9.002   9.623
 2154WAT      O 6703   9.057   5.830   6.059
 2154WAT     H1 6704   9.046   5.730   6.053
 2154WAT     H2 6705   9.138   5.852   6.113
 2155WAT      O 6706   4.398   0.499   3.406
 2155WAT     H1 6707   4.418   0.535   3.497
 2155WAT     H2 6708   4.300   0.502   3.389
 2156WAT      O 6709   9.094   7.170   3.601
 2156WAT     H1 6710   9.181   7.127   3.579
 2156WAT     H2 6711   9.107   7.269   3.613
 2157WAT      O 6712   9.221   1.114   5.692
 2157WAT     H1 6713   9.238   1.022   5.657
 2157WAT     H2 6714   9.133   1.117   5.738
 2158WAT      O 6715   5.554   2.749   6.648
 2158WAT     H1 6716   5.600   2.667   6.613
 2158WAT     H2 6717   5.603   2.831   6.619
 2159WAT      O 6718   5.412   6.639   2.769
 2159WAT     H1 6719   5.483   6.654   2.700
 2159WAT     H2 6720   5.404   6.542   2.789
 2160WAT      O 6721   9.284   3.366   9.371
 2160WAT     H1 6722   9.344   3.431   9.418
 2160WAT     H2 6723   9.194   3.408   9.358
 2161WAT      O 6724   5.777   0.346   3.554
 2161WAT     H1 6725   5.703   0.283   3.531
 2161WAT     H2 6726   5.850   0.338   3.487
 2162WAT      O 6727   7.906   3.643   7.589
 2162WAT     H1 6728   7.984   3.685   7.544
 2162WAT     H2 6729   7.852   3.713   7.635
 2163WAT      O 6730   3.403   5.304   9.262
 2163WAT     H1 6731   3.372   5.226   9.316
 2163WAT     H2 6732   3.502   5.311   9.265
 2164WAT      O 6733   3.634   7.730   9.505
 2164WAT     H1 6734   3.553   7.782   9.534
 2164WAT     H2 6735   3.706   7.740   9.573
 2165WAT      O 6736   6.625   4.995   6.393
 2165WAT     H1 6737   6.658   4.987   6.487
 2165WAT     H2 6738   6.574   4.912   6.368
 2166WAT      O 6739   0.218   5.370   5.500
 2166WAT     H1 6740   0.261   5.333   5.582
 2166WAT     H2 6741   0.246   5.317   5.420
 2167WAT      O 6742   3.574   8.762   6.263
 2167WAT     H1 6743   3.564   8.763   6.362
 2167WAT     H2 6744   3.518   8.835   6.223
 2168WAT      O 6745   4.496   5.007   7.045
 2168WAT     H1 6746   4.431   5.083   7.051
 2168WAT     H2 6747   4.515   4.972   7.137
 2169WAT      O 6748   1.941   2.569   1.147
 2169WAT     H1 6749   2.002   2.585   1.225
 2169WAT     H2 6750   1.896   2.480   1.157
 2170WAT      O 6751   1.604   1.016   0.545
 2170WAT     H1 6752   1.669   1.057   0.481
 2170WAT     H2 6753   1.612   1.062   0.633
 2171WAT      O 6754   7.200   0.564   0.448
 2171WAT     H1 6755   7.286   0.609   0.427
 2171WAT     H2 6756   7.124   0.628   0.433
 2172WAT      O 6757   2.895   3.087   8.424
 2172WAT     H1 6758   2.908   3.105   8.326
 2172WAT     H2 6759   2.866   3.170   8.470
 2173WAT      O 6760   5.993   5.023   1.714
 2173WAT     H1 6761   5.936   4.947   1.746
 2173WAT     H2 6762   5.973   5.040   1.617
 2174WAT      O 6763   5.315   0.950   6.892
 2174WAT     H1 6764   5.312   0.855   6.862
 2174WAT     H2 6765   5.232   0.971   6.944
 2175WAT      O 6766   7.587   9.404   2.632
 2175WAT     H1 6767   7.571   9.315   2.674
 2175WAT     H2 6768   7.499   9.450   2.619
 2176WAT      O 6769   4.264   7.856   5.117
 2176WAT     H1 6770   4.333   7.804   5.167
 2176WAT     H2 6771   4.278   7.954   5.132
 2177WAT      O 6772   6.773   0.069   4.408
 2177WAT     H1 6773   6.760   0.144   4.344
 2177WAT     H2 6774   6.722   0.087   4.492
 2178WAT      O 6775   4.867   8.328   1.053
 2178WAT     H1 6776   4.819   8.244   1.079
 2178WAT     H2 6777   4.961   8.325   1.087
 2179WAT      O 6778   7.049   8.621   1.791
 2179WAT     H1 6779   6.978   8.673   1.837
 2179WAT     H2 6780   7.008   8.541   1.746
 2180WAT      O 6781   9.047   5.643   0.222
 2180WAT     H1 6782   9.112   5.699   0.171
 2180WAT     H2 6783   9.053   5.666   0.319
 2181WAT      O 6784   8.778   7.313   1.418
 2181WAT     H1 6785   8.824   7.244   1.473
 2181WAT     H2 6786   8.844   7.358   1.358
 2182WAT      O 6787   5.847   3.673   0.588
 2182WAT     H1 6788   5.770   3.644   0.644
 2182WAT     H2 6789   5.882   3.760   0.622
 2183WAT      O 6790   5.340   8.604   2.616
 2183WAT     H1 6791   5.282   8.665   2.670
 2183WAT     H2 6792   5.334   8.629   2.520
 2184WAT      O 6793   4.394   1.442   7.146
 2184WAT     H1 6794   4.457   1.497   7.200
 2184WAT     H2 6795   4.303   1.444   7.187
 2185WAT      O 6796   7.435   9.801   1.096
 2185WAT     H1 6797   7.345   9.841   1.116
 2185WAT     H2 6798   7.483   9.857   1.029
 2186WAT      O 6799   4.962   2.080   1.958
 2186WAT     H1 6800   4.919   2.022   1.889
 2186WAT     H2 6801   4.905   2.160   1.974
 2187WAT      O 6802   0.656   3.700   0.740
 2187WAT     H1 6803   0.699   3.617   0.775
 2187WAT     H2 6804   0.633   3.687   0.643
 2188WAT      O 6805   7.711   9.614   6.321
 2188WAT     H1 6806   7.712   9.539   6.388
 2188WAT     H2 6807   7.678   9.579   6.233
 2189WAT      O 6808   5.024   5.314   7.479
 2189WAT     H1 6809   5.059   5.396   7.434
 2189WAT     H2 6810   4.978   5.256   7.412
 2190WAT      O 6811   7.504   6.861   8.029
 2190WAT     H1 6812   7.592   6.817   8.046
 2190WAT     H2 6813   7.497   6.885   7.932
 2191WAT      O 6814   2.802   9.128   6.067
 2191WAT     H1 6815   2.847   9.041   6.089
 2191WAT     H2 6816   2.725   9.143   6.129
 2192WAT      O 6817   2.515   5.143   2.032
 2192WAT     H1 6818   2.538   5.052   2.065
 2192WAT     H2 6819   2.494   5.203   2.109
 2193WAT      O 6820   7.682   8.721   9.430
 2193WAT     H1 6821   7.685   8.765   9.340
 2193WAT     H2 6822   7.773   8.685   9.452
 2194WAT      O 6823   5.688   5.080   4.631
 2194WAT     H1 6824   5.739   5.074   4.717
 2194WAT     H2 6825   5.593   5.056   4.647
 2195WAT      O 6826   8.683   9.543   0.752
 2195WAT     H1 6827   8.718   9.557   0.845
 2195WAT     H2 6828   8.660   9.446   0.740
 2196WAT      O 6829   9.331   4.526   7.122
 2196WAT     H1 6830   9.297   4.596   7.184
 2196WAT     H2 6831   9.383   4.569   7.049
 2197WAT      O 6832   8.519   4.400   4.750
 2197WAT     H1 6833   8.592   4.433   4.811
 2197WAT     H2 6834   8.450   4.351   4.803
 2198WAT      O 6835   5.000   0.671   4.790
 2198WAT     H1 6836   4.976   0.673   4.693
 2198WAT     H2 6837   4.919   0.646   4.843
 2199WAT      O 6838   3.855   9.577   6.092
 2199WAT     H1 6839   3.916   9.498   6.092
 2199WAT     H2 6840   3.904   9.657   6.058
 2200WAT      O 6841   9.762   8.940   1.595
 2200WAT     H1 6842   9.676   8.930   1.544
 2200WAT     H2 6843   9.829   8.875   1.561
 2201WAT      O 6844   4.914   0.827   4.301
 2201WAT     H1 6845   4.866   0.914   4.313
 2201WAT     H2 6846   4.995   0.826   4.361
 2202WAT      O 6847   0.369   2.264   0.400
 2202WAT     H1 6848   0.377   2.204   0.321
 2202WAT     H2 6849   0.369   2.359   0.370
 2203WAT      O 6850   1.461   9.039   8.250
 2203WAT     H1 6851   1.449   9.102   8.326
 2203WAT     H2 6852   1.415   8.952   8.272
 2204WAT      O 6853   4.056   6.963   8.899
 2204WAT     H1 6854   4.105   7.041   8.861
 2204WAT     H2 6855   4.063   6.964   8.999
 2205WAT      O 6856   5.074   6.523   4.576
 2205WAT     H1 6857   5.042   6.579   4.652
 2205WAT     H2 6858   5.040   6.561   4.490
 2206WAT      O 6859   4.799   1.276   1.156
 2206WAT     H1 6860   4.888   1.305   1.123
 2206WAT     H2 6861   4.797   1.277   1.256
 2207WAT      O 6862   3.927   6.302   9.421
 2207WAT     H1 6863   3.877   6.216   9.417
 2207WAT     H2 6864   3.949   6.332   9.329
 2208WAT      O 6865   4.177   6.488   2.965
 2208WAT     H1 6866   4.277   6.480   2.961
 2208WAT     H2 6867   4.151   6.584   2.962
 2209WAT      O 6868   3.434   5.744   4.803
 2209WAT     H1 6869   3.454   5.837   4.833
 2209WAT     H2 6870   3.338   5.723   4.822
 2210WAT      O 6871   3.448   3.436   1.583
 2210WAT     H1 6872   3.529   3.446   1.526
 2210WAT     H2 6873   3.466   3.368   1.655
 2211WAT      O 6874   9.106   4.219   8.551
 2211WAT     H1 6875   9.107   4.208   8.452
 2211WAT     H2 6876   9.053   4.144   8.592
 2212WAT      O 6877   7.959   1.292   5.284
 2212WAT     H1 6878   8.027   1.362   5.262
 2212WAT     H2 6879   8.004   1.204   5.297
 2213WAT      O 6880   8.178   5.538   6.668
 2213WAT     H1 6881   8.274   5.550   6.643
 2213WAT     H2 6882   8.170   5.529   6.768
 2214WAT      O 6883   4.530   1.852   9.183
 2214WAT     H1 6884   4.441   1.858   9.137
 2214WAT     H2 6885   4.515   1.838   9.281
 2215WAT      O 6886   0.128   2.487   3.886
 2215WAT     H1 6887   0.153   2.461   3.979
 2215WAT     H2 6888   0.045   2.438   3.860
 2216WAT      O 6889   9.183   8.618   9.016
 2216WAT     H1 6890   9.161   8.675   8.936
 2216WAT     H2 6891   9.226   8.674   9.086
 2217WAT      O 6892   3.334   9.584   8.211
 2217WAT     H1 6893   3.353   9.548   8.119
 2217WAT     H2 6894   3.326   9.684   8.206
 2218WAT      O 6895   3.554   6.632   7.734
 2218WAT     H1 6896   3.457   6.630   7.710
 2218WAT     H2 6897   3.609   6.605   7.656
 2219WAT      O 6898   5.414   7.530   0.304
 2219WAT     H1 6899   5.426   7.628   0.314
 2219WAT     H2 6900   5.392   7.489   0.392
 2220WAT      O 6901   1.081   1.260   7.564
 2220WAT     H1 6902   1.041   1.278   7.654
 2220WAT     H2 6903   1.017   1.287   7.493
 2221WAT      O 6904   6.318   1.764   6.069
 2221WAT     H1 6905   6.386   1.772   6.142
 2221WAT     H2 6906   6.361   1.726   5.988
 2222WAT      O 6907   1.634   5.285   8.796
 2222WAT     H1 6908   1.677   5.281   8.706
 2222WAT     H2 6909   1.705   5.286   8.867
 2223WAT      O 6910   9.331   2.996   4.545
 2223WAT     H1 6911   9.382   2.912   4.565
 2223WAT     H2 6912   9.315   3.046   4.630
 2224WAT      O 6913   1.286   6.768   0.068
 2224WAT     H1 6914   1.298   6.729   0.159
 2224WAT     H2 6915   1.297   6.695  -0.000
 2225WAT      O 6916   8.245   4.012   9.262
 2225WAT     H1 6917   8.188   4.079   9.214
 2225WAT     H2 6918   8.280   4.053   9.346
 2226WAT      O 6919   7.183   5.035   9.428
 2226WAT     H1 6920   7.260   5.040   9.364
 2226WAT     H2 6921   7.211   4.985   9.510
 2227WAT      O 6922   7.094   7.575   1.039
 2227WAT     H1 6923   7.088   7.673   1.054
 2227WAT     H2 6924   7.004   7.533   1.052
 2228WAT      O 6925   2.388   5.003   2.999
 2228WAT     H1 6926   2.319   5.073   3.017
 2228WAT     H2 6927   2.478   5.038   3.025
 2229WAT      O 6928   6.059   1.802   2.313
 2229WAT     H1 6929   6.068   1.717   2.365
 2229WAT     H2 6930   5.970   1.805   2.269
 2230WAT      O 6931   5.783   9.452   2.801
 2230WAT     H1 6932   5.685   9.468   2.811
 2230WAT     H2 6933   5.799   9.354   2.785
 2231WAT      O 6934   7.631   4.991   9.088
 2231WAT     H1 6935   7.558   4.954   9.030
 2231WAT     H2 6936   7.638   5.090   9.073
 2232WAT      O 6937   9.560   5.488   1.197
 2232WAT     H1 6938   9.536   5.454   1.106
 2232WAT     H2 6939   9.477   5.507   1.249
 2233WAT      O 6940   4.643   8.157   4.586
 2233WAT     H1 6941   4.566   8.159   4.522
 2233WAT     H2 6942   4.656   8.064   4.619
 2234WAT      O 6943   1.868   9.451   6.784
 2234WAT     H1 6944   1.799   9.487   6.722
 2234WAT     H2 6945   1.836   9.365   6.823
 2235WAT      O 6946   9.792   7.996   3.348
 2235WAT     H1 6947   9.865   8.049   3.390
 2235WAT     H2 6948   9.807   7.992   3.249
 2236WAT      O 6949   6.099   0.731   6.100
 2236WAT     H1 6950   6.171   0.668   6.131
 2236WAT     H2 6951   6.090   0.805   6.167
 2237WAT      O 6952   3.594   6.258   0.146
 2237WAT     H1 6953   3.563   6.239   0.053
 2237WAT     H2 6954   3.518   6.246   0.210
 2238WAT      O 6955   6.313   1.521   3.389
 2238WAT     H1 6956   6.328   1.424   3.406
 2238WAT     H2 6957   6.321   1.571   3.476
 2239WAT      O 6958   1.113   7.856   7.825
 2239WAT     H1 6959   1.157   7.934   7.780
 2239WAT     H2 6960   1.074   7.887   7.912
 2240WAT      O 6961   1.329   7.121   6.966
 2240WAT     H1 6962   1.290   7.064   7.038
 2240WAT     H2 6963   1.314   7.079   6.877
 2241WAT      O 6964   0.576   2.675   6.233
 2241WAT     H1 6965   0.547   2.739   6.162
 2241WAT     H2 6966   0.635   2.722   6.299
 2242WAT      O 6967   0.287   9.726   6.875
 2242WAT     H1 6968   0.222   9.741   6.949
 2242WAT     H2 6969   0.309   9.628   6.869
 2243WAT      O 6970   4.737   6.372   7.654
 2243WAT     H1 6971   4.701   6.360   7.562
 2243WAT     H2 6972   4.680   6.436   7.705
 2244WAT      O 6973   5.660   5.179   2.027
 2244WAT     H1 6974   5.586   5.180   1.959
 2244WAT     H2 6975   5.621   5.169   2.118
 2245WAT      O 6976   3.599   6.762   5.767
 2245WAT     H1 6977   3.633   6.687   5.823
 2245WAT     H2 6978   3.610   6.739   5.670
 2246WAT      O 6979   0.461   7.231   0.546
 2246WAT     H1 6980   0.362   7.239   0.533
 2246WAT     H2 6981   0.480   7.199   0.639
 2247WAT      O 6982   0.638   0.062   2.334
 2247WAT     H1 6983   0.642  -0.036   2.355
 2247WAT     H2 6984   0.614   0.113   2.417
 2248WAT      O 6985   0.280   8.464   0.498
 2248WAT     H1 6986   0.191   8.450   0.543
 2248WAT     H2 6987   0.271   8.446   0.400
 2249WAT      O 6988   8.188   6.904   9.332
 2249WAT     H1 6989   8.090   6.886   9.322
 2249WAT     H2 6990   8.236   6.874   9.250
 2250WAT      O 6991   7.344   3.789   8.948
 2250WAT     H1 6992   7.380   3.883   8.953
 2250WAT     H2 6993   7.312   3.761   9.038
 2251WAT      O 6994   4.740   8.320   0.801
 2251WAT     H1 6995   4.799   8.379   0.746
 2251WAT     H2 6996   4.779   8.309   0.892
 2252WAT      O 6997   7.456   4.835   6.944
 2252WAT     H1 6998   7.453   4.765   7.015
 2252WAT     H2 6999   7.426   4.923   6.982
 2253WAT      O 7000   0.765   7.756   0.617
 2253WAT     H1 7001   0.757   7.808   0.532
 2253WAT     H2 7002   0.779   7.659   0.596
 2254WAT      O 7003   2.639   8.035   7.596
 2254WAT     H1 7004   2.603   7.992   7.679
 2254WAT     H2 7005   2.682   8.123   7.620
 2255WAT      O 7006   9.704   6.211   8.896
 2255WAT     H1 7007   9.617   6.224   8.848
 2255WAT     H2 7008   9.686   6.202   8.994
 2256WAT      O 7009   4.190   2.343   4.615
 2256WAT     H1 7010   4.254   2.416   4.638
 2256WAT     H2 7011   4.107   2.382   4.575
 2257WAT      O 7012   3.261   6.655   7.666
 2257WAT     H1 7013   3.258   6.754   7.655
 2257WAT     H2 7014   3.168   6.619   7.673
 2258WAT      O 7015   7.073   3.944   4.492
 2258WAT     H1 7016   7.132   3.996   4.429
 2258WAT     H2 7017   7.075   3.988   4.582
 2259WAT      O 7018   1.047   7.319   2.420
 2259WAT     H1 7019   0.995   7.401   2.444
 2259WAT     H2 7020   1.092   7.333   2.332
 2260WAT      O 7021   2.306   9.286   6.852
 2260WAT     H1 7022   2.325   9.382   6.827
 2260WAT     H2 7023   2.231   9.282   6.917
 2261WAT      O 7024   5.078   4.935   3.550
 2261WAT     H1 7025   5.005   4.962   3.613
 2261WAT     H2 7026   5.165   4.931   3.600
 2262WAT      O 7027   0.030   6.373   6.391
 2262WAT     H1 7028   0.027   6.450   6.328
 2262WAT     H2 7029   0.120   6.370   6.435
 2263WAT      O 7030   4.144   8.119   7.010
 2263WAT     H1 7031   4.223   8.181   7.012
 2263WAT     H2 7032   4.166   8.036   7.063
 2264WAT      O 7033   1.004   7.423   1.937
 2264WAT     H1 7034   0.934   7.356   1.913
 2264WAT     H2 7035   1.086   7.406   1.881
 2265WAT      O 7036   4.222   5.252   1.196
 2265WAT     H1 7037   4.212   5.155   1.173
 2265WAT     H2 7038   4.133   5.297   1.193
 2266WAT      O 7039   1.897   0.304   8.648
 2266WAT     H1 7040   1.929   0.226   8.594
 2266WAT     H2 7041   1.810   0.336   8.612
 2267WAT      O 7042   9.305   2.922   1.573
 2267WAT     H1 7043   9.379   2.921   1.505
 2267WAT     H2 7044   9.220   2.895   1.530
 2268WAT      O 7045   1.928   1.415   6.674
 2268WAT     H1 7046   1.849   1.382   6.622
 2268WAT     H2 7047   1.941   1.513   6.656
 2269WAT      O 7048   4.385   0.968   8.421
 2269WAT     H1 7049   4.468   0.940   8.372
 2269WAT     H2 7050   4.312   0.986   8.355
 2270WAT      O 7051   2.353   7.568   9.335
 2270WAT     H1 7052   2.275   7.621   9.369
 2270WAT     H2 7053   2.421   7.631   9.297
 2271WAT      O 7054   9.196   1.942   2.964
 2271WAT     H1 7055   9.166   1.996   3.043
 2271WAT     H2 7056   9.219   2.004   2.889
 2272WAT      O 7057   5.918   7.861   3.408
 2272WAT     H1 7058   5.968   7.874   3.493
 2272WAT     H2 7059   5.826   7.900   3.417
 2273WAT      O 7060   4.694   2.463   0.945
 2273WAT     H1 7061   4.655   2.372   0.960
 2273WAT     H2 7062   4.710   2.476   0.847
 2274WAT      O 7063   9.163   0.149   5.975
 2274WAT     H1 7064   9.144   0.209   6.053
 2274WAT     H2 7065   9.262   0.146   5.958
 2275WAT      O 7066   1.705   1.364   2.766
 2275WAT     H1 7067   1.765   1.332   2.693
 2275WAT     H2 7068   1.688   1.289   2.830
 2276WAT      O 7069   7.132   3.253   9.812
 2276WAT     H1 7070   7.197   3.291   9.746
 2276WAT     H2 7071   7.062   3.201   9.763
 2277WAT      O 7072   9.336   4.454   5.931
 2277WAT     H1 7073   9.319   4.549   5.904
 2277WAT     H2 7074   9.426   4.426   5.898
 2278WAT      O 7075   1.983   7.123   9.395
 2278WAT     H1 7076   1.931   7.150   9.476
 2278WAT     H2 7077   2.033   7.203   9.360
 2279WAT      O 7078   2.274   1.614   1.820
 2279WAT     H1 7079   2.295   1.625   1.917
 2279WAT     H2 7080   2.210   1.538   1.809
 2280WAT      O 7081   1.525   5.290   6.800
 2280WAT     H1 7082   1.531   5.277   6.899
 2280WAT     H2 7083   1.612   5.262   6.758
 2281WAT      O 7084   4.688   7.169   9.117
 2281WAT     H1 7085   4.591   7.150   9.128
 2281WAT     H2 7086   4.708   7.262   9.146
 2282WAT      O 7087   6.856   5.334   4.263
 2282WAT     H1 7088   6.782   5.351   4.328
 2282WAT     H2 7089   6.851   5.239   4.233
 2283WAT      O 7090   2.546   7.314   4.989
 2283WAT     H1 7091   2.613   7.348   4.922
 2283WAT     H2 7092   2.477   7.260   4.941
 2284WAT      O 7093   6.640   0.641   5.401
 2284WAT     H1 7094   6.590   0.555   5.397
 2284WAT     H2 7095   6.649   0.670   5.496
 2285WAT      O 7096   2.541   7.656   2.112
 2285WAT     H1 7097   2.622   7.632   2.058
 2285WAT     H2 7098   2.516   7.751   2.095
 2286WAT      O 7099   2.152   7.263   4.494
 2286WAT     H1 7100   2.242   7.250   4.452
 2286WAT     H2 7101   2.139   7.359   4.516
 2287WAT      O 7102   0.085   0.233   2.466
 2287WAT     H1 7103   0.072   0.178   2.383
 2287WAT     H2 7104   0.168   0.202   2.513
 2288WAT      O 7105   4.678   8.183   5.319
 2288WAT     H1 7106   4.608   8.167   5.388
 2288WAT     H2 7107   4.645   8.250   5.253
 2289WAT      O 7108   7.417   0.723   0.388
 2289WAT     H1 7109   7.513   0.741   0.410
 2289WAT     H2 7110   7.393   0.770   0.303
 2290WAT      O 7111   6.567   1.194   7.326
 2290WAT     H1 7112   6.548   1.212   7.230
 2290WAT     H2 7113   6.481   1.175   7.374
 2291WAT      O 7114   3.987   3.183   4.164
 2291WAT     H1 7115   4.036   3.205   4.080
 2291WAT     H2 7116   3.965   3.086   4.166
 2292WAT      O 7117   1.057   2.176   0.322
 2292WAT     H1 7118   1.083   2.223   0.406
 2292WAT     H2 7119   1.139   2.150   0.271
 2293WAT      O 7120   3.046   0.104   3.855
 2293WAT     H1 7121   3.093   0.018   3.837
 2293WAT     H2 7122   3.112   0.170   3.891
 2294WAT      O 7123   2.592   9.545   7.450
 2294WAT     H1 7124   2.600   9.463   7.507
 2294WAT     H2 7125   2.496   9.571   7.441
 2295WAT      O 7126   0.795   6.720   8.291
 2295WAT     H1 7127   0.823   6.779   8.367
 2295WAT     H2 7128   0.815   6.625   8.314
 2296WAT      O 7129   0.246   0.224   4.308
 2296WAT     H1 7130   0.283   0.315   4.325
 2296WAT     H2 7131   0.303   0.156   4.354
 2297WAT      O 7132   7.949   4.645   5.393
 2297WAT     H1 7133   7.865   4.618   5.441
 2297WAT     H2 7134   8.021   4.580   5.414
 2298WAT      O 7135   8.966   0.549   0.878
 2298WAT     H1 7136   8.913   0.516   0.800
 2298WAT     H2 7137   8.907   0.560   0.957
 2299WAT      O 7138   3.085   7.413   4.700
 2299WAT     H1 7139   3.027   7.491   4.678
 2299WAT     H2 7140   3.149   7.439   4.772
 2300WAT      O 7141   5.678   1.115   9.479
 2300WAT     H1 7142   5.613   1.049   9.440
 2300WAT     H2 7143   5.770   1.077   9.475
 2301WAT      O 7144   2.875   8.143   0.946
 2301WAT     H1 7145   2.778   8.153   0.965
 2301WAT     H2 7146   2.893   8.051   0.911
 2302WAT      O 7147   8.481   1.322   3.333
 2302WAT     H1 7148   8.482   1.321   3.433
 2302WAT     H2 7149   8.507   1.413   3.301
 2303WAT      O 7150   3.063   1.100   5.075
 2303WAT     H1 7151   3.132   1.136   5.139
 2303WAT     H2 7152   2.972   1.130   5.103
 2304WAT      O 7153   2.083   5.499   6.756
 2304WAT     H1 7154   2.024   5.436   6.805
 2304WAT     H2 7155   2.080   5.589   6.799
 2305WAT      O 7156   7.146   6.208   9.346
 2305WAT     H1 7157   7.231   6.261   9.356
 2305WAT     H2 7158   7.139   6.175   9.252
 2306WAT      O 7159   1.529   3.716   2.467
 2306WAT     H1 7160   1.525   3.699   2.565
 2306WAT     H2 7161   1.590   3.650   2.424
 2307WAT      O 7162   0.406   1.307   3.368
 2307WAT     H1 7163   0.393   1.235   3.435
 2307WAT     H2 7164   0.317   1.347   3.343
 2308WAT      O 7165   8.244   9.812   8.384
 2308WAT     H1 7166   8.253   9.788   8.481
 2308WAT     H2 7167   8.302   9.891   8.364
 2309WAT      O 7168   2.820   8.975   0.960
 2309WAT     H1 7169   2.753   8.940   0.895
 2309WAT     H2 7170   2.912   8.966   0.921
 2310WAT      O 7171   6.760   9.395   5.719
 2310WAT     H1 7172   6.779   9.488   5.753
 2310WAT     H2 7173   6.731   9.400   5.623
 2311WAT      O 7174   5.999   1.006   1.498
 2311WAT     H1 7175   5.936   0.936   1.530
 2311WAT     H2 7176   5.951   1.093   1.487
 2312WAT      O 7177   7.682   8.659   2.984
 2312WAT     H1 7178   7.735   8.587   2.938
 2312WAT     H2 7179   7.584   8.636   2.979
 2313WAT      O 7180   6.728   0.158   2.244
 2313WAT     H1 7181   6.782   0.075   2.248
 2313WAT     H2 7182   6.645   0.142   2.191
 2314WAT      O 7183   4.135   4.506   3.116
 2314WAT     H1 7184   4.227   4.500   3.153
 2314WAT     H2 7185   4.122   4.594   3.072
 2315WAT      O 7186   5.256   7.802   4.318
 2315WAT     H1 7187   5.276   7.819   4.414
 2315WAT     H2 7188   5.332   7.836   4.261
 2316WAT      O 7189   9.012   0.616   3.655
 2316WAT     H1 7190   9.109   0.593   3.654
 2316WAT     H2 7191   8.962   0.556   3.593
 2317WAT      O 7192   1.494   5.586   4.194
 2317WAT     H1 7193   1.453   5.611   4.106
 2317WAT     H2 7194   1.423   5.579   4.264
 2318WAT      O 7195   0.161   6.422   7.950
 2318WAT     H1 7196   0.188   6.493   8.015
 2318WAT     H2 7197   0.234   6.355   7.941
 2319WAT      O 7198   2.580   6.556   5.690
 2319WAT     H1 7199   2.586   6.493   5.613
 2319WAT     H2 7200   2.672   6.575   5.726
 2320WAT      O 7201   4.031   1.485   2.655
 2320WAT     H1 7202   4.096   1.410   2.645
 2320WAT     H2 7203   4.074   1.560   2.705
 2321WAT      O 7204   6.424   3.931   1.679
 2321WAT     H1 7205   6.405   4.023   1.713
 2321WAT     H2 7206   6.343   3.896   1.632
 2322WAT      O 7207   8.012   6.174   5.361
 2322WAT     H1 7208   8.078   6.170   5.435
 2322WAT     H2 7209   7.934   6.230   5.389
 2323WAT      O 7210   1.240   5.342   2.670
 2323WAT     H1 7211   1.189   5.257   2.657
 2323WAT     H2 7212   1.221   5.379   2.761
 2324WAT      O 7213   4.505   8.446   5.272
 2324WAT     H1 7214   4.445   8.378   5.230
 2324WAT     H2 7215   4.526   8.518   5.206
 2325WAT      O 7216   6.443   2.642   8.985
 2325WAT     H1 7217   6.463   2.571   9.053
 2325WAT     H2 7218   6.432   2.599   8.895
 2326WAT      O 7219   1.807   3.330   9.542
 2326WAT     H1 7220   1.872   3.334   9.466
 2326WAT     H2 7221   1.855   3.302   9.625
 2327WAT      O 7222   3.221   0.383   8.821
 2327WAT     H1 7223   3.142   0.443   8.838
 2327WAT     H2 7224   3.199   0.321   8.745
 2328WAT      O 7225   3.641   5.864   1.621
 2328WAT     H1 7226   3.588   5.945   1.596
 2328WAT     H2 7227   3.637   5.851   1.720
 2329WAT      O 7228   6.393   4.383   1.153
 2329WAT     H1 7229   6.341   4.303   1.182
 2329WAT     H2 7230   6.341   4.466   1.173
 2330WAT      O 7231   2.544   8.368   4.147
 2330WAT     H1 7232   2.564   8.276   4.111
 2330WAT     H2 7233   2.477   8.413   4.088
 2331WAT      O 7234   4.222   1.018   8.194
 2331WAT     H1 7235   4.232   1.113   8.165
 2331WAT     H2 7236   4.270   0.958   8.130
 2332WAT      O 7237   7.922   7.083   8.231
 2332WAT     H1 7238   7.906   7.099   8.133
 2332WAT     H2 7239   7.834   7.087   8.280
 2333WAT      O 7240   6.151   0.367   5.694
 2333WAT     H1 7241   6.246   0.352   5.668
 2333WAT     H2 7242   6.143   0.364   5.794
 2334WAT      O 7243   8.782   3.030   7.731
 2334WAT     H1 7244   8.730   3.056   7.812
 2334WAT     H2 7245   8.782   2.930   7.722
 2335WAT      O 7246   2.730   8.679   0.594
 2335WAT     H1 7247   2.680   8.595   0.615
 2335WAT     H2 7248   2.823   8.673   0.630
 2336WAT      O 7249   8.387   6.265   2.824
 2336WAT     H1 7250   8.440   6.305   2.899
 2336WAT     H2 7251   8.392   6.165   2.830
 2337WAT      O 7252   4.256   9.017   8.213
 2337WAT     H1 7253   4.279   9.115   8.218
 2337WAT     H2 7254   4.315   8.972   8.147
 2338WAT      O 7255   8.763   6.883   0.452
 2338WAT     H1 7256   8.828   6.809   0.466
 2338WAT     H2 7257   8.704   6.892   0.533
 2339WAT      O 7258   3.043   8.982   6.112
 2339WAT     H1 7259   3.068   9.040   6.190
 2339WAT     H2 7260   3.108   8.997   6.037
 2340WAT      O 7261   3.949   7.681   8.193
 2340WAT     H1 7262   3.977   7.741   8.268
 2340WAT     H2 7263   4.005   7.598   8.195
 2341WAT      O 7264   2.011   1.618   0.754
 2341WAT     H1 7265   2.033   1.524   0.781
 2341WAT     H2 7266   2.041   1.681   0.825
 2342WAT      O 7267   7.987   2.602   5.495
 2342WAT     H1 7268   7.910   2.540   5.479
 2342WAT     H2 7269   7.973   2.686   5.443
 2343WAT      O 7270   5.881   1.583   6.829
 2343WAT     H1 7271   5.856   1.493   6.792
 2343WAT     H2 7272   5.823   1.604   6.908
 2344WAT      O 7273   9.287   0.580   4.534
 2344WAT     H1 7274   9.303   0.676   4.512
 2344WAT     H2 7275   9.336   0.522   4.468
 2345WAT      O 7276   4.583   8.892   7.102
 2345WAT     H1 7277   4.485   8.911   7.105
 2345WAT     H2 7278   4.621   8.898   7.195
 2346WAT      O 7279   0.406   8.904   4.776
 2346WAT     H1 7280   0.498   8.912   4.738
 2346WAT     H2 7281   0.404   8.942   4.868
 2347WAT      O 7282   2.185   4.539   8.875
 2347WAT     H1 7283   2.201   4.448   8.914
 2347WAT     H2 7284   2.259   4.600   8.902
 2348WAT      O 7285   2.162   4.270   8.978
 2348WAT     H1 7286   2.174   4.188   8.922
 2348WAT     H2 7287   2.141   4.244   9.072
 2349WAT      O 7288   2.027   9.814   4.386
 2349WAT     H1 7289   1.972   9.755   4.446
 2349WAT     H2 7290   2.042   9.769   4.299
 2350WAT      O 7291   2.699   7.065   0.992
 2350WAT     H1 7292   2.627   7.049   0.924
 2350WAT     H2 7293   2.682   7.009   1.072
 2351WAT      O 7294   6.267   5.393   9.490
 2351WAT     H1 7295   6.188   5.441   9.452
 2351WAT     H2 7296   6.246   5.295   9.499
 2352WAT      O 7297   4.829   4.345   9.375
 2352WAT     H1 7298   4.892   4.389   9.311
 2352WAT     H2 7299   4.803   4.255   9.340
 2353WAT      O 7300   2.994   1.369   3.867
 2353WAT     H1 7301   3.075   1.429   3.864
 2353WAT     H2 7302   2.967   1.347   3.773
 2354WAT      O 7303   3.063   4.090   2.590
 2354WAT     H1 7304   3.088   4.176   2.545
 2354WAT     H2 7305   2.978   4.104   2.641
 2355WAT      O 7306   8.773   6.719   2.382
 2355WAT     H1 7307   8.768   6.760   2.473
 2355WAT     H2 7308   8.682   6.722   2.340
 2356WAT      O 7309   0.742   8.253   9.042
 2356WAT     H1 7310   0.727   8.237   9.139
 2356WAT     H2 7311   0.684   8.192   8.988
 2357WAT      O 7312   8.187   4.004   2.420
 2357WAT     H1 7313   8.182   4.035   2.515
 2357WAT     H2 7314   8.147   4.074   2.360
 2358WAT      O 7315   6.473   2.783   5.517
 2358WAT     H1 7316   6.413   2.862   5.530
 2358WAT     H2 7317   6.558   2.797   5.568
 2359WAT      O 7318   7.238   3.987   8.182
 2359WAT     H1 7319   7.153   4.014   8.137
 2359WAT     H2 7320   7.268   3.898   8.148
 2360WAT      O 7321   0.129   4.669   7.502
 2360WAT     H1 7322   0.035   4.687   7.534
 2360WAT     H2 7323   0.153   4.574   7.521
 2361WAT      O 7324   4.256   9.596   7.710
 2361WAT     H1 7325   4.316   9.530   7.667
 2361WAT     H2 7326   4.263   9.588   7.810
 2362WAT      O 7327   8.517   1.471   0.453
 2362WAT     H1 7328   8.535   1.408   0.378
 2362WAT     H2 7329   8.560   1.559   0.434
 2363WAT      O 7330   3.279   1.582   0.957
 2363WAT     H1 7331   3.300   1.626   0.870
 2363WAT     H2 7332   3.352   1.603   1.023
 2364WAT      O 7333   7.582   0.591   2.160
 2364WAT     H1 7334   7.634   0.567   2.078
 2364WAT     H2 7335   7.484   0.582   2.141
 2365WAT      O 7336   3.085   4.922   9.636
 2365WAT     H1 7337   3.037   4.836   9.653
 2365WAT     H2 7338   3.025   4.984   9.584
 2366WAT      O 7339   9.617   6.576   6.692
 2366WAT     H1 7340   9.617   6.617   6.783
 2366WAT     H2 7341   9.541   6.614   6.638
 2367WAT      O 7342   3.731   0.730   1.819
 2367WAT     H1 7343   3.811   0.775   1.778
 2367WAT     H2 7344   3.762   0.664   1.887
 2368WAT      O 7345   6.391   2.125   2.364
 2368WAT     H1 7346   6.346   2.053   2.312
 2368WAT     H2 7347   6.458   2.171   2.306
 2369WAT      O 7348   3.235   8.707   7.051
 2369WAT     H1 7349   3.176   8.788   7.045
 2369WAT     H2 7350   3.183   8.631   7.091
 2370WAT      O 7351   0.036   7.813   5.506
 2370WAT     H1 7352   0.103   7.763   5.451
 2370WAT     H2 7353  -0.055   7.774   5.489
 2371WAT      O 7354   3.076   5.391   1.917
 2371WAT     H1 7355   3.048   5.463   1.854
 2371WAT     H2 7356   3.127   5.321   1.868
 2372WAT      O 7357   3.569   0.836   0.355
 2372WAT     H1 7358   3.471   0.826   0.375
 2372WAT     H2 7359   3.614   0.881   0.432
 2373WAT      O 7360   7.476   5.913   2.995
 2373WAT     H1 7361   7.447   5.941   3.087
 2373WAT     H2 7362   7.571   5.881   2.999
 2374WAT      O 7363   9.593   6.505   5.107
 2374WAT     H1 7364   9.548   6.573   5.165
 2374WAT     H2 7365   9.529   6.471   5.038
 2375WAT      O 7366   8.067   7.735   5.651
 2375WAT     H1 7367   8.055   7.706   5.556
 2375WAT     H2 7368   8.160   7.712   5.681
 2376WAT      O 7369   4.829   8.500   4.799
 2376WAT     H1 7370   4.902   8.438   4.771
 2376WAT     H2 7371   4.812   8.566   4.726
 2377WAT      O 7372   8.145   6.011   8.137
 2377WAT     H1 7373   8.137   6.080   8.208
 2377WAT     H2 7374   8.147   5.920   8.179
 2378WAT      O 7375   4.152   0.353   6.359
 2378WAT     H1 7376   4.096   0.382   6.281
 2378WAT     H2 7377   4.092   0.324   6.434
 2379WAT      O 7378   4.415   7.362   3.481
 2379WAT     H1 7379   4.376   7.272   3.461
 2379WAT     H2 7380   4.510   7.364   3.449
 2380WAT      O 7381   1.235   7.115   3.866
 2380WAT     H1 7382   1.254   7.035   3.924
 2380WAT     H2 7383   1.225   7.087   3.771
 2381WAT      O 7384   7.382   9.052   2.049
 2381WAT     H1 7385   7.311   9.025   1.985
 2381WAT     H2 7386   7.387   9.152   2.055
 2382WAT      O 7387   0.220   3.691   2.421
 2382WAT     H1 7388   0.183   3.736   2.340
 2382WAT     H2 7389   0.213   3.592   2.411
 2383WAT      O 7390   2.594   7.879   3.608
 2383WAT     H1 7391   2.607   7.827   3.523
 2383WAT     H2 7392   2.567   7.817   3.681
 2384WAT      O 7393   5.489   1.209   7.283
 2384WAT     H1 7394   5.403   1.162   7.266
 2384WAT     H2 7395   5.505   1.213   7.382
 2385WAT      O 7396   6.408   8.571   4.030
 2385WAT     H1 7397   6.309   8.576   4.012
 2385WAT     H2 7398   6.458   8.610   3.953
 2386WAT      O 7399   4.282   6.011   9.361
 2386WAT     H1 7400   4.343   5.949   9.410
 2386WAT     H2 7401   4.336   6.079   9.311
 2387WAT      O 7402   2.284   8.473   6.755
 2387WAT     H1 7403   2.272   8.377   6.731
 2387WAT     H2 7404   2.197   8.521   6.742
 2388WAT      O 7405   5.795   1.243   6.212
 2388WAT     H1 7406   5.845   1.196   6.139
 2388WAT     H2 7407   5.698   1.219   6.207
 2389WAT      O 7408   5.141   5.063   6.813
 2389WAT     H1 7409   5.071   5.069   6.741
 2389WAT     H2 7410   5.194   5.148   6.815
 2390WAT      O 7411   1.917   2.917   2.191
 2390WAT     H1 7412   2.004   2.959   2.219
 2390WAT     H2 7413   1.850   2.989   2.173
 2391WAT      O 7414   9.150   3.817   2.047
 2391WAT     H1 7415   9.159   3.792   1.950
 2391WAT     H2 7416   9.102   3.905   2.054
 2392WAT      O 7417   9.410   3.249   0.020
 2392WAT     H1 7418   9.320   3.229   0.059
 2392WAT     H2 7419   9.401   3.324  -0.046
 2393WAT      O 7420   3.294   4.150   6.469
 2393WAT     H1 7421   3.294   4.249   6.452
 2393WAT     H2 7422   3.378   4.110   6.431
 2394WAT      O 7423   2.331   1.892   4.634
 2394WAT     H1 7424   2.424   1.882   4.600
 2394WAT     H2 7425   2.332   1.894   4.734
 2395WAT      O 7426   3.304   8.033   0.923
 2395WAT     H1 7427   3.246   7.996   0.995
 2395WAT     H2 7428   3.374   8.092   0.963
 2396WAT      O 7429   8.264   5.325   1.537
 2396WAT     H1 7430   8.205   5.340   1.616
 2396WAT     H2 7431   8.207   5.313   1.455
 2397WAT      O 7432   8.466   8.011   2.724
 2397WAT     H1 7433   8.474   8.033   2.626
 2397WAT     H2 7434   8.441   8.093   2.775
 2398WAT      O 7435   5.108   5.959   1.645
 2398WAT     H1 7436   5.118   5.939   1.548
 2398WAT     H2 7437   5.029   6.018   1.659
 2399WAT      O 7438   6.155   5.909   6.840
 2399WAT     H1 7439   6.186   5.840   6.775
 2399WAT     H2 7440   6.165   6.000   6.800
 2400WAT      O 7441   0.221   8.153   3.773
 2400WAT     H1 7442   0.219   8.244   3.813
 2400WAT     H2 7443   0.170   8.089   3.831
 2401WAT      O 7444   0.470   6.145   1.785
 2401WAT     H1 7445   0.453   6.143   1.687
 2401WAT     H2 7446   0.389   6.113   1.834
 2402WAT      O 7447   0.169   2.338   9.035
 2402WAT     H1 7448   0.134   2.416   8.982
 2402WAT     H2 7449   0.265   2.323   9.012
 2403WAT      O 7450   4.780   2.538   5.253
 2403WAT     H1 7451   4.831   2.617   5.287
 2403WAT     H2 7452   4.843   2.461   5.242
 2404WAT      O 7453   5.378   2.124   8.082
 2404WAT     H1 7454   5.299   2.115   8.143
 2404WAT     H2 7455   5.438   2.045   8.093
 2405WAT      O 7456   6.388   2.444   7.531
 2405WAT     H1 7457   6.437   2.372   7.579
 2405WAT     H2 7458   6.439   2.472   7.450
 2406WAT      O 7459   0.933   6.823   6.247
 2406WAT     H1 7460   1.017   6.850   6.199
 2406WAT     H2 7461   0.868   6.898   6.246
 2407WAT      O 7462   5.449   3.961   8.390
 2407WAT     H1 7463   5.439   4.051   8.348
 2407WAT     H2 7464   5.360   3.917   8.399
 2408WAT      O 7465   0.099   3.222   4.410
 2408WAT     H1 7466   0.082   3.126   4.386
 2408WAT     H2 7467   0.197   3.234   4.428
 2409WAT      O 7468   0.118   2.481   2.582
 2409WAT     H1 7469   0.201   2.466   2.528
 2409WAT     H2 7470   0.039   2.485   2.521
 2410WAT      O 7471   8.137   1.828   1.686
 2410WAT     H1 7472   8.090   1.808   1.600
 2410WAT     H2 7473   8.092   1.904   1.732
 2411WAT      O 7474   0.979   1.017   7.616
 2411WAT     H1 7475   0.886   1.053   7.619
 2411WAT     H2 7476   1.042   1.088   7.584
 2412WAT      O 7477   5.042   5.374   2.447
 2412WAT     H1 7478   5.008   5.323   2.527
 2412WAT     H2 7479   4.970   5.379   2.378
 2413WAT      O 7480   9.076   3.710   8.379
 2413WAT     H1 7481   9.025   3.686   8.297
 2413WAT     H2 7482   9.059   3.641   8.450
 2414WAT      O 7483   8.513   7.076   7.354
 2414WAT     H1 7484   8.523   7.076   7.255
 2414WAT     H2 7485   8.461   7.157   7.382
 2415WAT      O 7486   0.726   1.883   8.410
 2415WAT     H1 7487   0.745   1.963   8.353
 2415WAT     H2 7488   0.775   1.891   8.496
 2416WAT      O 7489   0.646   5.594   1.852
 2416WAT     H1 7490   0.725   5.642   1.814
 2416WAT     H2 7491   0.603   5.539   1.780
 2417WAT      O 7492   2.630   5.414   4.476
 2417WAT     H1 7493   2.654   5.459   4.390
 2417WAT     H2 7494   2.713   5.388   4.525
 2418WAT      O 7495   4.916   3.909   8.498
 2418WAT     H1 7496   4.903   3.855   8.581
 2418WAT     H2 7497   4.864   3.994   8.505
 2419WAT      O 7498   6.001   7.894   5.441
 2419WAT     H1 7499   5.966   7.975   5.487
 2419WAT     H2 7500   6.076   7.920   5.379
 2420WAT      O 7501   3.680   7.975   1.983
 2420WAT     H1 7502   3.581   7.960   1.989
 2420WAT     H2 7503   3.698   8.073   1.981
 2421WAT      O 7504   7.623   6.136   9.684
 2421WAT     H1 7505   7.674   6.120   9.599
 2421WAT     H2 7506   7.594   6.049   9.723
 2422WAT      O 7507   6.548   7.567   2.918
 2422WAT     H1 7508   6.609   7.571   2.839
 2422WAT     H2 7509   6.455   7.547   2.887
 2423WAT      O 7510   9.866   2.548   7.131
 2423WAT     H1 7511   9.846   2.553   7.033
 2423WAT     H2 7512   9.960   2.516   7.144
 2424WAT      O 7513   5.376   7.176   1.225
 2424WAT     H1 7514   5.439   7.242   1.185
 2424WAT     H2 7515   5.387   7.087   1.180
 2425WAT      O 7516   4.973   2.737   2.254
 2425WAT     H1 7517   5.037   2.690   2.314
 2425WAT     H2 7518   4.958   2.682   2.172
 2426WAT      O 7519   9.870   3.927   9.146
 2426WAT     H1 7520   9.919   4.005   9.107
 2426WAT     H2 7521   9.878   3.928   9.245
 2427WAT      O 7522   3.225   4.638   6.745
 2427WAT     H1 7523   3.168   4.676   6.673
 2427WAT     H2 7524   3.316   4.617   6.709
 2428WAT      O 7525   9.230   3.813   0.990
 2428WAT     H1 7526   9.270   3.895   1.031
 2428WAT     H2 7527   9.144   3.791   1.034
 2429WAT      O 7528   8.134   3.492   1.548
 2429WAT     H1 7529   8.172   3.401   1.563
 2429WAT     H2 7530   8.036   3.485   1.531
 2430WAT      O 7531   9.510   4.515   0.787
 2430WAT     H1 7532   9.530   4.592   0.847
 2430WAT     H2 7533   9.551   4.432   0.824
 2431WAT      O 7534   5.858   3.846   3.275
 2431WAT     H1 7535   5.865   3.904   3.194
 2431WAT     H2 7536   5.930   3.871   3.340
 2432WAT      O 7537   2.562   5.435   7.133
 2432WAT     H1 7538   2.482   5.495   7.119
 2432WAT     H2 7539   2.640   5.490   7.161
 2433WAT      O 7540   8.544   3.613   9.144
 2433WAT     H1 7541   8.630   3.586   9.102
 2433WAT     H2 7542   8.520   3.706   9.117
 2434WAT      O 7543   1.496   8.497   6.660
 2434WAT     H1 7544   1.414   8.463   6.614
 2434WAT     H2 7545   1.562   8.529   6.592
 2435WAT      O 7546   6.657   4.838   9.711
 2435WAT     H1 7547   6.735   4.776   9.713
 2435WAT     H2 7548   6.645   4.879   9.802
 2436WAT      O 7549   8.498   9.129   9.387
 2436WAT     H1 7550   8.506   9.172   9.477
 2436WAT     H2 7551   8.402   9.115   9.365
 2437WAT      O 7552   8.269   3.025   5.022
 2437WAT     H1 7553   8.351   2.968   5.022
 2437WAT     H2 7554   8.219   3.011   5.107
 2438WAT      O 7555   4.865   1.780   0.429
 2438WAT     H1 7556   4.819   1.745   0.347
 2438WAT     H2 7557   4.801   1.834   0.483
 2439WAT      O 7558   9.193   4.772   2.826
 2439WAT     H1 7559   9.175   4.690   2.881
 2439WAT     H2 7560   9.282   4.810   2.851
 2440WAT      O 7561   5.968   4.462   3.851
 2440WAT     H1 7562   6.048   4.490   3.797
 2440WAT     H2 7563   5.925   4.543   3.891
 2441WAT      O 7564   2.167   0.119   3.385
 2441WAT     H1 7565   2.228   0.197   3.403
 2441WAT     H2 7566   2.163   0.060   3.466
 2442WAT      O 7567   0.555   2.506   4.875
 2442WAT     H1 7568   0.569   2.470   4.783
 2442WAT     H2 7569   0.501   2.590   4.870
 2443WAT      O 7570   7.874   6.101   4.336
 2443WAT     H1 7571   7.805   6.032   4.317
 2443WAT     H2 7572   7.847   6.154   4.417
 2444WAT      O 7573   3.402   8.232   2.166
 2444WAT     H1 7574   3.376   8.279   2.251
 2444WAT     H2 7575   3.500   8.214   2.167
 2445WAT      O 7576   6.454   0.510   3.942
 2445WAT     H1 7577   6.396   0.529   4.021
 2445WAT     H2 7578   6.516   0.435   3.963
 2446WAT      O 7579   5.308   0.222   1.868
 2446WAT     H1 7580   5.246   0.144   1.878
 2446WAT     H2 7581   5.275   0.283   1.796
 2447WAT      O 7582   5.295   4.543   7.647
 2447WAT     H1 7583   5.337   4.593   7.571
 2447WAT     H2 7584   5.253   4.459   7.613
 2448WAT      O 7585   8.632   8.694   5.958
 2448WAT     H1 7586   8.549   8.707   5.904
 2448WAT     H2 7587   8.711   8.728   5.907
 2449WAT      O 7588   2.160   4.700   2.900
 2449WAT     H1 7589   2.065   4.706   2.927
 2449WAT     H2 7590   2.168   4.717   2.801
 2450WAT      O 7591   2.642   4.322   6.350
 2450WAT     H1 7592   2.657   4.330   6.251
 2450WAT     H2 7593   2.560   4.268   6.367
 2451WAT      O 7594   6.638   0.864   8.939
 2451WAT     H1 7595   6.556   0.810   8.955
 2451WAT     H2 7596   6.638   0.943   9.001
 2452WAT      O 7597   6.995   2.631   7.801
 2452WAT     H1 7598   7.081   2.596   7.765
 2452WAT     H2 7599   6.998   2.730   7.806
 2453WAT      O 7600   0.004   0.862   8.678
 2453WAT     H1 7601   0.023   0.834   8.584
 2453WAT     H2 7602  -0.090   0.838   8.701
 2454WAT      O 7603   4.333   0.044   4.953
 2454WAT     H1 7604   4.362   0.011   4.863
 2454WAT     H2 7605   4.323   0.144   4.950
 2455WAT      O 7606   7.770   3.847   1.176
 2455WAT     H1 7607   7.780   3.838   1.275
 2455WAT     H2 7608   7.725   3.934   1.155
 2456WAT      O 7609   1.941   7.859   7.904
 2456WAT     H1 7610   1.876   7.895   7.838
 2456WAT     H2 7611   1.900   7.783   7.954
 2457WAT      O 7612   7.920   0.906   6.401
 2457WAT     H1 7613   7.991   0.860   6.347
 2457WAT     H2 7614   7.842   0.928   6.342
 2458WAT      O 7615   8.373   2.883   3.205
 2458WAT     H1 7616   8.431   2.874   3.124
 2458WAT     H2 7617   8.362   2.793   3.248
 2459WAT      O 7618   8.773   0.985   9.626
 2459WAT     H1 7619   8.772   1.084   9.638
 2459WAT     H2 7620   8.696   0.958   9.569
 2460WAT      O 7621   9.477   4.852   9.379
 2460WAT     H1 7622   9.514   4.834   9.289
 2460WAT     H2 7623   9.514   4.939   9.414
 2461WAT      O 7624   1.333   3.267   9.756
 2461WAT     H1 7625   1.377   3.263   9.667
 2461WAT     H2 7626   1.256   3.203   9.759
 2462WAT      O 7627   2.989   8.918   0.730
 2462WAT     H1 7628   3.003   8.851   0.657
 2462WAT     H2 7629   3.056   8.902   0.803
 2463WAT      O 7630   4.153   5.584   3.555
 2463WAT     H1 7631   4.196   5.494   3.546
 2463WAT     H2 7632   4.224   5.654   3.557
 2464WAT      O 7633   0.423   0.813   4.303
 2464WAT     H1 7634   0.326   0.838   4.311
 2464WAT     H2 7635   0.458   0.842   4.214
 2465WAT      O 7636   9.142   0.672   9.310
 2465WAT     H1 7637   9.195   0.634   9.234
 2465WAT     H2 7638   9.081   0.602   9.347
 2466WAT      O 7639   3.275   4.074   1.023
 2466WAT     H1 7640   3.254   4.114   0.934
 2466WAT     H2 7641   3.207   4.005   1.046
 2467WAT      O 7642   2.013   3.945   7.075
 2467WAT     H1 7643   2.107   3.935   7.045
 2467WAT     H2 7644   1.980   4.037   7.051
 2468WAT      O 7645   1.075   7.899   9.641
 2468WAT     H1 7646   1.045   7.809   9.608
 2468WAT     H2 7647   1.024   7.923   9.724
 2469WAT      O 7648   0.299   9.121   3.709
 2469WAT     H1 7649   0.235   9.192   3.678
 2469WAT     H2 7650   0.374   9.164   3.760
 2470WAT      O 7651   0.687   8.488   0.786
 2470WAT     H1 7652   0.637   8.400   0.787
 2470WAT     H2 7653   0.626   8.560   0.753
 2471WAT      O 7654   6.759   2.919   0.666
 2471WAT     H1 7655   6.724   2.903   0.759
 2471WAT     H2 7656   6.838   2.981   0.671
 2472WAT      O 7657   7.494   4.181   9.167
 2472WAT     H1 7658   7.426   4.162   9.097
 2472WAT     H2 7659   7.557   4.251   9.134
 2473WAT      O 7660   1.891   9.665   7.316
 2473WAT     H1 7661   1.812   9.727   7.318
 2473WAT     H2 7662   1.871   9.588   7.255
 2474WAT      O 7663   0.929   2.249   0.715
 2474WAT     H1 7664   1.013   2.266   0.663
 2474WAT     H2 7665   0.907   2.330   0.769
 2475WAT      O 7666   2.747   2.545   4.955
 2475WAT     H1 7667   2.661   2.524   4.908
 2475WAT     H2 7668   2.747   2.499   5.044
 2476WAT      O 7669   4.932   1.620   6.659
 2476WAT     H1 7670   5.012   1.578   6.703
 2476WAT     H2 7671   4.937   1.719   6.668
 2477WAT      O 7672   3.070   2.097   2.416
 2477WAT     H1 7673   3.057   2.183   2.463
 2477WAT     H2 7674   3.162   2.093   2.376
 2478WAT      O 7675   8.408   8.099   6.664
 2478WAT     H1 7676   8.342   8.093   6.740
 2478WAT     H2 7677   8.391   8.024   6.600
 2479WAT      O 7678   7.044   6.907   4.630
 2479WAT     H1 7679   7.067   7.003   4.641
 2479WAT     H2 7680   7.017   6.890   4.535
 2480WAT      O 7681   1.955   7.589   2.315
 2480WAT     H1 7682   1.994   7.515   2.369
 2480WAT     H2 7683   1.949   7.671   2.371
 2481WAT      O 7684   2.306   5.836   5.027
 2481WAT     H1 7685   2.225   5.888   4.998
 2481WAT     H2 7686   2.282   5.740   5.037
 2482WAT      O 7687   2.711   4.518   6.750
 2482WAT     H1 7688   2.635   4.458   6.775
 2482WAT     H2 7689   2.679   4.590   6.689
 2483WAT      O 7690   7.772   4.581   8.681
 2483WAT     H1 7691   7.837   4.656   8.693
 2483WAT     H2 7692   7.800   4.524   8.604
 2484WAT      O 7693   4.703   2.925   3.045
 2484WAT     H1 7694   4.741   2.913   3.137
 2484WAT     H2 7695   4.730   3.015   3.010
 2485WAT      O 7696   1.420   7.477   3.950
 2485WAT     H1 7697   1.511   7.488   3.989
 2485WAT     H2 7698   1.421   7.402   3.884
 2486WAT      O 7699   9.512   7.961   6.089
 2486WAT     H1 7700   9.436   7.904   6.056
 2486WAT     H2 7701   9.599   7.916   6.070
 2487WAT      O 7702   0.976   0.211   5.602
 2487WAT     H1 7703   1.007   0.235   5.694
 2487WAT     H2 7704   1.028   0.264   5.535
 2488WAT      O 7705   2.487   0.089   6.258
 2488WAT     H1 7706   2.530   0.046   6.338
 2488WAT     H2 7707   2.483   0.023   6.184
 2489WAT      O 7708   6.515   7.848   5.302
 2489WAT     H1 7709   6.533   7.768   5.244
 2489WAT     H2 7710   6.576   7.845   5.382
 2490WAT      O 7711   1.174   0.941   8.120
 2490WAT     H1 7712   1.217   0.962   8.032
 2490WAT     H2 7713   1.156   0.843   8.126
 2491WAT      O 7714   3.241   7.355   6.867
 2491WAT     H1 7715   3.315   7.386   6.807
 2491WAT     H2 7716   3.156   7.350   6.815
 2492WAT      O 7717   4.954   0.643   2.700
 2492WAT     H1 7718   4.969   0.741   2.710
 2492WAT     H2 7719   5.004   0.594   2.772
 2493WAT      O 7720   8.210   5.054   9.874
 2493WAT     H1 7721   8.203   4.971   9.930
 2493WAT     H2 7722   8.303   5.063   9.839
 2494WAT      O 7723   8.124   7.350   7.467
 2494WAT     H1 7724   8.049   7.303   7.419
 2494WAT     H2 7725   8.120   7.329   7.564
 2495WAT      O 7726   0.650   8.401   7.237
 2495WAT     H1 7727   0.666   8.317   7.185
 2495WAT     H2 7728   0.631   8.476   7.173
 2496WAT      O 7729   7.181   4.997   2.248
 2496WAT     H1 7730   7.216   5.072   2.192
 2496WAT     H2 7731   7.147   5.033   2.335
 2497WAT      O 7732   1.665   3.573   1.245
 2497WAT     H1 7733   1.611   3.590   1.163
 2497WAT     H2 7734   1.609   3.524   1.312
 2498WAT      O 7735   1.371   0.269   1.250
 2498WAT     H1 7736   1.311   0.274   1.170
 2498WAT     H2 7737   1.434   0.192   1.240
 2499WAT      O 7738   4.990   0.047   5.008
 2499WAT     H1 7739   4.936   0.046   4.923
 2499WAT     H2 7740   4.957  -0.025   5.069
 2500WAT      O 7741   8.034   4.184   4.788
 2500WAT     H1 7742   7.960   4.146   4.844
 2500WAT     H2 7743   8.045   4.127   4.706
 2501WAT      O 7744   3.185   1.227   8.812
 2501WAT     H1 7745   3.269   1.269   8.847
 2501WAT     H2 7746   3.109   1.290   8.824
 2502WAT      O 7747   2.199   9.659   6.233
 2502WAT     H1 7748   2.179   9.715   6.313
 2502WAT     H2 7749   2.157   9.568   6.244
 2503WAT      O 7750   8.795   2.251   1.500
 2503WAT     H1 7751   8.755   2.312   1.431
 2503WAT     H2 7752   8.883   2.288   1.530
 2504WAT      O 7753   3.538   7.015   0.717
 2504WAT     H1 7754   3.530   6.917   0.737
 2504WAT     H2 7755   3.562   7.065   0.800
 2505WAT      O 7756   2.530   5.218   3.341
 2505WAT     H1 7757   2.601   5.173   3.395
 2505WAT     H2 7758   2.513   5.309   3.377
 2506WAT      O 7759   6.614   6.270   8.401
 2506WAT     H1 7760   6.668   6.220   8.333
 2506WAT     H2 7761   6.517   6.263   8.379
 2507WAT      O 7762   0.767   1.205   3.675
 2507WAT     H1 7763   0.832   1.153   3.620
 2507WAT     H2 7764   0.701   1.142   3.717
 2508WAT      O 7765   5.965   7.786   6.301
 2508WAT     H1 7766   5.865   7.784   6.307
 2508WAT     H2 7767   5.998   7.693   6.282
 2509WAT      O 7768   2.078   6.359   6.065
 2509WAT     H1 7769   2.177   6.357   6.080
 2509WAT     H2 7770   2.050   6.274   6.020
 2510WAT      O 7771   7.124   1.839   6.049
 2510WAT     H1 7772   7.086   1.799   5.966
 2510WAT     H2 7773   7.202   1.897   6.025
 2511WAT      O 7774   7.353   2.589   2.047
 2511WAT     H1 7775   7.260   2.573   2.080
 2511WAT     H2 7776   7.395   2.662   2.102
 2512WAT      O 7777   7.606   2.937   7.190
 2512WAT     H1 7778   7.650   2.875   7.125
 2512WAT     H2 7779   7.603   3.029   7.151
 2513WAT      O 7780   3.068   7.233   4.021
 2513WAT     H1 7781   2.973   7.258   4.004
 2513WAT     H2 7782   3.124   7.316   4.029
 2514WAT      O 7783   1.581   9.274   4.404
 2514WAT     H1 7784   1.516   9.279   4.327
 2514WAT     H2 7785   1.530   9.265   4.489
 2515WAT      O 7786   1.288   5.775   3.520
 2515WAT     H1 7787   1.360   5.714   3.552
 2515WAT     H2 7788   1.216   5.722   3.476
 2516WAT      O 7789   2.420   2.599   1.436
 2516WAT     H1 7790   2.453   2.535   1.367
 2516WAT     H2 7791   2.355   2.553   1.496
 2517WAT      O 7792   1.562   5.898   5.874
 2517WAT     H1 7793   1.516   5.853   5.798
 2517WAT     H2 7794   1.517   5.985   5.893
 2518WAT      O 7795   7.628   1.017   1.501
 2518WAT     H1 7796   7.655   1.082   1.572
 2518WAT     H2 7797   7.605   0.929   1.543
 2519WAT      O 7798   4.448   5.390   1.143
 2519WAT     H1 7799   4.357   5.351   1.145
 2519WAT     H2 7800   4.516   5.319   1.163
 2520WAT      O 7801   4.046   5.194   7.151
 2520WAT     H1 7802   4.124   5.255   7.166
 2520WAT     H2 7803   4.011   5.162   7.239
 2521WAT      O 7804   5.877   3.411   0.050
 2521WAT     H1 7805   5.962   3.440   0.005
 2521WAT     H2 7806   5.898   3.377   0.142
 2522WAT      O 7807   2.517   1.937   0.452
 2522WAT     H1 7808   2.539   2.023   0.497
 2522WAT     H2 7809   2.587   1.869   0.474
 2523WAT      O 7810   6.009   0.143   1.904
 2523WAT     H1 7811   5.922   0.103   1.877
 2523WAT     H2 7812   6.073   0.071   1.930
 2524WAT      O 7813   4.155   1.594   6.345
 2524WAT     H1 7814   4.235   1.571   6.400
 2524WAT     H2 7815   4.072   1.568   6.395
 2525WAT      O 7816   3.928   3.600   0.523
 2525WAT     H1 7817   3.960   3.615   0.430
 2525WAT     H2 7818   3.907   3.503   0.536
 2526WAT      O 7819   7.198   2.563   3.561
 2526WAT     H1 7820   7.163   2.643   3.609
 2526WAT     H2 7821   7.168   2.480   3.608
 2527WAT      O 7822   5.347   7.398   4.894
 2527WAT     H1 7823   5.407   7.362   4.964
 2527WAT     H2 7824   5.367   7.354   4.806
 2528WAT      O 7825   4.674   7.556   5.893
 2528WAT     H1 7826   4.608   7.617   5.937
 2528WAT     H2 7827   4.631   7.467   5.878
 2529WAT      O 7828   7.753   3.275   7.870
 2529WAT     H1 7829   7.799   3.195   7.832
 2529WAT     H2 7830   7.698   3.319   7.799
 2530WAT      O 7831   7.701   9.498   1.875
 2530WAT     H1 7832   7.716   9.469   1.970
 2530WAT     H2 7833   7.789   9.510   1.830
 2531WAT      O 7834   9.703   5.706   6.726
 2531WAT     H1 7835   9.779   5.666   6.778
 2531WAT     H2 7836   9.724   5.802   6.706
 2532WAT      O 7837   6.020   8.973   5.134
 2532WAT     H1 7838   6.072   9.008   5.212
 2532WAT     H2 7839   5.945   9.036   5.113
 2533WAT      O 7840   3.219   5.521   6.742
 2533WAT     H1 7841   3.248   5.606   6.699
 2533WAT     H2 7842   3.250   5.443   6.687
 2534WAT      O 7843   1.917   5.147   1.603
 2534WAT     H1 7844   1.851   5.114   1.670
 2534WAT     H2 7845   1.989   5.200   1.649
 2535WAT      O 7846   2.486   2.968   4.916
 2535WAT     H1 7847   2.453   3.032   4.985
 2535WAT     H2 7848   2.409   2.917   4.877
 2536WAT      O 7849   2.634   3.053   1.078
 2536WAT     H1 7850   2.674   3.141   1.052
 2536WAT     H2 7851   2.569   3.024   1.008
 2537WAT      O 7852   5.329   7.079   9.574
 2537WAT     H1 7853   5.390   7.156   9.557
 2537WAT     H2 7854   5.364   7.024   9.650
 2538WAT      O 7855   5.425   4.879   2.972
 2538WAT     H1 7856   5.391   4.834   3.055
 2538WAT     H2 7857   5.353   4.882   2.904
 2539WAT      O 7858   9.366   5.972   0.536
 2539WAT     H1 7859   9.286   5.928   0.576
 2539WAT     H2 7860   9.339   6.024   0.455
 2540WAT      O 7861   2.263   0.210   4.765
 2540WAT     H1 7862   2.187   0.193   4.703
 2540WAT     H2 7863   2.339   0.148   4.743
 2541WAT      O 7864   3.066   6.178   5.049
 2541WAT     H1 7865   2.984   6.181   5.105
 2541WAT     H2 7866   3.137   6.124   5.095
 2542WAT      O 7867   1.891   0.802   3.748
 2542WAT     H1 7868   1.871   0.798   3.650
 2542WAT     H2 7869   1.875   0.894   3.782
 2543WAT      O 7870   5.774   5.222   1.589
 2543WAT     H1 7871   5.731   5.132   1.584
 2543WAT     H2 7872   5.725   5.279   1.655
 2544WAT      O 7873   2.359   6.411   2.071
 2544WAT     H1 7874   2.279   6.415   2.130
 2544WAT     H2 7875   2.442   6.403   2.126
 2545WAT      O 7876   4.203   9.245   7.941
 2545WAT     H1 7877   4.294   9.263   7.977
 2545WAT     H2 7878   4.159   9.332   7.916
 2546WAT      O 7879   7.952   9.354   7.160
 2546WAT     H1 7880   7.940   9.453   7.150
 2546WAT     H2 7881   8.042   9.335   7.200
 2547WAT      O 7882   4.449   8.620   2.907
 2547WAT     H1 7883   4.537   8.666   2.911
 2547WAT     H2 7884   4.452   8.537   2.963
 2548WAT      O 7885   5.921   6.837   9.740
 2548WAT     H1 7886   5.851   6.876   9.800
 2548WAT     H2 7887   5.889   6.843   9.645
 2549WAT      O 7888   5.644   7.997   5.211
 2549WAT     H1 7889   5.639   7.897   5.208
 2549WAT     H2 7890   5.560   8.033   5.252
 2550WAT      O 7891   3.187   3.349   9.665
 2550WAT     H1 7892   3.267   3.289   9.656
 2550WAT     H2 7893   3.145   3.334   9.755
 2551WAT      O 7894   8.660   1.039   5.054
 2551WAT     H1 7895   8.654   1.059   4.956
 2551WAT     H2 7896   8.719   0.959   5.068
 2552WAT      O 7897   1.456   6.896   9.783
 2552WAT     H1 7898   1.523   6.825   9.803
 2552WAT     H2 7899   1.367   6.869   9.820
 2553WAT      O 7900   5.839   1.557   4.584
 2553WAT     H1 7901   5.841   1.502   4.500
 2553WAT     H2 7902   5.845   1.496   4.663
 2554WAT      O 7903   9.439   9.752   8.443
 2554WAT     H1 7904   9.364   9.741   8.378
 2554WAT     H2 7905   9.434   9.680   8.512
 2555WAT      O 7906   3.409   7.922   7.501
 2555WAT     H1 7907   3.456   7.852   7.447
 2555WAT     H2 7908   3.377   7.995   7.441
 2556WAT      O 7909   5.888   3.179   9.479
 2556WAT     H1 7910   5.826   3.173   9.400
 2556WAT     H2 7911   5.845   3.235   9.550
 2557WAT      O 7912   2.236   5.810   1.861
 2557WAT     H1 7913   2.196   5.879   1.801
 2557WAT     H2 7914   2.302   5.854   1.922
 2558WAT      O 7915   8.035   6.340   7.596
 2558WAT     H1 7916   7.947   6.318   7.554
 2558WAT     H2 7917   8.090   6.395   7.533
 2559WAT      O 7918   2.259   9.290   6.309
 2559WAT     H1 7919   2.333   9.357   6.312
 2559WAT     H2 7920   2.296   9.198   6.320
 2560WAT      O 7921   4.897   9.653   3.805
 2560WAT     H1 7922   4.987   9.683   3.837
 2560WAT     H2 7923   4.890   9.670   3.707
 2561WAT      O 7924   3.259   4.487   4.331
 2561WAT     H1 7925   3.324   4.533   4.272
 2561WAT     H2 7926   3.308   4.428   4.395
 2562WAT      O 7927   0.942   5.149   9.605
 2562WAT     H1 7928   1.036   5.121   9.625
 2562WAT     H2 7929   0.910   5.214   9.674
 2563WAT      O 7930   7.168   8.750   3.797
 2563WAT     H1 7931   7.194   8.656   3.773
 2563WAT     H2 7932   7.104   8.748   3.874
 2564WAT      O 7933   3.412   1.294   7.492
 2564WAT     H1 7934   3.443   1.332   7.405
 2564WAT     H2 7935   3.348   1.219   7.475
 2565WAT      O 7936   0.451   5.249   2.636
 2565WAT     H1 7937   0.493   5.214   2.553
 2565WAT     H2 7938   0.382   5.183   2.669
 2566WAT      O 7939   1.603   1.147   7.112
 2566WAT     H1 7940   1.613   1.058   7.158
 2566WAT     H2 7941   1.508   1.177   7.120
 2567WAT      O 7942   7.520   0.634   5.502
 2567WAT     H1 7943   7.445   0.650   5.439
 2567WAT     H2 7944   7.573   0.718   5.513
 2568WAT      O 7945   5.063   0.314   4.670
 2568WAT     H1 7946   5.033   0.406   4.645
 2568WAT     H2 7947   5.162   0.314   4.684
 2569WAT      O 7948   6.216   7.964   0.459
 2569WAT     H1 7949   6.126   7.930   0.432
 2569WAT     H2 7950   6.206   8.054   0.501
 2570WAT      O 7951   8.441   0.793   4.916
 2570WAT     H1 7952   8.398   0.720   4.863
 2570WAT     H2 7953   8.371   0.845   4.965
 2571WAT      O 7954   9.604   9.341   0.431
 2571WAT     H1 7955   9.575   9.412   0.367
 2571WAT     H2 7956   9.704   9.340   0.435
 2572WAT      O 7957   5.058   4.626   7.368
 2572WAT     H1 7958   5.151   4.643   7.401
 2572WAT     H2 7959   5.019   4.712   7.334
 2573WAT      O 7960   0.453   3.035   6.398
 2573WAT     H1 7961   0.405   2.948   6.390
 2573WAT     H2 7962   0.533   3.034   6.338
 2574WAT      O 7963   9.820   4.438   2.944
 2574WAT     H1 7964   9.866   4.502   3.005
 2574WAT     H2 7965   9.840   4.461   2.849
 2575WAT      O 7966   1.020   0.899   9.488
 2575WAT     H1 7967   1.001   0.866   9.581
 2575WAT     H2 7968   1.100   0.852   9.452
 2576WAT      O 7969   0.086   3.479   2.076
 2576WAT     H1 7970   0.134   3.528   2.003
 2576WAT     H2 7971  -0.008   3.514   2.083
 2577WAT      O 7972   3.562   1.435   7.936
 2577WAT     H1 7973   3.468   1.468   7.944
 2577WAT     H2 7974   3.561   1.336   7.921
 2578WAT      O 7975   0.235   2.462   4.679
 2578WAT     H1 7976   0.203   2.556   4.692
 2578WAT     H2 7977   0.166   2.398   4.712
 2579WAT      O 7978   6.180   8.330   4.938
 2579WAT     H1 7979   6.258   8.330   5.000
 2579WAT     H2 7980   6.212   8.330   4.844
 2580WAT      O 7981   9.414   4.310   3.785
 2580WAT     H1 7982   9.337   4.326   3.847
 2580WAT     H2 7983   9.451   4.398   3.756
 2581WAT      O 7984   3.336   4.408   0.458
 2581WAT     H1 7985   3.284   4.485   0.421
 2581WAT     H2 7986   3.358   4.344   0.383
 2582WAT      O 7987   5.598   2.029   2.564
 2582WAT     H1 7988   5.517   2.079   2.594
 2582WAT     H2 7989   5.580   1.930   2.568
 2583WAT      O 7990   7.478   8.134   1.316
 2583WAT     H1 7991   7.473   8.158   1.413
 2583WAT     H2 7992   7.573   8.141   1.285
 2584WAT      O 7993   6.664   5.034   1.374
 2584WAT     H1 7994   6.616   5.103   1.429
 2584WAT     H2 7995   6.758   5.064   1.359
 2585WAT      O 7996   0.481   6.087   2.416
 2585WAT     H1 7997   0.496   6.034   2.333
 2585WAT     H2 7998   0.407   6.153   2.401
 2586WAT      O 7999   9.709   6.523   7.393
 2586WAT     H1 8000   9.764   6.523   7.309
 2586WAT     H2 8001   9.684   6.617   7.416
 2587WAT      O 8002   3.446   8.719   2.951
 2587WAT     H1 8003   3.430   8.673   2.864
 2587WAT     H2 8004   3.372   8.697   3.014
 2588WAT      O 8005   4.888   3.654   1.306
 2588WAT     H1 8006   4.974   3.669   1.257
 2588WAT     H2 8007   4.881   3.717   1.383
 2589WAT      O 8008   7.699   0.538   5.970
 2589WAT     H1 8009   7.662   0.445   5.959
 2589WAT     H2 8010   7.730   0.572   5.881
 2590WAT      O 8011   8.192   7.765   5.132
 2590WAT     H1 8012   8.150   7.755   5.042
 2590WAT     H2 8013   8.228   7.857   5.142
 2591WAT      O 8014   9.500   4.383   1.110
 2591WAT     H1 8015   9.435   4.352   1.041
 2591WAT     H2 8016   9.476   4.476   1.139
 2592WAT      O 8017   0.731   5.609   6.116
 2592WAT     H1 8018   0.827   5.588   6.135
 2592WAT     H2 8019   0.725   5.685   6.052
 2593WAT      O 8020   0.504   5.188   6.808
 2593WAT     H1 8021   0.441   5.153   6.877
 2593WAT     H2 8022   0.566   5.255   6.850
 2594WAT      O 8023   1.171   3.057   3.167
 2594WAT     H1 8024   1.214   3.147   3.157
 2594WAT     H2 8025   1.240   2.990   3.197
 2595WAT      O 8026   7.462   1.701   8.059
 2595WAT     H1 8027   7.391   1.670   8.122
 2595WAT     H2 8028   7.469   1.637   7.982
 2596WAT      O 8029   3.732   5.772   3.579
 2596WAT     H1 8030   3.688   5.704   3.637
 2596WAT     H2 8031   3.722   5.746   3.483
 2597WAT      O 8032   2.432   4.357   6.778
 2597WAT     H1 8033   2.405   4.291   6.708
 2597WAT     H2 8034   2.353   4.413   6.804
 2598WAT      O 8035   2.593   9.812   6.507
 2598WAT     H1 8036   2.675   9.825   6.451
 2598WAT     H2 8037   2.613   9.840   6.601
 2599WAT      O 8038   0.956   0.185   7.504
 2599WAT     H1 8039   0.857   0.185   7.489
 2599WAT     H2 8040   0.978   0.126   7.581
 2600WAT      O 8041   3.828   0.189   1.307
 2600WAT     H1 8042   3.795   0.274   1.348
 2600WAT     H2 8043   3.872   0.210   1.219
 2601WAT      O 8044   8.740   7.669   8.722
 2601WAT     H1 8045   8.798   7.728   8.667
 2601WAT     H2 8046   8.794   7.591   8.756
 2602WAT      O 8047   1.880   0.138   7.093
 2602WAT     H1 8048   1.954   0.114   7.155
 2602WAT     H2 8049   1.834   0.055   7.063
 2603WAT      O 8050   4.475   2.978   5.627
 2603WAT     H1 8051   4.480   3.078   5.625
 2603WAT     H2 8052   4.525   2.940   5.549
 2604WAT      O 8053   5.868   6.627   6.195
 2604WAT     H1 8054   5.913   6.583   6.272
 2604WAT     H2 8055   5.915   6.713   6.173
 2605WAT      O 8056   4.500   7.902   4.302
 2605WAT     H1 8057   4.499   7.943   4.393
 2605WAT     H2 8058   4.421   7.841   4.292
 2606WAT      O 8059   3.413   5.121   3.581
 2606WAT     H1 8060   3.419   5.163   3.490
 2606WAT     H2 8061   3.504   5.120   3.622
 2607WAT      O 8062   0.986   7.998   4.036
 2607WAT     H1 8063   1.064   7.937   4.049
 2607WAT     H2 8064   1.012   8.072   3.974
 2608WAT      O 8065   9.162   5.694   7.745
 2608WAT     H1 8066   9.139   5.788   7.770
 2608WAT     H2 8067   9.077   5.644   7.726
 2609WAT      O 8068   2.587   5.676   8.552
 2609WAT     H1 8069   2.551   5.759   8.509
 2609WAT     H2 8070   2.645   5.702   8.630
 2610WAT      O 8071   3.930   5.752   4.616
 2610WAT     H1 8072   4.015   5.764   4.564
 2610WAT     H2 8073   3.941   5.794   4.706
 2611WAT      O 8074   8.905   3.400   5.492
 2611WAT     H1 8075   8.876   3.394   5.587
 2611WAT     H2 8076   8.960   3.483   5.478
 2612WAT      O 8077   6.401   1.602   2.438
 2612WAT     H1 8078   6.396   1.544   2.357
 2612WAT     H2 8079   6.476   1.573   2.497
 2613WAT      O 8080   0.327   6.331   7.318
 2613WAT     H1 8081   0.248   6.270   7.311
 2613WAT     H2 8082   0.300   6.414   7.368
 2614WAT      O 8083   2.236   8.857   5.253
 2614WAT     H1 8084   2.231   8.956   5.242
 2614WAT     H2 8085   2.172   8.828   5.325
 2615WAT      O 8086   9.103   7.778   2.522
 2615WAT     H1 8087   9.011   7.737   2.524
 2615WAT     H2 8088   9.096   7.876   2.537
 2616WAT      O 8089   1.830   2.704   5.509
 2616WAT     H1 8090   1.798   2.652   5.589
 2616WAT     H2 8091   1.783   2.673   5.427
 2617WAT      O 8092   4.276   1.738   8.784
 2617WAT     H1 8093   4.226   1.651   8.779
 2617WAT     H2 8094   4.361   1.725   8.834
 2618WAT      O 8095   0.827   0.636   8.176
 2618WAT     H1 8096   0.874   0.695   8.110
 2618WAT     H2 8097   0.889   0.611   8.250
 2619WAT      O 8098   8.004   6.937   2.326
 2619WAT     H1 8099   8.086   6.957   2.271
 2619WAT     H2 8100   7.990   7.010   2.392
 2620WAT      O 8101   2.826   4.412   3.244
 2620WAT     H1 8102   2.806   4.505   3.274
 2620WAT     H2 8103   2.835   4.352   3.323
 2621WAT      O 8104   8.971   8.737   8.028
 2621WAT     H1 8105   8.904   8.676   8.070
 2621WAT     H2 8106   8.935   8.830   8.027
 2622WAT      O 8107   4.027   7.952   8.949
 2622WAT     H1 8108   4.006   7.890   8.874
 2622WAT     H2 8109   4.003   8.046   8.923
 2623WAT      O 8110   3.220   4.162   4.677
 2623WAT     H1 8111   3.188   4.111   4.757
 2623WAT     H2 8112   3.293   4.224   4.705
 2624WAT      O 8113   0.929   5.707   9.071
 2624WAT     H1 8114   0.925   5.806   9.082
 2624WAT     H2 8115   0.980   5.667   9.148
 2625WAT      O 8116   1.699   4.390   8.549
 2625WAT     H1 8117   1.611   4.360   8.513
 2625WAT     H2 8118   1.741   4.316   8.602
 2626WAT      O 8119   3.803   6.228   5.729
 2626WAT     H1 8120   3.722   6.171   5.719
 2626WAT     H2 8121   3.824   6.241   5.826
 2627WAT      O 8122   6.921   7.574   8.499
 2627WAT     H1 8123   6.883   7.638   8.565
 2627WAT     H2 8124   7.021   7.574   8.507
 2628WAT      O 8125   8.500   6.314   7.701
 2628WAT     H1 8126   8.484   6.412   7.715
 2628WAT     H2 8127   8.442   6.280   7.627
 2629WAT      O 8128   1.590   4.187   1.671
 2629WAT     H1 8129   1.664   4.121   1.651
 2629WAT     H2 8130   1.510   4.164   1.616
 2630WAT      O 8131   7.743   8.363   8.891
 2630WAT     H1 8132   7.720   8.457   8.867
 2630WAT     H2 8133   7.680   8.329   8.961
 2631WAT      O 8134   4.810   4.427   7.199
 2631WAT     H1 8135   4.811   4.356   7.270
 2631WAT     H2 8136   4.787   4.515   7.240
 2632WAT      O 8137   0.312   9.705   7.515
 2632WAT     H1 8138   0.298   9.619   7.467
 2632WAT     H2 8139   0.378   9.693   7.589
 2633WAT      O 8140   7.846   3.989   9.746
 2633WAT     H1 8141   7.906   4.001   9.667
 2633WAT     H2 8142   7.886   3.923   9.809
 2634WAT      O 8143   6.424   5.829   2.661
 2634WAT     H1 8144   6.423   5.733   2.633
 2634WAT     H2 8145   6.339   5.873   2.632
 2635WAT      O 8146   0.047   0.599   3.195
 2635WAT     H1 8147  -0.036   0.542   3.192
 2635WAT     H2 8148   0.029   0.687   3.152
 2636WAT      O 8149   2.871   8.861   2.995
 2636WAT     H1 8150   2.952   8.889   2.944
 2636WAT     H2 8151   2.792   8.859   2.934
 2637WAT      O 8152   4.897   0.346   3.053
 2637WAT     H1 8153   4.891   0.248   3.030
 2637WAT     H2 8154   4.810   0.390   3.031
 2638WAT      O 8155   0.411   4.911   5.369
 2638WAT     H1 8156   0.463   4.864   5.440
 2638WAT     H2 8157   0.435   4.875   5.279
 2639WAT      O 8158   3.685   3.675   3.955
 2639WAT     H1 8159   3.686   3.641   3.861
 2639WAT     H2 8160   3.778   3.697   3.984
 2640WAT      O 8161   8.520   2.911   4.999
 2640WAT     H1 8162   8.576   2.954   5.071
 2640WAT     H2 8163   8.528   2.964   4.915
 2641WAT      O 8164   6.852   5.996   6.878
 2641WAT     H1 8165   6.874   5.924   6.813
 2641WAT     H2 8166   6.936   6.039   6.911
 2642WAT      O 8167   6.235   5.551   1.813
 2642WAT     H1 8168   6.314   5.509   1.768
 2642WAT     H2 8169   6.265   5.603   1.893
 2643WAT      O 8170   0.195   5.282   6.232
 2643WAT     H1 8171   0.204   5.223   6.312
 2643WAT     H2 8172   0.151   5.368   6.257
 2644WAT      O 8173   8.642   3.756   2.412
 2644WAT     H1 8174   8.678   3.718   2.326
 2644WAT     H2 8175   8.718   3.775   2.474
 2645WAT      O 8176   0.065   1.224   8.412
 2645WAT     H1 8177   0.139   1.161   8.389
 2645WAT     H2 8178  -0.020   1.192   8.370
 2646WAT      O 8179   8.924   1.048   4.654
 2646WAT     H1 8180   8.855   0.979   4.629
 2646WAT     H2 8181   8.907   1.132   4.602
 2647WAT      O 8182   3.793   0.517   8.287
 2647WAT     H1 8183   3.858   0.468   8.229
 2647WAT     H2 8184   3.701   0.504   8.250
 2648WAT      O 8185   6.400   1.484   2.785
 2648WAT     H1 8186   6.313   1.444   2.757
 2648WAT     H2 8187   6.470   1.461   2.718
 2649WAT      O 8188   6.872   6.075   1.608
 2649WAT     H1 8189   6.840   6.132   1.532
 2649WAT     H2 8190   6.900   6.134   1.684
 2650WAT      O 8191   8.278   8.458   0.175
 2650WAT     H1 8192   8.315   8.444   0.267
 2650WAT     H2 8193   8.189   8.414   0.168
 2651WAT      O 8194   2.185   1.631   5.573
 2651WAT     H1 8195   2.100   1.613   5.621
 2651WAT     H2 8196   2.222   1.545   5.537
 2652WAT      O 8197   9.731   7.806   3.973
 2652WAT     H1 8198   9.714   7.869   4.048
 2652WAT     H2 8199   9.645   7.764   3.945
 2653WAT      O 8200   4.293   3.167   9.337
 2653WAT     H1 8201   4.205   3.195   9.374
 2653WAT     H2 8202   4.325   3.086   9.386
 2654WAT      O 8203   0.137   6.096   9.674
 2654WAT     H1 8204   0.206   6.079   9.744
 2654WAT     H2 8205   0.047   6.101   9.717
 2655WAT      O 8206   3.202   1.942   9.657
 2655WAT     H1 8207   3.240   1.967   9.567
 2655WAT     H2 8208   3.275   1.908   9.716
 2656WAT      O 8209   8.761   0.844   7.514
 2656WAT     H1 8210   8.805   0.828   7.602
 2656WAT     H2 8211   8.690   0.775   7.499
 2657WAT      O 8212   4.040   6.826   1.041
 2657WAT     H1 8213   4.111   6.827   1.111
 2657WAT     H2 8214   4.045   6.742   0.988
 2658WAT      O 8215   1.921   4.810   0.292
 2658WAT     H1 8216   1.906   4.791   0.195
 2658WAT     H2 8217   1.838   4.851   0.331
 2659WAT      O 8218   2.130   6.805   1.854
 2659WAT     H1 8219   2.127   6.862   1.936
 2659WAT     H2 8220   2.193   6.729   1.870
 2660WAT      O 8221   1.279   4.450   6.464
 2660WAT     H1 8222   1.341   4.518   6.504
 2660WAT     H2 8223   1.207   4.428   6.530
 2661WAT      O 8224   5.851   9.240   1.443
 2661WAT     H1 8225   5.917   9.301   1.487
 2661WAT     H2 8226   5.818   9.282   1.359
 2662WAT      O 8227   1.189   0.584   4.947
 2662WAT     H1 8228   1.224   0.601   4.854
 2662WAT     H2 8229   1.177   0.486   4.961
 2663WAT      O 8230   2.181   9.380   2.652
 2663WAT     H1 8231   2.228   9.435   2.583
 2663WAT     H2 8232   2.236   9.379   2.736
 2664WAT      O 8233   1.675   8.685   6.526
 2664WAT     H1 8234   1.749   8.688   6.593
 2664WAT     H2 8235   1.699   8.742   6.447
 2665WAT      O 8236   1.119   4.976   8.555
 2665WAT     H1 8237   1.028   4.979   8.514
 2665WAT     H2 8238   1.117   5.022   8.644
 2666WAT      O 8239   5.224   3.010   1.858
 2666WAT     H1 8240   5.232   2.984   1.954
 2666WAT     H2 8241   5.179   3.099   1.851
 2667WAT      O 8242   6.583   6.999   8.488
 2667WAT     H1 8243   6.588   6.919   8.428
 2667WAT     H2 8244   6.588   6.969   8.584
 2668WAT      O 8245   9.754   8.646   6.106
 2668WAT     H1 8246   9.679   8.692   6.058
 2668WAT     H2 8247   9.788   8.570   6.050
 2669WAT      O 8248   5.126   0.746   2.060
 2669WAT     H1 8249   5.124   0.819   1.992
 2669WAT     H2 8250   5.221   0.728   2.086
 2670WAT      O 8251   1.592   3.732   7.642
 2670WAT     H1 8252   1.573   3.691   7.731
 2670WAT     H2 8253   1.641   3.666   7.585
 2671WAT      O 8254   3.229   1.211   9.514
 2671WAT     H1 8255   3.223   1.227   9.612
 2671WAT     H2 8256   3.255   1.296   9.468
 2672WAT      O 8257   3.645   7.313   6.262
 2672WAT     H1 8258   3.560   7.331   6.213
 2672WAT     H2 8259   3.688   7.230   6.226
 2673WAT      O 8260   5.311   2.676   6.559
 2673WAT     H1 8261   5.349   2.590   6.524
 2673WAT     H2 8262   5.383   2.728   6.604
 2674WAT      O 8263   2.838   0.689   8.335
 2674WAT     H1 8264   2.769   0.616   8.334
 2674WAT     H2 8265   2.795   0.775   8.307
 2675WAT      O 8266   0.765   6.847   1.775
 2675WAT     H1 8267   0.808   6.800   1.852
 2675WAT     H2 8268   0.686   6.900   1.807
 2676WAT      O 8269   3.948   6.923   3.503
 2676WAT     H1 8270   3.851   6.949   3.510
 2676WAT     H2 8271   3.967   6.892   3.410
 2677WAT      O 8272   9.240   9.614   1.086
 2677WAT     H1 8273   9.211   9.678   1.016
 2677WAT     H2 8274   9.173   9.613   1.160
 2678WAT      O 8275   6.322   4.186   1.792
 2678WAT     H1 8276   6.337   4.281   1.818
 2678WAT     H2 8277   6.267   4.183   1.708
 2679WAT      O 8278   4.413   7.149   9.112
 2679WAT     H1 8279   4.340   7.189   9.167
 2679WAT     H2 8280   4.382   7.062   9.074
 2680WAT      O 8281   3.905   2.157   9.039
 2680WAT     H1 8282   3.988   2.213   9.032
 2680WAT     H2 8283   3.911   2.100   9.120
 2681WAT      O 8284   3.104   8.410   8.104
 2681WAT     H1 8285   3.113   8.510   8.107
 2681WAT     H2 8286   3.192   8.370   8.078
 2682WAT      O 8287   2.399   1.869   7.399
 2682WAT     H1 8288   2.495   1.859   7.422
 2682WAT     H2 8289   2.390   1.924   7.316
 2683WAT      O 8290   3.776   6.523   7.575
 2683WAT     H1 8291   3.872   6.505   7.594
 2683WAT     H2 8292   3.764   6.538   7.476
 2684WAT      O 8293   7.189   9.206   4.517
 2684WAT     H1 8294   7.156   9.131   4.459
 2684WAT     H2 8295   7.218   9.282   4.459
 2685WAT      O 8296   2.353   7.978   4.886
 2685WAT     H1 8297   2.437   8.027   4.865
 2685WAT     H2 8298   2.353   7.890   4.839
 2686WAT      O 8299   1.989   8.451   7.407
 2686WAT     H1 8300   1.997   8.481   7.312
 2686WAT     H2 8301   1.987   8.351   7.411
 2687WAT      O 8302   4.730   3.089   8.057
 2687WAT     H1 8303   4.710   3.173   8.106
 2687WAT     H2 8304   4.793   3.033   8.111
 2688WAT      O 8305   1.645   9.658   1.306
 2688WAT     H1 8306   1.583   9.730   1.273
 2688WAT     H2 8307   1.591   9.577   1.330
 2689WAT      O 8308   7.607   1.278   0.860
 2689WAT     H1 8309   7.621   1.203   0.795
 2689WAT     H2 8310   7.509   1.293   0.873
 2690WAT      O 8311   7.284   3.833   3.676
 2690WAT     H1 8312   7.341   3.883   3.611
 2690WAT     H2 8313   7.234   3.761   3.628
 2691WAT      O 8314   9.653   6.716   9.399
 2691WAT     H1 8315   9.738   6.763   9.374
 2691WAT     H2 8316   9.657   6.621   9.368
 2692WAT      O 8317   6.770   0.727   7.093
 2692WAT     H1 8318   6.753   0.734   6.995
 2692WAT     H2 8319   6.683   0.712   7.140
 2693WAT      O 8320   7.828   1.478   9.040
 2693WAT     H1 8321   7.751   1.442   8.986
 2693WAT     H2 8322   7.911   1.425   9.018
 2694WAT      O 8323   8.519   1.997   7.817
 2694WAT     H1 8324   8.466   2.003   7.901
 2694WAT     H2 8325   8.486   1.921   7.762
 2695WAT      O 8326   5.169   0.783   7.700
 2695WAT     H1 8327   5.233   0.737   7.761
 2695WAT     H2 8328   5.154   0.727   7.619
 2696WAT      O 8329   4.978   0.158   8.422
 2696WAT     H1 8330   4.941   0.227   8.483
 2696WAT     H2 8331   4.921   0.154   8.339
 2697WAT      O 8332   0.022   8.999   4.445
 2697WAT     H1 8333   0.079   8.957   4.515
 2697WAT     H2 8334  -0.046   8.932   4.413
 2698WAT      O 8335   3.543   9.456   8.321
 2698WAT     H1 8336   3.624   9.434   8.267
 2698WAT     H2 8337   3.485   9.520   8.270
 2699WAT      O 8338   2.221   1.065   2.353
 2699WAT     H1 8339   2.247   1.044   2.447
 2699WAT     H2 8340   2.216   0.981   2.300
 2700WAT      O 8341   3.915   8.605   9.179
 2700WAT     H1 8342   3.844   8.558   9.128
 2700WAT     H2 8343   3.944   8.686   9.129
 2701WAT      O 8344   1.920   3.368   0.379
 2701WAT     H1 8345   1.994   3.316   0.422
 2701WAT     H2 8346   1.945   3.465   0.378
 2702WAT      O 8347   5.484   3.244   8.451
 2702WAT     H1 8348   5.451   3.326   8.405
 2702WAT     H2 8349   5.495   3.170   8.385
 2703WAT      O 8350   3.848   8.027   7.036
 2703WAT     H1 8351   3.774   8.027   6.969
 2703WAT     H2 8352   3.881   8.121   7.050
 2704WAT      O 8353   3.768   5.794   8.190
 2704WAT     H1 8354   3.795   5.713   8.138
 2704WAT     H2 8355   3.745   5.768   8.284
 2705WAT      O 8356   2.053   9.074   6.251
 2705WAT     H1 8357   1.997   9.127   6.315
 2705WAT     H2 8358   2.149   9.096   6.266
 2706WAT      O 8359   5.031   1.736   7.421
 2706WAT     H1 8360   5.125   1.750   7.389
 2706WAT     H2 8361   4.976   1.816   7.397
 2707WAT      O 8362   2.249   6.153   2.194
 2707WAT     H1 8363   2.335   6.193   2.224
 2707WAT     H2 8364   2.174   6.216   2.212
 2708WAT      O 8365   0.332   9.535   5.971
 2708WAT     H1 8366   0.280   9.551   5.888
 2708WAT     H2 8367   0.352   9.437   5.980
 2709WAT      O 8368   2.381   5.700   6.480
 2709WAT     H1 8369   2.341   5.778   6.529
 2709WAT     H2 8370   2.324   5.619   6.494
 2710WAT      O 8371   7.354   4.941   3.765
 2710WAT     H1 8372   7.337   5.000   3.844
 2710WAT     H2 8373   7.449   4.951   3.736
 2711WAT      O 8374   5.702   5.423   1.762
 2711WAT     H1 8375   5.800   5.409   1.779
 2711WAT     H2 8376   5.682   5.520   1.765
 2712WAT      O 8377   8.895   0.715   8.739
 2712WAT     H1 8378   8.864   0.751   8.651
 2712WAT     H2 8379   8.952   0.783   8.786
 2713WAT      O 8380   4.531   8.504   9.050
 2713WAT     H1 8381   4.607   8.456   9.093
 2713WAT     H2 8382   4.462   8.438   9.021
 2714WAT      O 8383   5.955   6.776   7.095
 2714WAT     H1 8384   6.049   6.804   7.078
 2714WAT     H2 8385   5.909   6.758   7.008
 2715WAT      O 8386   9.080   1.959   5.243
 2715WAT     H1 8387   9.175   1.930   5.230
 2715WAT     H2 8388   9.020   1.880   5.237
 2716WAT      O 8389   3.650   1.964   2.890
 2716WAT     H1 8390   3.650   2.062   2.870
 2716WAT     H2 8391   3.674   1.913   2.808
 2717WAT      O 8392   7.003   8.677   7.421
 2717WAT     H1 8393   7.075   8.664   7.352
 2717WAT     H2 8394   6.923   8.717   7.377
 2718WAT      O 8395   7.665   3.564   2.977
 2718WAT     H1 8396   7.668   3.600   2.884
 2718WAT     H2 8397   7.569   3.556   3.006
 2719WAT      O 8398   8.881   9.007   8.009
 2719WAT     H1 8399   8.824   8.993   7.928
 2719WAT     H2 8400   8.845   9.084   8.062
 2720WAT      O 8401   0.739   0.524   7.031
 2720WAT     H1 8402   0.651   0.550   6.991
 2720WAT     H2 8403   0.783   0.604   7.071
 2721WAT      O 8404   9.025   4.954   3.038
 2721WAT     H1 8405   9.001   4.983   2.945
 2721WAT     H2 8406   8.976   4.870   3.061
 2722WAT      O 8407   7.304   8.690   9.150
 2722WAT     H1 8408   7.334   8.675   9.244
 2722WAT     H2 8409   7.353   8.627   9.089
 2723WAT      O 8410   0.337   1.301   1.607
 2723WAT     H1 8411   0.300   1.209   1.599
 2723WAT     H2 8412   0.262   1.366   1.617
 2724WAT      O 8413   3.401   0.373   3.663
 2724WAT     H1 8414   3.436   0.404   3.751
 2724WAT     H2 8415   3.411   0.446   3.596
 2725WAT      O 8416   4.112   0.773   1.986
 2725WAT     H1 8417   4.111   0.864   2.028
 2725WAT     H2 8418   4.064   0.708   2.045
 2726WAT      O 8419   7.761   1.024   8.970
 2726WAT     H1 8420   7.690   0.955   8.956
 2726WAT     H2 8421   7.810   1.004   9.055
 2727WAT      O 8422   1.071   6.543   5.207
 2727WAT     H1 8423   1.133   6.514   5.135
 2727WAT     H2 8424   1.094   6.495   5.292
 2728WAT      O 8425   6.960   7.799   9.767
 2728WAT     H1 8426   6.897   7.727   9.735
 2728WAT     H2 8427   6.992   7.851   9.688
 2729WAT      O 8428   2.015   8.067   2.761
 2729WAT     H1 8429   2.111   8.087   2.783
 2729WAT     H2 8430   1.985   7.987   2.813
 2730WAT      O 8431   6.000   5.422   1.818
 2730WAT     H1 8432   6.084   5.465   1.853
 2730WAT     H2 8433   6.010   5.406   1.719
 2731WAT      O 8434   0.767   1.923   7.940
 2731WAT     H1 8435   0.759   1.934   7.841
 2731WAT     H2 8436   0.831   1.849   7.960
 2732WAT      O 8437   2.943   1.533   1.223
 2732WAT     H1 8438   2.936   1.610   1.286
 2732WAT     H2 8439   3.039   1.515   1.202
 2733WAT      O 8440   8.863   7.244   4.390
 2733WAT     H1 8441   8.821   7.326   4.351
 2733WAT     H2 8442   8.868   7.173   4.319
 2734WAT      O 8443   0.689   6.863   6.768
 2734WAT     H1 8444   0.719   6.911   6.686
 2734WAT     H2 8445   0.654   6.930   6.834
 2735WAT      O 8446   0.510   7.545   0.681
 2735WAT     H1 8447   0.567   7.619   0.717
 2735WAT     H2 8448   0.456   7.505   0.756
 2736WAT      O 8449   9.219   4.185   2.311
 2736WAT     H1 8450   9.223   4.281   2.340
 2736WAT     H2 8451   9.311   4.153   2.290
 2737WAT      O 8452   8.763   2.229   4.847
 2737WAT     H1 8453   8.817   2.299   4.895
 2737WAT     H2 8454   8.681   2.271   4.808
 2738WAT      O 8455   2.774   6.723   5.391
 2738WAT     H1 8456   2.842   6.707   5.463
 2738WAT     H2 8457   2.688   6.753   5.433
 2739WAT      O 8458   7.119   4.043   5.512
 2739WAT     H1 8459   7.179   4.072   5.587
 2739WAT     H2 8460   7.024   4.049   5.541
 2740WAT      O 8461   1.860   2.072   0.140
 2740WAT     H1 8462   1.901   2.049   0.052
 2740WAT     H2 8463   1.878   2.168   0.161
 2741WAT      O 8464   3.978   1.429   5.316
 2741WAT     H1 8465   4.065   1.379   5.314
 2741WAT     H2 8466   3.994   1.522   5.351
 2742WAT      O 8467   8.954   4.448   4.143
 2742WAT     H1 8468   9.017   4.438   4.066
 2742WAT     H2 8469   8.865   4.411   4.118
 2743WAT      O 8470   6.829   7.325   1.532
 2743WAT     H1 8471   6.866   7.293   1.444
 2743WAT     H2 8472   6.729   7.312   1.532
 2744WAT      O 8473   6.517   7.303   3.032
 2744WAT     H1 8474   6.528   7.305   3.131
 2744WAT     H2 8475   6.557   7.385   2.992
 2745WAT      O 8476   4.661   4.846   3.406
 2745WAT     H1 8477   4.671   4.845   3.506
 2745WAT     H2 8478   4.589   4.911   3.381
 2746WAT      O 8479   0.936   3.835   5.242
 2746WAT     H1 8480   0.989   3.762   5.199
 2746WAT     H2 8481   0.944   3.827   5.342
 2747WAT      O 8482   3.093   8.483   2.550
 2747WAT     H1 8483   3.111   8.465   2.453
 2747WAT     H2 8484   3.153   8.425   2.605
 2748WAT      O 8485   8.328   7.857   8.270
 2748WAT     H1 8486   8.357   7.913   8.349
 2748WAT     H2 8487   8.325   7.914   8.188
 2749WAT      O 8488   1.731   9.456   8.205
 2749WAT     H1 8489   1.754   9.513   8.126
 2749WAT     H2 8490   1.724   9.361   8.176
 2750WAT      O 8491   0.675   0.563   5.441
 2750WAT     H1 8492   0.624   0.589   5.523
 2750WAT     H2 8493   0.724   0.642   5.406
 2751WAT      O 8494   7.528   2.569   4.932
 2751WAT     H1 8495   7.435   2.537   4.952
 2751WAT     H2 8496   7.524   2.640   4.862
 2752WAT      O 8497   0.102   9.518   5.214
 2752WAT     H1 8498   0.128   9.592   5.276
 2752WAT     H2 8499   0.069   9.440   5.267
 2753WAT      O 8500   3.619   4.531   4.700
 2753WAT     H1 8501   3.693   4.566   4.757
 2753WAT     H2 8502   3.654   4.458   4.641
 2754WAT      O 8503   5.581   2.674   0.590
 2754WAT     H1 8504   5.547   2.741   0.524
 2754WAT     H2 8505   5.510   2.656   0.658
 2755WAT      O 8506   5.240   2.308   6.515
 2755WAT     H1 8507   5.204   2.386   6.464
 2755WAT     H2 8508   5.218   2.319   6.612
 2756WAT      O 8509   6.842   1.452   2.443
 2756WAT     H1 8510   6.828   1.505   2.359
 2756WAT     H2 8511   6.916   1.386   2.429
 2757WAT      O 8512   2.304   6.376   2.452
 2757WAT     H1 8513   2.214   6.405   2.419
 2757WAT     H2 8514   2.305   6.276   2.463
 2758WAT      O 8515   5.536   9.482   5.218
 2758WAT     H1 8516   5.629   9.448   5.220
 2758WAT     H2 8517   5.490   9.449   5.135
 2759WAT      O 8518   2.646   6.670   3.202
 2759WAT     H1 8519   2.691   6.724   3.131
 2759WAT     H2 8520   2.575   6.726   3.246
 2760WAT      O 8521   1.540   8.264   7.133
 2760WAT     H1 8522   1.561   8.344   7.189
 2760WAT     H2 8523   1.559   8.284   7.037
 2761WAT      O 8524   9.712   4.819   7.217
 2761WAT     H1 8525   9.636   4.798   7.155
 2761WAT     H2 8526   9.799   4.807   7.169
 2762WAT      O 8527   4.915   8.000   1.384
 2762WAT     H1 8528   4.915   7.901   1.374
 2762WAT     H2 8529   4.992   8.028   1.442
 2763WAT      O 8530   1.647   6.406   8.397
 2763WAT     H1 8531   1.583   6.329   8.409
 2763WAT     H2 8532   1.661   6.422   8.300
 2764WAT      O 8533   3.448   9.567   4.796
 2764WAT     H1 8534   3.475   9.626   4.719
 2764WAT     H2 8535   3.497   9.596   4.879
 2765WAT      O 8536   9.578   4.039   2.454
 2765WAT     H1 8537   9.524   4.048   2.370
 2765WAT     H2 8538   9.564   4.120   2.511
 2766WAT      O 8539   5.687   5.892   1.639
 2766WAT     H1 8540   5.753   5.822   1.614
 2766WAT     H2 8541   5.595   5.863   1.611
 2767WAT      O 8542   5.257   0.064   2.524
 2767WAT     H1 8543   5.327   0.114   2.574
 2767WAT     H2 8544   5.204   0.127   2.467
 2768WAT      O 8545   9.031   0.449   8.820
 2768WAT     H1 8546   8.995   0.541   8.809
 2768WAT     H2 8547   9.123   0.444   8.782
 2769WAT      O 8548   0.904   6.031   1.942
 2769WAT     H1 8549   0.862   6.121   1.947
 2769WAT     H2 8550   0.850   5.966   1.995
 2770WAT      O 8551   0.568   4.772   8.015
 2770WAT     H1 8552   0.641   4.837   8.036
 2770WAT     H2 8553   0.600   4.707   7.947
 2771WAT      O 8554   2.987   7.384   1.580
 2771WAT     H1 8555   2.974   7.337   1.668
 2771WAT     H2 8556   2.953   7.326   1.506
 2772WAT      O 8557   3.597   1.239   8.758
 2772WAT     H1 8558   3.606   1.144   8.727
 2772WAT     H2 8559   3.642   1.299   8.691
 2773WAT      O 8560   2.418   5.977   3.869
 2773WAT     H1 8561   2.435   5.955   3.965
 2773WAT     H2 8562   2.320   5.979   3.852
 2774WAT      O 8563   2.137   4.594   9.849
 2774WAT     H1 8564   2.077   4.637   9.782
 2774WAT     H2 8565   2.176   4.664   9.909
 2775WAT      O 8566   0.899   7.925   9.871
 2775WAT     H1 8567   0.829   7.996   9.873
 2775WAT     H2 8568   0.856   7.835   9.872
 2776WAT      O 8569   8.305   8.343   4.300
 2776WAT     H1 8570   8.280   8.433   4.265
 2776WAT     H2 8571   8.276   8.335   4.396
 2777WAT      O 8572   8.796   0.573   0.324
 2777WAT     H1 8573   8.763   0.528   0.407
 2777WAT     H2 8574   8.829   0.505   0.260
 2778WAT      O 8575   1.460   5.925   9.786
 2778WAT     H1 8576   1.551   5.935   9.826
 2778WAT     H2 8577   1.430   6.014   9.749
 2779WAT      O 8578   2.180   3.780   2.434
 2779WAT     H1 8579   2.168   3.876   2.407
 2779WAT     H2 8580   2.155   3.770   2.531
 2780WAT      O 8581   8.990   5.613   3.952
 2780WAT     H1 8582   8.911   5.646   3.900
 2780WAT     H2 8583   9.013   5.521   3.922
 2781WAT      O 8584   9.393   6.341   4.926
 2781WAT     H1 8585   9.322   6.286   4.882
 2781WAT     H2 8586   9.423   6.295   5.009
 2782WAT      O 8587   6.734   1.455   7.832
 2782WAT     H1 8588   6.771   1.546   7.851
 2782WAT     H2 8589   6.662   1.462   7.764
 2783WAT      O 8590   2.308   5.165   9.289
 2783WAT     H1 8591   2.290   5.246   9.346
 2783WAT     H2 8592   2.384   5.185   9.227
 2784WAT      O 8593   2.625   7.115   0.206
 2784WAT     H1 8594   2.576   7.201   0.219
 2784WAT     H2 8595   2.577   7.060   0.137
 2785WAT      O 8596   6.921   6.272   5.111
 2785WAT     H1 8597   6.906   6.370   5.100
 2785WAT     H2 8598   6.849   6.222   5.063
 2786WAT      O 8599   7.732   6.062   1.514
 2786WAT     H1 8600   7.709   6.020   1.426
 2786WAT     H2 8601   7.808   6.126   1.501
 2787WAT      O 8602   7.835   2.382   1.906
 2787WAT     H1 8603   7.884   2.399   1.821
 2787WAT     H2 8604   7.738   2.405   1.894
 2788WAT      O 8605   1.755   3.536   7.518
 2788WAT     H1 8606   1.838   3.560   7.569
 2788WAT     H2 8607   1.717   3.451   7.555
 2789WAT      O 8608   6.130   5.678   2.797
 2789WAT     H1 8609   6.120   5.604   2.730
 2789WAT     H2 8610   6.151   5.763   2.749
 2790WAT      O 8611   5.636   7.283   2.780
 2790WAT     H1 8612   5.732   7.301   2.800
 2790WAT     H2 8613   5.587   7.266   2.865
 2791WAT      O 8614   9.049   9.143   0.723
 2791WAT     H1 8615   9.078   9.190   0.807
 2791WAT     H2 8616   9.079   9.048   0.726
 2792WAT      O 8617   2.031   5.035   7.443
 2792WAT     H1 8618   2.072   5.058   7.531
 2792WAT     H2 8619   2.079   5.083   7.370
 2793WAT      O 8620   2.353   5.675   4.728
 2793WAT     H1 8621   2.279   5.634   4.674
 2793WAT     H2 8622   2.331   5.770   4.748
 2794WAT      O 8623   3.855   2.660   6.079
 2794WAT     H1 8624   3.835   2.621   6.169
 2794WAT     H2 8625   3.780   2.719   6.051
 2795WAT      O 8626   8.989   4.628   2.427
 2795WAT     H1 8627   9.026   4.673   2.508
 2795WAT     H2 8628   8.941   4.694   2.371
 2796WAT      O 8629   4.001   3.434   7.285
 2796WAT     H1 8630   4.018   3.477   7.374
 2796WAT     H2 8631   4.088   3.425   7.237
 2797WAT      O 8632   0.597   2.338   1.933
 2797WAT     H1 8633   0.667   2.302   1.871
 2797WAT     H2 8634   0.632   2.340   2.026
 2798WAT      O 8635   0.593   5.092   5.920
 2798WAT     H1 8636   0.616   5.170   5.979
 2798WAT     H2 8637   0.675   5.036   5.906
 2799WAT      O 8638   3.377   7.132   5.839
 2799WAT     H1 8639   3.452   7.085   5.794
 2799WAT     H2 8640   3.414   7.198   5.905
 2800WAT      O 8641   9.497   4.400   5.205
 2800WAT     H1 8642   9.565   4.380   5.275
 2800WAT     H2 8643   9.424   4.456   5.244
 2801WAT      O 8644   7.052   8.722   3.372
 2801WAT     H1 8645   7.103   8.638   3.394
 2801WAT     H2 8646   7.029   8.769   3.457
 2802WAT      O 8647   6.723   0.347   8.962
 2802WAT     H1 8648   6.736   0.276   9.031
 2802WAT     H2 8649   6.765   0.432   8.994
 2803WAT      O 8650   0.820   3.334   1.202
 2803WAT     H1 8651   0.840   3.411   1.141
 2803WAT     H2 8652   0.906   3.293   1.234
 2804WAT      O 8653   7.088   1.468   6.941
 2804WAT     H1 8654   7.096   1.531   7.018
 2804WAT     H2 8655   7.007   1.490   6.887
 2805WAT      O 8656   7.173   7.255   3.849
 2805WAT     H1 8657   7.132   7.251   3.758
 2805WAT     H2 8658   7.105   7.289   3.914
 2806WAT      O 8659   1.921   6.667   4.354
 2806WAT     H1 8660   1.963   6.731   4.290
 2806WAT     H2 8661   1.834   6.634   4.317
 2807WAT      O 8662   2.794   2.180   9.187
 2807WAT     H1 8663   2.728   2.104   9.183
 2807WAT     H2 8664   2.871   2.154   9.244
 2808WAT      O 8665   0.737   3.741   8.873
 2808WAT     H1 8666   0.762   3.779   8.962
 2808WAT     H2 8667   0.809   3.680   8.841
 2809WAT      O 8668   1.068   2.643   0.582
 2809WAT     H1 8669   1.055   2.719   0.646
 2809WAT     H2 8670   1.154   2.598   0.602
 2810WAT      O 8671   0.637   8.962   0.503
 2810WAT     H1 8672   0.630   8.957   0.403
 2810WAT     H2 8673   0.683   9.047   0.529
 2811WAT      O 8674   3.891   6.954   7.912
 2811WAT     H1 8675   3.946   6.871   7.920
 2811WAT     H2 8676   3.811   6.948   7.972
 2812WAT      O 8677   6.898   1.047   6.318
 2812WAT     H1 8678   6.939   0.985   6.385
 2812WAT     H2 8679   6.971   1.099   6.272
 2813WAT      O 8680   4.298   8.706   1.406
 2813WAT     H1 8681   4.394   8.716   1.433
 2813WAT     H2 8682   4.263   8.794   1.376
 2814WAT      O 8683   4.015   8.258   9.597
 2814WAT     H1 8684   4.005   8.336   9.658
 2814WAT     H2 8685   4.067   8.186   9.642
 2815WAT      O 8686   1.720   2.050   0.963
 2815WAT     H1 8687   1.701   2.120   1.032
 2815WAT     H2 8688   1.635   2.020   0.922
 2816WAT      O 8689   8.428   7.253   9.264
 2816WAT     H1 8690   8.376   7.187   9.320
 2816WAT     H2 8691   8.486   7.307   9.324
 2817WAT      O 8692   3.021   0.604   8.511
 2817WAT     H1 8693   2.943   0.645   8.463
 2817WAT     H2 8694   2.993   0.517   8.552
 2818WAT      O 8695   5.045   2.615   3.216
 2818WAT     H1 8696   4.949   2.638   3.232
 2818WAT     H2 8697   5.103   2.684   3.258
 2819WAT      O 8698   6.248   2.980   2.532
 2819WAT     H1 8699   6.218   3.014   2.621
 2819WAT     H2 8700   6.272   2.883   2.540
 2820WAT      O 8701   0.380   8.168   8.092
 2820WAT     H1 8702   0.443   8.239   8.122
 2820WAT     H2 8703   0.382   8.162   7.992
 2821WAT      O 8704   3.690   4.205   9.241
 2821WAT     H1 8705   3.626   4.235   9.312
 2821WAT     H2 8706   3.770   4.164   9.283
 2822WAT      O 8707   6.710   6.384   7.523
 2822WAT     H1 8708   6.644   6.454   7.493
 2822WAT     H2 8709   6.670   6.331   7.598
 2823WAT      O 8710   3.494   2.434   3.030
 2823WAT     H1 8711   3.400   2.430   3.064
 2823WAT     H2 8712   3.493   2.438   2.930
 2824WAT      O 8713   3.847   9.167   7.698
 2824WAT     H1 8714   3.941   9.191   7.676
 2824WAT     H2 8715   3.785   9.234   7.657
 2825WAT      O 8716   0.207   7.779   9.184
 2825WAT     H1 8717   0.246   7.688   9.171
 2825WAT     H2 8718   0.114   7.781   9.146
 2826WAT      O 8719   1.205   3.427   6.821
 2826WAT     H1 8720   1.294   3.392   6.792
 2826WAT     H2 8721   1.189   3.516   6.779
 2827WAT      O 8722   8.637   3.907   4.407
 2827WAT     H1 8723   8.699   3.851   4.351
 2827WAT     H2 8724   8.590   3.848   4.473
 2828WAT      O 8725   0.467   5.850   1.164
 2828WAT     H1 8726   0.368   5.861   1.155
 2828WAT     H2 8727   0.489   5.815   1.255
 2829WAT      O 8728   9.737   6.996   5.727
 2829WAT     H1 8729   9.675   6.981   5.650
 2829WAT     H2 8730   9.830   7.008   5.693
 2830WAT      O 8731   3.045   3.152   3.043
 2830WAT     H1 8732   3.067   3.240   3.085
 2830WAT     H2 8733   3.128   3.110   3.007
 2831WAT      O 8734   5.945   0.586   4.496
 2831WAT     H1 8735   5.861   0.616   4.451
 2831WAT     H2 8736   6.013   0.659   4.491
 2832WAT      O 8737   1.683   3.188   7.192
 2832WAT     H1 8738   1.610   3.234   7.244
 2832WAT     H2 8739   1.665   3.200   7.094
 2833WAT      O 8740   5.049   2.457   7.527
 2833WAT     H1 8741   5.006   2.398   7.595
 2833WAT     H2 8742   5.136   2.418   7.499
 2834WAT      O 8743   0.067   0.932   4.951
 2834WAT     H1 8744   0.033   0.845   4.914
 2834WAT     H2 8745   0.112   0.983   4.878
 2835WAT      O 8746   5.199   9.272   8.879
 2835WAT     H1 8747   5.168   9.178   8.862
 2835WAT     H2 8748   5.132   9.320   8.936
 2836WAT      O 8749   7.374   2.708   4.475
 2836WAT     H1 8750   7.430   2.707   4.558
 2836WAT     H2 8751   7.388   2.623   4.425
 2837WAT      O 8752   8.592   3.580   2.745
 2837WAT     H1 8753   8.685   3.551   2.725
 2837WAT     H2 8754   8.583   3.678   2.727
 2838WAT      O 8755   6.462   5.628   0.576
 2838WAT     H1 8756   6.456   5.569   0.656
 2838WAT     H2 8757   6.371   5.661   0.552
 2839WAT      O 8758   1.099   9.034   0.812
 2839WAT     H1 8759   1.163   8.958   0.825
 2839WAT     H2 8760   1.007   9.006   0.839
 2840WAT      O 8761   7.889   8.410   0.696
 2840WAT     H1 8762   7.879   8.338   0.765
 2840WAT     H2 8763   7.800   8.451   0.677
 2841WAT      O 8764   9.097   8.147   4.969
 2841WAT     H1 8765   9.103   8.244   4.994
 2841WAT     H2 8766   9.189   8.108   4.965
 2842WAT      O 8767   4.959   0.060   1.339
 2842WAT     H1 8768   5.026   0.041   1.411
 2842WAT     H2 8769   4.970   0.154   1.307
 2843WAT      O 8770   1.198   6.787   4.984
 2843WAT     H1 8771   1.234   6.696   5.004
 2843WAT     H2 8772   1.152   6.786   4.895
 2844WAT      O 8773   0.014   8.207   9.632
 2844WAT     H1 8774   0.078   8.275   9.595
 2844WAT     H2 8775   0.049   8.115   9.614
 2845WAT      O 8776   1.509   0.441   3.854
 2845WAT     H1 8777   1.498   0.532   3.895
 2845WAT     H2 8778   1.536   0.451   3.758
 2846WAT      O 8779   3.945   1.562   7.515
 2846WAT     H1 8780   3.987   1.479   7.553
 2846WAT     H2 8781   3.846   1.548   7.507
 2847WAT      O 8782   6.837   3.297   4.038
 2847WAT     H1 8783   6.778   3.302   4.118
 2847WAT     H2 8784   6.887   3.383   4.027
 2848WAT      O 8785   2.323   5.926   2.982
 2848WAT     H1 8786   2.409   5.964   2.950
 2848WAT     H2 8787   2.307   5.837   2.939
 2849WAT      O 8788   9.424   7.788   0.382
 2849WAT     H1 8789   9.483   7.765   0.305
 2849WAT     H2 8790   9.468   7.857   0.438
 2850WAT      O 8791   7.375   8.951   0.373
 2850WAT     H1 8792   7.349   9.048   0.368
 2850WAT     H2 8793   7.421   8.934   0.460
 2851WAT      O 8794   1.948   3.364   4.255
 2851WAT     H1 8795   1.886   3.370   4.333
 2851WAT     H2 8796   2.040   3.341   4.287
 2852WAT      O 8797   3.014   2.117   3.476
 2852WAT     H1 8798   2.936   2.085   3.529
 2852WAT     H2 8799   2.984   2.190   3.414
 2853WAT      O 8800   0.637   4.663   6.401
 2853WAT     H1 8801   0.674   4.685   6.491
 2853WAT     H2 8802   0.706   4.683   6.331
 2854WAT      O 8803   0.942   6.156   9.185
 2854WAT     H1 8804   1.040   6.138   9.191
 2854WAT     H2 8805   0.899   6.090   9.123
 2855WAT      O 8806   0.923   6.971   9.049
 2855WAT     H1 8807   0.854   6.898   9.044
 2855WAT     H2 8808   0.926   7.020   8.962
 2856WAT      O 8809   8.033   3.046   2.713
 2856WAT     H1 8810   7.964   2.975   2.728
 2856WAT     H2 8811   8.067   3.041   2.619
 2857WAT      O 8812   2.192   7.549   6.180
 2857WAT     H1 8813   2.125   7.528   6.251
 2857WAT     H2 8814   2.203   7.470   6.120
 2858WAT      O 8815   5.695   5.035   0.419
 2858WAT     H1 8816   5.707   4.940   0.449
 2858WAT     H2 8817   5.686   5.094   0.499
 2859WAT      O 8818   5.261   6.551   3.084
 2859WAT     H1 8819   5.236   6.478   3.020
 2859WAT     H2 8820   5.229   6.527   3.175
 2860WAT      O 8821   6.576   7.424   7.717
 2860WAT     H1 8822   6.579   7.496   7.787
 2860WAT     H2 8823   6.492   7.371   7.726
 2861WAT      O 8824   3.761   1.498   5.498
 2861WAT     H1 8825   3.763   1.597   5.487
 2861WAT     H2 8826   3.848   1.467   5.535
 2862WAT      O 8827   8.653   2.073   8.531
 2862WAT     H1 8828   8.716   2.064   8.608
 2862WAT     H2 8829   8.590   1.995   8.529
 2863WAT      O 8830   2.684   2.803   3.990
 2863WAT     H1 8831   2.747   2.787   3.914
 2863WAT     H2 8832   2.721   2.875   4.049
 2864WAT      O 8833   8.055   9.540   5.814
 2864WAT     H1 8834   8.089   9.559   5.722
 2864WAT     H2 8835   8.115   9.474   5.859
 2865WAT      O 8836   5.054   2.809   8.275
 2865WAT     H1 8837   4.991   2.839   8.347
 2865WAT     H2 8838   5.004   2.793   8.191
 2866WAT      O 8839   3.890   3.193   7.329
 2866WAT     H1 8840   3.820   3.191   7.400
 2866WAT     H2 8841   3.909   3.288   7.303
 2867WAT      O 8842   6.947   3.731   2.877
 2867WAT     H1 8843   6.995   3.772   2.954
 2867WAT     H2 8844   6.956   3.631   2.881
 2868WAT      O 8845   1.235   1.909   5.288
 2868WAT     H1 8846   1.157   1.868   5.334
 2868WAT     H2 8847   1.233   2.008   5.301
 2869WAT      O 8848   3.716   0.494   2.690
 2869WAT     H1 8849   3.681   0.414   2.738
 2869WAT     H2 8850   3.806   0.472   2.651
 2870WAT      O 8851   9.299   7.317   5.311
 2870WAT     H1 8852   9.336   7.224   5.319
 2870WAT     H2 8853   9.243   7.323   5.229
 2871WAT      O 8854   2.987   3.691   1.027
 2871WAT     H1 8855   3.028   3.649   1.108
 2871WAT     H2 8856   2.909   3.636   0.996
 2872WAT      O 8857   1.628   2.988   9.212
 2872WAT     H1 8858   1.626   2.958   9.307
 2872WAT     H2 8859   1.591   3.081   9.206
 2873WAT      O 8860   2.079   4.214   6.086
 2873WAT     H1 8861   2.135   4.155   6.144
 2873WAT     H2 8862   2.005   4.254   6.141
 2874WAT      O 8863   8.607   8.676   8.049
 2874WAT     H1 8864   8.583   8.591   8.002
 2874WAT     H2 8865   8.557   8.752   8.008
 2875WAT      O 8866   1.761   6.224   3.836
 2875WAT     H1 8867   1.772   6.143   3.778
 2875WAT     H2 8868   1.829   6.220   3.910
 2876WAT      O 8869   7.529   2.057   5.433
 2876WAT     H1 8870   7.461   1.992   5.464
 2876WAT     H2 8871   7.525   2.064   5.333
 2877WAT      O 8872   6.952   6.027   5.772
 2877WAT     H1 8873   7.006   6.032   5.856
 2877WAT     H2 8874   6.892   6.107   5.766
 2878WAT      O 8875   8.345   2.894   1.508
 2878WAT     H1 8876   8.383   2.824   1.448
 2878WAT     H2 8877   8.252   2.917   1.478
 2879WAT      O 8878   7.020   4.278   1.514
 2879WAT     H1 8879   6.968   4.214   1.458
 2879WAT     H2 8880   7.101   4.232   1.552
 2880WAT      O 8881   8.203   2.787   9.009
 2880WAT     H1 8882   8.135   2.724   8.973
 2880WAT     H2 8883   8.295   2.748   8.996
 2881WAT      O 8884   2.704   5.750   9.215
 2881WAT     H1 8885   2.737   5.818   9.149
 2881WAT     H2 8886   2.737   5.774   9.307
 2882WAT      O 8887   3.240   3.830   2.806
 2882WAT     H1 8888   3.140   3.821   2.816
 2882WAT     H2 8889   3.261   3.858   2.712
 2883WAT      O 8890   1.702   7.529   1.486
 2883WAT     H1 8891   1.605   7.554   1.482
 2883WAT     H2 8892   1.757   7.610   1.505
 2884WAT      O 8893   8.506   5.558   4.609
 2884WAT     H1 8894   8.579   5.518   4.665
 2884WAT     H2 8895   8.478   5.645   4.648
 2885WAT      O 8896   4.206   2.222   8.213
 2885WAT     H1 8897   4.265   2.153   8.171
 2885WAT     H2 8898   4.126   2.237   8.156
 2886WAT      O 8899   9.726   3.185   3.977
 2886WAT     H1 8900   9.805   3.178   3.917
 2886WAT     H2 8901   9.751   3.153   4.069
 2887WAT      O 8902   0.738   3.974   4.319
 2887WAT     H1 8903   0.647   4.005   4.347
 2887WAT     H2 8904   0.733   3.934   4.227
 2888WAT      O 8905   5.916   5.273   0.475
 2888WAT     H1 8906   5.952   5.198   0.420
 2888WAT     H2 8907   5.826   5.249   0.509
 2889WAT      O 8908   5.792   9.387   5.205
 2889WAT     H1 8909   5.839   9.400   5.292
 2889WAT     H2 8910   5.844   9.430   5.131
 2890WAT      O 8911   7.349   0.318   3.939
 2890WAT     H1 8912   7.346   0.351   3.844
 2890WAT     H2 8913   7.290   0.237   3.947
 2891WAT      O 8914   5.079   2.826   0.885
 2891WAT     H1 8915   5.095   2.795   0.979
 2891WAT     H2 8916   4.987   2.865   0.879
 2892WAT      O 8917   0.874   6.877   2.952
 2892WAT     H1 8918   0.813   6.950   2.984
 2892WAT     H2 8919   0.966   6.893   2.989
 2893WAT      O 8920   6.421   2.247   0.053
 2893WAT     H1 8921   6.411   2.206   0.144
 2893WAT     H2 8922   6.474   2.186  -0.005
 2894WAT      O 8923   6.235   8.825   5.309
 2894WAT     H1 8924   6.270   8.863   5.224
 2894WAT     H2 8925   6.198   8.734   5.292
 2895WAT      O 8926   5.104   4.034   4.850
 2895WAT     H1 8927   5.102   4.134   4.846
 2895WAT     H2 8928   5.179   3.999   4.794
 2896WAT      O 8929   8.972   2.026   6.976
 2896WAT     H1 8930   8.958   2.017   7.074
 2896WAT     H2 8931   8.883   2.040   6.931
 2897WAT      O 8932   3.776   2.867   4.875
 2897WAT     H1 8933   3.857   2.808   4.877
 2897WAT     H2 8934   3.721   2.845   4.794
 2898WAT      O 8935   0.540   2.532   8.405
 2898WAT     H1 8936   0.635   2.552   8.385
 2898WAT     H2 8937   0.521   2.436   8.387
 2899WAT      O 8938   3.965   6.332   4.238
 2899WAT     H1 8939   4.043   6.334   4.175
 2899WAT     H2 8940   3.962   6.244   4.285
 2900WAT      O 8941   0.334   4.635   7.300
 2900WAT     H1 8942   0.264   4.677   7.359
 2900WAT     H2 8943   0.392   4.575   7.354
 2901WAT      O 8944   9.299   5.477   2.825
 2901WAT     H1 8945   9.216   5.528   2.848
 2901WAT     H2 8946   9.279   5.413   2.750
 2902WAT      O 8947   7.497   9.183   2.740
 2902WAT     H1 8948   7.549   9.138   2.813
 2902WAT     H2 8949   7.472   9.115   2.671
 2903WAT      O 8950   4.334   2.396   1.023
 2903WAT     H1 8951   4.315   2.489   0.992
 2903WAT     H2 8952   4.321   2.390   1.122
 2904WAT      O 8953   1.858   1.253   7.117
 2904WAT     H1 8954   1.769   1.208   7.125
 2904WAT     H2 8955   1.850   1.331   7.055
 2905WAT      O 8956   5.678   2.076   2.814
 2905WAT     H1 8957   5.674   2.007   2.886
 2905WAT     H2 8958   5.636   2.040   2.731
 2906WAT      O 8959   3.126   5.320   7.838
 2906WAT     H1 8960   3.077   5.233   7.847
 2906WAT     H2 8961   3.162   5.329   7.746
 2907WAT      O 8962   9.339   4.077   5.986
 2907WAT     H1 8963   9.337   4.017   5.906
 2907WAT     H2 8964   9.274   4.152   5.972
 2908WAT      O 8965   1.969   7.518   9.819
 2908WAT     H1 8966   2.012   7.436   9.856
 2908WAT     H2 8967   1.919   7.496   9.736
 2909WAT      O 8968   7.149   6.121   5.144
 2909WAT     H1 8969   7.064   6.169   5.122
 2909WAT     H2 8970   7.216   6.186   5.179
 2910WAT      O 8971   8.950   0.772   2.371
 2910WAT     H1 8972   8.990   0.850   2.324
 2910WAT     H2 8973   8.919   0.801   2.462
 2911WAT      O 8974   6.986   6.460   2.058
 2911WAT     H1 8975   6.996   6.399   2.137
 2911WAT     H2 8976   6.913   6.427   1.999
 2912WAT      O 8977   1.296   7.937   1.482
 2912WAT     H1 8978   1.366   7.959   1.551
 2912WAT     H2 8979   1.251   7.851   1.505
 2913WAT      O 8980   1.365   3.151   4.564
 2913WAT     H1 8981   1.336   3.144   4.468
 2913WAT     H2 8982   1.285   3.160   4.623
 2914WAT      O 8983   3.718   7.238   4.738
 2914WAT     H1 8984   3.672   7.165   4.688
 2914WAT     H2 8985   3.812   7.211   4.758
 2915WAT      O 8986   1.771   9.052   2.926
 2915WAT     H1 8987   1.746   9.060   3.022
 2915WAT     H2 8988   1.857   9.102   2.910
 2916WAT      O 8989   0.271   6.196   4.096
 2916WAT     H1 8990   0.306   6.244   4.016
 2916WAT     H2 8991   0.202   6.253   4.142
 2917WAT      O 8992   3.612   5.140   8.248
 2917WAT     H1 8993   3.588   5.093   8.163
 2917WAT     H2 8994   3.585   5.084   8.326
 2918WAT      O 8995   0.660   5.437   2.321
 2918WAT     H1 8996   0.616   5.348   2.308
 2918WAT     H2 8997   0.594   5.500   2.363
 2919WAT      O 8998   2.117   1.706   9.844
 2919WAT     H1 8999   2.120   1.781   9.779
 2919WAT     H2 9000   2.136   1.741   9.936
 2920WAT      O 9001   1.861   4.711   8.300
 2920WAT     H1 9002   1.762   4.708   8.290
 2920WAT     H2 9003   1.886   4.681   8.392
 2921WAT      O 9004   9.788   9.679   0.044
 2921WAT     H1 9005   9.862   9.612   0.045
 2921WAT     H2 9006   9.759   9.698   0.138
 2922WAT      O 9007   0.176   8.625   8.266
 2922WAT     H1 9008   0.117   8.705   8.261
 2922WAT     H2 9009   0.190   8.599   8.361
 2923WAT      O 9010   9.117   4.287   0.012
 2923WAT     H1 9011   9.141   4.379   0.044
 2923WAT     H2 9012   9.140   4.279  -0.085
 2924WAT      O 9013   5.134   1.742   1.916
 2924WAT     H1 9014   5.159   1.647   1.900
 2924WAT     H2 9015   5.188   1.778   1.992
 2925WAT      O 9016   5.496   9.620   9.134
 2925WAT     H1 9017   5.572   9.556   9.139
 2925WAT     H2 9018   5.459   9.634   9.226
 2926WAT      O 9019   1.192   1.115   1.273
 2926WAT     H1 9020   1.248   1.048   1.225
 2926WAT     H2 9021   1.249   1.189   1.306
 2927WAT      O 9022   1.256   8.557   5.886
 2927WAT     H1 9023   1.167   8.588   5.853
 2927WAT     H2 9024   1.274   8.596   5.976
 2928WAT      O 9025   1.872   3.555   3.235
 2928WAT     H1 9026   1.900   3.649   3.253
 2928WAT     H2 9027   1.775   3.553   3.209
 2929WAT      O 9028   6.344   9.659   7.904
 2929WAT     H1 9029   6.407   9.737   7.907
 2929WAT     H2 9030   6.288   9.666   7.821
 2930WAT      O 9031   0.440   1.001   2.548
 2930WAT     H1 9032   0.487   1.086   2.571
 2930WAT     H2 9033   0.408   0.957   2.632
 2931WAT      O 9034   6.985   6.629   0.604
 2931WAT     H1 9035   6.973   6.714   0.552
 2931WAT     H2 9036   7.068   6.636   0.659
 2932WAT      O 9037   2.751   6.288   1.041
 2932WAT     H1 9038   2.720   6.245   1.126
 2932WAT     H2 9039   2.843   6.257   1.020
 2933WAT      O 9040   6.579   2.358   5.615
 2933WAT     H1 9041   6.615   2.365   5.708
 2933WAT     H2 9042   6.535   2.269   5.603
 2934WAT      O 9043   2.238   5.480   6.546
 2934WAT     H1 9044   2.192   5.480   6.635
 2934WAT     H2 9045   2.289   5.395   6.535
 2935WAT      O 9046   4.506   5.857   1.438
 2935WAT     H1 9047   4.577   5.788   1.448
 2935WAT     H2 9048   4.540   5.946   1.469
 2936WAT      O 9049   0.641   8.118   5.440
 2936WAT     H1 9050   0.582   8.058   5.493
 2936WAT     H2 9051   0.585   8.186   5.392
 2937WAT      O 9052   1.717   5.146   0.297
 2937WAT     H1 9053   1.678   5.238   0.308
 2937WAT     H2 9054   1.740   5.131   0.201
 2938WAT      O 9055   4.594   6.510   0.218
 2938WAT     H1 9056   4.647   6.556   0.290
 2938WAT     H2 9057   4.542   6.578   0.166
 2939WAT      O 9058   1.288   9.231   6.769
 2939WAT     H1 9059   1.384   9.246   6.794
 2939WAT     H2 9060   1.237   9.316   6.781
 2940WAT      O 9061   4.771   8.837   1.038
 2940WAT     H1 9062   4.720   8.786   1.107
 2940WAT     H2 9063   4.824   8.774   0.982
 2941WAT      O 9064   8.938   1.188   1.844
 2941WAT     H1 9065   9.021   1.175   1.898
 2941WAT     H2 9066   8.858   1.183   1.904
 2942WAT      O 9067   7.301   3.784   9.607
 2942WAT     H1 9068   7.316   3.874   9.567
 2942WAT     H2 9069   7.207   3.755   9.589
 2943WAT      O 9070   8.360   0.470   0.813
 2943WAT     H1 9071   8.339   0.394   0.750
 2943WAT     H2 9072   8.278   0.492   0.866
 2944WAT      O 9073   7.995   4.034   7.454
 2944WAT     H1 9074   8.074   4.075   7.408
 2944WAT     H2 9075   8.024   3.995   7.541
 2945WAT      O 9076   6.548   7.364   5.907
 2945WAT     H1 9077   6.522   7.360   6.003
 2945WAT     H2 9078   6.636   7.318   5.894
 2946WAT      O 9079   4.974   8.246   1.756
 2946WAT     H1 9080   4.994   8.310   1.830
 2946WAT     H2 9081   4.880   8.261   1.724
 2947WAT      O 9082   4.758   5.976   9.179
 2947WAT     H1 9083   4.833   6.039   9.160
 2947WAT     H2 9084   4.725   5.937   9.093
 2948WAT      O 9085   7.914   7.627   3.440
 2948WAT     H1 9086   7.915   7.581   3.529
 2948WAT     H2 9087   8.005   7.660   3.419
 2949WAT      O 9088   3.845   6.500   0.761
 2949WAT     H1 9089   3.815   6.557   0.685
 2949WAT     H2 9090   3.816   6.542   0.847
 2950WAT      O 9091   2.985   2.903   9.361
 2950WAT     H1 9092   2.956   2.818   9.316
 2950WAT     H2 9093   3.067   2.885   9.416
 2951WAT      O 9094   5.208   7.696   0.688
 2951WAT     H1 9095   5.126   7.642   0.707
 2951WAT     H2 9096   5.193   7.752   0.606
 2952WAT      O 9097   3.760   5.326   7.918
 2952WAT     H1 9098   3.783   5.238   7.876
 2952WAT     H2 9099   3.794   5.328   8.012
 2953WAT      O 9100   7.179   1.756   5.755
 2953WAT     H1 9101   7.257   1.819   5.748
 2953WAT     H2 9102   7.102   1.793   5.705
 2954WAT      O 9103   8.079   6.509   5.107
 2954WAT     H1 9104   8.137   6.510   5.025
 2954WAT     H2 9105   7.983   6.507   5.079
 2955WAT      O 9106   1.515   2.398   5.294
 2955WAT     H1 9107   1.563   2.310   5.287
 2955WAT     H2 9108   1.431   2.385   5.347
 2956WAT      O 9109   7.230   2.183   1.887
 2956WAT     H1 9110   7.244   2.118   1.813
 2956WAT     H2 9111   7.256   2.274   1.857
 2957WAT      O 9112   4.701   7.398   7.707
 2957WAT     H1 9113   4.613   7.443   7.718
 2957WAT     H2 9114   4.712   7.371   7.611
 2958WAT      O 9115   9.553   1.221   7.816
 2958WAT     H1 9116   9.644   1.180   7.822
 2958WAT     H2 9117   9.560   1.320   7.822
 2959WAT      O 9118   1.336   0.937   1.741
 2959WAT     H1 9119   1.428   0.970   1.718
 2959WAT     H2 9120   1.277   0.946   1.662
 2960WAT      O 9121   5.990   3.160   7.708
 2960WAT     H1 9122   6.007   3.196   7.799
 2960WAT     H2 9123   5.929   3.222   7.658
 2961WAT      O 9124   0.349   2.851   0.754
 2961WAT     H1 9125   0.422   2.804   0.804
 2961WAT     H2 9126   0.312   2.924   0.811
 2962WAT      O 9127   6.711   4.385   1.444
 2962WAT     H1 9128   6.782   4.347   1.503
 2962WAT     H2 9129   6.628   4.401   1.498
 2963WAT      O 9130   0.512   0.801   4.015
 2963WAT     H1 9131   0.609   0.784   3.998
 2963WAT     H2 9132   0.470   0.843   3.934
 2964WAT      O 9133   5.334   6.104   3.582
 2964WAT     H1 9134   5.307   6.166   3.508
 2964WAT     H2 9135   5.263   6.102   3.652
 2965WAT      O 9136   2.491   5.476   8.387
 2965WAT     H1 9137   2.475   5.449   8.482
 2965WAT     H2 9138   2.553   5.555   8.384
 2966WAT      O 9139   0.226   1.069   1.531
 2966WAT     H1 9140   0.270   0.980   1.545
 2966WAT     H2 9141   0.205   1.082   1.434
 2967WAT      O 9142   4.624   2.405   6.395
 2967WAT     H1 9143   4.600   2.465   6.319
 2967WAT     H2 9144   4.544   2.391   6.454
 2968WAT      O 9145   5.990   8.896   0.422
 2968WAT     H1 9146   5.913   8.911   0.360
 2968WAT     H2 9147   6.015   8.982   0.465
 2969WAT      O 9148   7.587   3.383   7.697
 2969WAT     H1 9149   7.637   3.430   7.624
 2969WAT     H2 9150   7.525   3.447   7.742
 2970WAT      O 9151   8.711   8.351   5.198
 2970WAT     H1 9152   8.733   8.420   5.267
 2970WAT     H2 9153   8.758   8.266   5.219
 2971WAT      O 9154   6.914   0.382   2.817
 2971WAT     H1 9155   6.940   0.299   2.866
 2971WAT     H2 9156   6.852   0.437   2.874
 2972WAT      O 9157   4.575   7.159   2.254
 2972WAT     H1 9158   4.625   7.234   2.298
 2972WAT     H2 9159   4.477   7.177   2.260
 2973WAT      O 9160   4.690   7.476   6.194
 2973WAT     H1 9161   4.597   7.440   6.191
 2973WAT     H2 9162   4.697   7.540   6.271
 2974WAT      O 9163   9.649   4.376   7.006
 2974WAT     H1 9164   9.730   4.391   7.063
 2974WAT     H2 9165   9.676   4.333   6.920
 2975WAT      O 9166   6.195   6.782   1.540
 2975WAT     H1 9167   6.214   6.871   1.497
 2975WAT     H2 9168   6.133   6.796   1.617
 2976WAT      O 9169   5.709   0.956   0.345
 2976WAT     H1 9170   5.798   0.931   0.383
 2976WAT     H2 9171   5.702   1.056   0.341
 2977WAT      O 9172   4.396   5.987   7.478
 2977WAT     H1 9173   4.403   5.891   7.503
 2977WAT     H2 9174   4.485   6.031   7.490
 2978WAT      O 9175   4.748   6.065   2.168
 2978WAT     H1 9176   4.649   6.060   2.157
 2978WAT     H2 9177   4.779   6.157   2.144
 2979WAT      O 9178   2.281   1.196   0.960
 2979WAT     H1 9179   2.207   1.234   1.016
 2979WAT     H2 9180   2.316   1.267   0.899
 2980WAT      O 9181   0.640   4.828   0.890
 2980WAT     H1 9182   0.661   4.924   0.909
 2980WAT     H2 9183   0.655   4.774   0.973
 2981WAT      O 9184   4.015   3.738   2.394
 2981WAT     H1 9185   3.967   3.721   2.481
 2981WAT     H2 9186   4.064   3.824   2.399
 2982WAT      O 9187   2.894   7.964   9.832
 2982WAT     H1 9188   2.967   8.031   9.831
 2982WAT     H2 9189   2.843   7.968   9.747
 2983WAT      O 9190   7.224   0.804   3.755
 2983WAT     H1 9191   7.312   0.759   3.735
 2983WAT     H2 9192   7.233   0.857   3.839
 2984WAT      O 9193   7.795   4.022   2.175
 2984WAT     H1 9194   7.713   3.966   2.181
 2984WAT     H2 9195   7.822   4.032   2.079
 2985WAT      O 9196   5.444   0.110   6.207
 2985WAT     H1 9197   5.518   0.137   6.146
 2985WAT     H2 9198   5.366   0.171   6.193
 2986WAT      O 9199   1.706   2.436   0.274
 2986WAT     H1 9200   1.653   2.351   0.276
 2986WAT     H2 9201   1.747   2.453   0.363
 2987WAT      O 9202   6.547   2.530   3.224
 2987WAT     H1 9203   6.555   2.434   3.252
 2987WAT     H2 9204   6.578   2.589   3.299
 2988WAT      O 9205   5.638   6.813   8.943
 2988WAT     H1 9206   5.665   6.719   8.960
 2988WAT     H2 9207   5.710   6.875   8.974
 2989WAT      O 9208   0.141   8.779   6.572
 2989WAT     H1 9209   0.188   8.839   6.507
 2989WAT     H2 9210   0.188   8.781   6.660
 2990WAT      O 9211   9.026   1.556   5.922
 2990WAT     H1 9212   9.124   1.541   5.907
 2990WAT     H2 9213   9.008   1.654   5.933
 2991WAT      O 9214   0.086   5.908   7.501
 2991WAT     H1 9215   0.055   5.975   7.433
 2991WAT     H2 9216   0.049   5.818   7.477
 2992WAT      O 9217   8.171   1.355   7.824
 2992WAT     H1 9218   8.138   1.396   7.740
 2992WAT     H2 9219   8.104   1.366   7.896
 2993WAT      O 9220   1.592   2.490   1.716
 2993WAT     H1 9221   1.567   2.584   1.695
 2993WAT     H2 9222   1.676   2.489   1.771
 2994WAT      O 9223   3.252   7.202   9.481
 2994WAT     H1 9224   3.348   7.231   9.476
 2994WAT     H2 9225   3.247   7.102   9.480
 2995WAT      O 9226   1.786   1.697   8.456
 2995WAT     H1 9227   1.811   1.766   8.388
 2995WAT     H2 9228   1.868   1.667   8.506
 2996WAT      O 9229   0.924   1.796   1.330
 2996WAT     H1 9230   1.013   1.827   1.299
 2996WAT     H2 9231   0.933   1.755   1.421
 2997WAT      O 9232   4.050   1.835   4.244
 2997WAT     H1 9233   4.103   1.871   4.321
 2997WAT     H2 9234   3.962   1.800   4.278
 2998WAT      O 9235   1.592   5.249   5.466
 2998WAT     H1 9236   1.498   5.279   5.446
 2998WAT     H2 9237   1.652   5.329   5.470
 2999WAT      O 9238   1.284   5.367   9.603
 2999WAT     H1 9239   1.280   5.337   9.508
 2999WAT     H2 9240   1.318   5.292   9.660
 3000WAT      O 9241   3.204   3.420   7.828
 3000WAT     H1 9242   3.246   3.358   7.894
 3000WAT     H2 9243   3.214   3.515   7.860
 3001WAT      O 9244   9.253   4.124   6.238
 3001WAT     H1 9245   9.218   4.217   6.226
 3001WAT     H2 9246   9.281   4.087   6.149
 3002WAT      O 9247   0.797   2.787   5.549
 3002WAT     H1 9248   0.794   2.803   5.451
 3002WAT     H2 9249   0.892   2.772   5.577
 3003WAT      O 9250   7.816   5.278   9.339
 3003WAT     H1 9251   7.899   5.294   9.392
 3003WAT     H2 9252   7.813   5.341   9.262
 3004WAT      O 9253   7.843   5.369   6.557
 3004WAT     H1 9254   7.901   5.427   6.500
 3004WAT     H2 9255   7.764   5.339   6.503
 3005WAT      O 9256   5.601   1.275   1.480
 3005WAT     H1 9257   5.577   1.261   1.384
 3005WAT     H2 9258   5.535   1.338   1.522
 3006WAT      O 9259   6.902   6.710   6.660
 3006WAT     H1 9260   6.984   6.710   6.718
 3006WAT     H2 9261   6.821   6.700   6.718
 3007WAT      O 9262   3.972   5.438   2.754
 3007WAT     H1 9263   3.991   5.393   2.841
 3007WAT     H2 9264   4.019   5.389   2.680
 3008WAT      O 9265   5.251   1.229   8.367
 3008WAT     H1 9266   5.282   1.185   8.451
 3008WAT     H2 9267   5.300   1.190   8.289
 3009WAT      O 9268   5.604   3.537   2.042
 3009WAT     H1 9269   5.632   3.633   2.040
 3009WAT     H2 9270   5.520   3.526   1.989
 3010WAT      O 9271   3.681   1.548   7.496
 3010WAT     H1 9272   3.672   1.647   7.511
 3010WAT     H2 9273   3.647   1.526   7.405
 3011WAT      O 9274   1.345   9.111   1.766
 3011WAT     H1 9275   1.445   9.100   1.762
 3011WAT     H2 9276   1.317   9.121   1.861
 3012WAT      O 9277   3.388   2.822   0.715
 3012WAT     H1 9278   3.358   2.913   0.687
 3012WAT     H2 9279   3.309   2.770   0.748
 3013WAT      O 9280   1.301   7.365   4.197
 3013WAT     H1 9281   1.385   7.331   4.240
 3013WAT     H2 9282   1.322   7.405   4.108
 3014WAT      O 9283   0.361   6.786   3.049
 3014WAT     H1 9284   0.363   6.704   3.107
 3014WAT     H2 9285   0.421   6.773   2.971
 3015WAT      O 9286   6.502   9.592   0.202
 3015WAT     H1 9287   6.551   9.596   0.115
 3015WAT     H2 9288   6.404   9.578   0.185
 3016WAT      O 9289   0.633   0.859   5.540
 3016WAT     H1 9290   0.708   0.820   5.488
 3016WAT     H2 9291   0.662   0.946   5.581
 3017WAT      O 9292   3.727   4.029   1.504
 3017WAT     H1 9293   3.667   3.951   1.518
 3017WAT     H2 9294   3.693   4.084   1.428
 3018WAT      O 9295   9.031   6.787   2.338
 3018WAT     H1 9296   8.948   6.742   2.370
 3018WAT     H2 9297   9.011   6.838   2.254
 3019WAT      O 9298   1.491   3.856   8.665
 3019WAT     H1 9299   1.531   3.935   8.713
 3019WAT     H2 9300   1.419   3.887   8.604
 3020WAT      O 9301   6.769   9.420   9.539
 3020WAT     H1 9302   6.804   9.337   9.495
 3020WAT     H2 9303   6.816   9.434   9.626
 3021WAT      O 9304   5.920   3.494   5.494
 3021WAT     H1 9305   5.968   3.407   5.482
 3021WAT     H2 9306   5.947   3.558   5.422
 3022WAT      O 9307   4.949   7.871   3.172
 3022WAT     H1 9308   4.896   7.803   3.121
 3022WAT     H2 9309   4.891   7.915   3.240
 3023WAT      O 9310   8.066   1.046   2.558
 3023WAT     H1 9311   8.108   0.995   2.483
 3023WAT     H2 9312   7.984   0.997   2.590
 3024WAT      O 9313   3.200   5.645   6.034
 3024WAT     H1 9314   3.219   5.665   6.131
 3024WAT     H2 9315   3.187   5.731   5.985
 3025WAT      O 9316   1.793   4.779   5.586
 3025WAT     H1 9317   1.865   4.846   5.604
 3025WAT     H2 9318   1.835   4.695   5.551
 3026WAT      O 9319   7.881   4.309   5.455
 3026WAT     H1 9320   7.803   4.372   5.451
 3026WAT     H2 9321   7.942   4.336   5.529
 3027WAT      O 9322   8.526   6.881   6.497
 3027WAT     H1 9323   8.591   6.939   6.446
 3027WAT     H2 9324   8.468   6.938   6.554
 3028WAT      O 9325   5.555   8.210   3.436
 3028WAT     H1 9326   5.594   8.299   3.462
 3028WAT     H2 9327   5.517   8.216   3.343
 3029WAT      O 9328   5.751   4.914   0.754
 3029WAT     H1 9329   5.692   4.845   0.712
 3029WAT     H2 9330   5.709   5.004   0.744
 3030WAT      O 9331   4.904   8.370   4.207
 3030WAT     H1 9332   4.881   8.354   4.303
 3030WAT     H2 9333   4.948   8.289   4.169
 3031WAT      O 9334   3.140   2.155   2.028
 3031WAT     H1 9335   3.101   2.203   2.107
 3031WAT     H2 9336   3.069   2.143   1.958
 3032WAT      O 9337   9.156   2.816   6.370
 3032WAT     H1 9338   9.203   2.889   6.321
 3032WAT     H2 9339   9.064   2.804   6.331
 3033WAT      O 9340   6.948   0.757   4.912
 3033WAT     H1 9341   6.994   0.762   4.823
 3033WAT     H2 9342   7.007   0.711   4.977
 3034WAT      O 9343   7.857   5.715   3.565
 3034WAT     H1 9344   7.835   5.805   3.528
 3034WAT     H2 9345   7.949   5.717   3.604
 3035WAT      O 9346   6.683   9.246   6.788
 3035WAT     H1 9347   6.658   9.276   6.879
 3035WAT     H2 9348   6.603   9.207   6.742
 3036WAT      O 9349   3.802   5.971   7.979
 3036WAT     H1 9350   3.786   5.905   7.906
 3036WAT     H2 9351   3.802   5.924   8.067
 3037WAT      O 9352   4.651   4.492   7.818
 3037WAT     H1 9353   4.643   4.513   7.720
 3037WAT     H2 9354   4.600   4.408   7.838
 3038WAT      O 9355   1.114   1.555   2.603
 3038WAT     H1 9356   1.164   1.616   2.543
 3038WAT     H2 9357   1.110   1.594   2.695
 3039WAT      O 9358   5.251   3.403   0.956
 3039WAT     H1 9359   5.165   3.453   0.943
 3039WAT     H2 9360   5.240   3.310   0.924
 3040WAT      O 9361   1.664   9.163   3.773
 3040WAT     H1 9362   1.635   9.152   3.868
 3040WAT     H2 9363   1.611   9.102   3.714
 3041WAT      O 9364   9.533   6.732   4.051
 3041WAT     H1 9365   9.477   6.774   3.979
 3041WAT     H2 9366   9.583   6.804   4.100
 3042WAT      O 9367   3.499   7.380   3.440
 3042WAT     H1 9368   3.500   7.371   3.539
 3042WAT     H2 9369   3.466   7.295   3.399
 3043WAT      O 9370   8.066   2.530   3.003
 3043WAT     H1 9371   8.122   2.563   2.927
 3043WAT     H2 9372   8.125   2.498   3.077
 3044WAT      O 9373   4.674   9.589   9.614
 3044WAT     H1 9374   4.697   9.673   9.663
 3044WAT     H2 9375   4.626   9.612   9.529
 3045WAT      O 9376   4.850   4.741   9.183
 3045WAT     H1 9377   4.916   4.816   9.180
 3045WAT     H2 9378   4.895   4.656   9.158
 3046WAT      O 9379   3.169   4.993   1.511
 3046WAT     H1 9380   3.182   4.905   1.465
 3046WAT     H2 9381   3.226   5.063   1.468
 3047WAT      O 9382   8.145   0.781   1.320
 3047WAT     H1 9383   8.102   0.871   1.313
 3047WAT     H2 9384   8.182   0.755   1.231
 3048WAT      O 9385   9.203   0.796   5.931
 3048WAT     H1 9386   9.198   0.870   5.999
 3048WAT     H2 9387   9.209   0.708   5.978
 3049WAT      O 9388   6.121   4.278   4.981
 3049WAT     H1 9389   6.128   4.299   4.884
 3049WAT     H2 9390   6.037   4.316   5.018
 3050WAT      O 9391   5.688   9.527   0.751
 3050WAT     H1 9392   5.739   9.613   0.742
 3050WAT     H2 9393   5.611   9.541   0.814
 3051WAT      O 9394   9.587   5.658   4.592
 3051WAT     H1 9395   9.556   5.752   4.575
 3051WAT     H2 9396   9.532   5.617   4.665
 3052WAT      O 9397   4.247   3.720   3.934
 3052WAT     H1 9398   4.276   3.739   4.028
 3052WAT     H2 9399   4.223   3.805   3.889
 3053WAT      O 9400   9.282   8.205   0.020
 3053WAT     H1 9401   9.327   8.259  -0.051
 3053WAT     H2 9402   9.184   8.224   0.019
 3054WAT      O 9403   9.343   6.959   1.634
 3054WAT     H1 9404   9.288   6.956   1.718
 3054WAT     H2 9405   9.369   6.867   1.607
 3055WAT      O 9406   1.859   0.594   0.686
 3055WAT     H1 9407   1.808   0.654   0.625
 3055WAT     H2 9408   1.954   0.587   0.656
 3056WAT      O 9409   2.084   0.348   6.880
 3056WAT     H1 9410   2.159   0.384   6.824
 3056WAT     H2 9411   2.106   0.359   6.977
 3057WAT      O 9412   1.242   0.723   5.642
 3057WAT     H1 9413   1.169   0.706   5.709
 3057WAT     H2 9414   1.315   0.775   5.686
 3058WAT      O 9415   3.877   2.418   3.783
 3058WAT     H1 9416   3.897   2.447   3.876
 3058WAT     H2 9417   3.831   2.329   3.784
 3059WAT      O 9418   2.811   6.689   1.846
 3059WAT     H1 9419   2.728   6.636   1.832
 3059WAT     H2 9420   2.800   6.780   1.806
 3060WAT      O 9421   8.511   4.229   8.772
 3060WAT     H1 9422   8.490   4.279   8.856
 3060WAT     H2 9423   8.426   4.207   8.724
 3061WAT      O 9424   1.091   9.526   2.043
 3061WAT     H1 9425   1.015   9.584   2.013
 3061WAT     H2 9426   1.148   9.577   2.107
 3062WAT      O 9427   8.293   4.346   5.308
 3062WAT     H1 9428   8.240   4.265   5.281
 3062WAT     H2 9429   8.315   4.399   5.226
 3063WAT      O 9430   1.342   3.379   2.227
 3063WAT     H1 9431   1.287   3.457   2.258
 3063WAT     H2 9432   1.326   3.301   2.287
 3064WAT      O 9433   4.810   7.881   9.024
 3064WAT     H1 9434   4.881   7.906   9.091
 3064WAT     H2 9435   4.771   7.964   8.985
 3065WAT      O 9436   8.968   7.833   6.747
 3065WAT     H1 9437   9.011   7.902   6.689
 3065WAT     H2 9438   8.906   7.878   6.812
 3066WAT      O 9439   4.117   6.022   9.575
 3066WAT     H1 9440   4.153   6.063   9.659
 3066WAT     H2 9441   4.179   6.042   9.499
 3067WAT      O 9442   7.257   6.499   5.581
 3067WAT     H1 9443   7.312   6.417   5.563
 3067WAT     H2 9444   7.266   6.525   5.677
 3068WAT      O 9445   8.141   3.281   1.275
 3068WAT     H1 9446   8.068   3.232   1.227
 3068WAT     H2 9447   8.214   3.217   1.300
 3069WAT      O 9448   3.716   3.254   9.672
 3069WAT     H1 9449   3.761   3.333   9.714
 3069WAT     H2 9450   3.751   3.241   9.579
 3070WAT      O 9451   2.484   4.089   8.136
 3070WAT     H1 9452   2.388   4.102   8.111
 3070WAT     H2 9453   2.519   4.007   8.091
 3071WAT      O 9454   5.473   0.170   9.656
 3071WAT     H1 9455   5.473   0.128   9.565
 3071WAT     H2 9456   5.566   0.198   9.680
 3072WAT      O 9457   0.652   1.223   0.439
 3072WAT     H1 9458   0.605   1.152   0.492
 3072WAT     H2 9459   0.728   1.182   0.388
 3073WAT      O 9460   3.520   5.564   9.887
 3073WAT     H1 9461   3.589   5.547   9.816
 3073WAT     H2 9462   3.467   5.645   9.863
 3074WAT      O 9463   0.135   4.108   5.443
 3074WAT     H1 9464   0.203   4.035   5.449
 3074WAT     H2 9465   0.067   4.085   5.374
 3075WAT      O 9466   6.419   8.992   7.270
 3075WAT     H1 9467   6.508   8.998   7.314
 3075WAT     H2 9468   6.426   9.027   7.176
 3076WAT      O 9469   0.196   4.495   4.874
 3076WAT     H1 9470   0.103   4.482   4.839
 3076WAT     H2 9471   0.247   4.554   4.811
 3077WAT      O 9472   8.484   5.749   2.084
 3077WAT     H1 9473   8.480   5.736   1.985
 3077WAT     H2 9474   8.462   5.663   2.130
 3078WAT      O 9475   6.140   2.513   8.957
 3078WAT     H1 9476   6.222   2.528   8.902
 3078WAT     H2 9477   6.090   2.434   8.923
 3079WAT      O 9478   6.220   9.473   5.625
 3079WAT     H1 9479   6.236   9.458   5.528
 3079WAT     H2 9480   6.300   9.443   5.677
 3080WAT      O 9481   3.730   3.678   8.189
 3080WAT     H1 9482   3.652   3.653   8.246
 3080WAT     H2 9483   3.811   3.626   8.219
 3081WAT      O 9484   1.721   5.698   5.832
 3081WAT     H1 9485   1.712   5.647   5.917
 3081WAT     H2 9486   1.676   5.787   5.841
 3082WAT      O 9487   2.885   8.586   0.146
 3082WAT     H1 9488   2.820   8.643   0.096
 3082WAT     H2 9489   2.836   8.528   0.211
 3083WAT      O 9490   7.945   1.666   4.381
 3083WAT     H1 9491   7.988   1.663   4.471
 3083WAT     H2 9492   7.856   1.711   4.387
 3084WAT      O 9493   2.146   8.326   5.196
 3084WAT     H1 9494   2.103   8.288   5.113
 3084WAT     H2 9495   2.223   8.383   5.170
 3085WAT      O 9496   0.210   7.748   9.461
 3085WAT     H1 9497   0.277   7.674   9.456
 3085WAT     H2 9498   0.210   7.799   9.375
 3086WAT      O 9499   7.765   6.190   2.523
 3086WAT     H1 9500   7.784   6.238   2.438
 3086WAT     H2 9501   7.846   6.190   2.582
 3087WAT      O 9502   1.557   4.950   3.701
 3087WAT     H1 9503   1.590   5.007   3.625
 3087WAT     H2 9504   1.501   4.876   3.664
 3088WAT      O 9505   0.216   4.136   6.693
 3088WAT     H1 9506   0.137   4.155   6.635
 3088WAT     H2 9507   0.272   4.219   6.701
 3089WAT      O 9508   0.762   5.939   0.273
 3089WAT     H1 9509   0.744   5.998   0.194
 3089WAT     H2 9510   0.828   5.869   0.248
 3090WAT      O 9511   3.471   0.797   8.054
 3090WAT     H1 9512   3.511   0.735   7.986
 3090WAT     H2 9513   3.441   0.743   8.134
 3091WAT      O 9514   3.742   1.311   6.519
 3091WAT     H1 9515   3.688   1.244   6.571
 3091WAT     H2 9516   3.686   1.347   6.445
 3092WAT      O 9517   9.870   8.408   7.841
 3092WAT     H1 9518   9.879   8.506   7.860
 3092WAT     H2 9519   9.936   8.358   7.896
 3093WAT      O 9520   6.811   8.851   1.632
 3093WAT     H1 9521   6.787   8.791   1.556
 3093WAT     H2 9522   6.905   8.881   1.623
 3094WAT      O 9523   7.694   9.053   3.991
 3094WAT     H1 9524   7.778   9.067   4.045
 3094WAT     H2 9525   7.703   9.099   3.903
 3095WAT      O 9526   5.845   9.261   5.719
 3095WAT     H1 9527   5.806   9.172   5.742
 3095WAT     H2 9528   5.919   9.283   5.782
 3096WAT      O 9529   5.438   5.841   4.794
 3096WAT     H1 9530   5.393   5.769   4.846
 3096WAT     H2 9531   5.417   5.930   4.834
 3097WAT      O 9532   4.452   8.977   1.718
 3097WAT     H1 9533   4.484   8.910   1.785
 3097WAT     H2 9534   4.508   9.059   1.723
 3098WAT      O 9535   0.035   1.601   2.596
 3098WAT     H1 9536  -0.002   1.635   2.682
 3098WAT     H2 9537   0.099   1.526   2.614
 3099WAT      O 9538   6.864   7.284   4.727
 3099WAT     H1 9539   6.809   7.269   4.644
 3099WAT     H2 9540   6.838   7.370   4.769
 3100WAT      O 9541   1.213   1.094   5.314
 3100WAT     H1 9542   1.157   1.034   5.257
 3100WAT     H2 9543   1.171   1.185   5.318
 3101WAT      O 9544   7.518   3.131   7.893
 3101WAT     H1 9545   7.471   3.168   7.812
 3101WAT     H2 9546   7.615   3.151   7.887
 3102WAT      O 9547   3.957   6.282   0.138
 3102WAT     H1 9548   3.878   6.239   0.183
 3102WAT     H2 9549   4.010   6.332   0.206
 3103WAT      O 9550   0.335   6.064   6.166
 3103WAT     H1 9551   0.243   6.036   6.140
 3103WAT     H2 9552   0.402   6.004   6.123
 3104WAT      O 9553   2.631   5.046   5.375
 3104WAT     H1 9554   2.585   4.990   5.306
 3104WAT     H2 9555   2.686   4.986   5.434
 3105WAT      O 9556   4.158   6.930   7.795
 3105WAT     H1 9557   4.204   6.958   7.879
 3105WAT     H2 9558   4.119   6.839   7.807
 3106WAT      O 9559   4.330   9.821   9.148
 3106WAT     H1 9560   4.244   9.772   9.168
 3106WAT     H2 9561   4.331   9.907   9.199
 3107WAT      O 9562   4.699   1.217   2.985
 3107WAT     H1 9563   4.756   1.288   3.026
 3107WAT     H2 9564   4.605   1.251   2.975
 3108WAT      O 9565   9.048   2.302   6.991
 3108WAT     H1 9566   9.018   2.284   7.085
 3108WAT     H2 9567   9.090   2.219   6.953
 3109WAT      O 9568   4.645   8.173   6.503
 3109WAT     H1 9569   4.733   8.127   6.487
 3109WAT     H2 9570   4.574   8.104   6.516
 3110WAT      O 9571   2.302   7.151   6.702
 3110WAT     H1 9572   2.388   7.130   6.749
 3110WAT     H2 9573   2.264   7.236   6.739
 3111WAT      O 9574   2.781   1.939   3.992
 3111WAT     H1 9575   2.861   1.979   4.036
 3111WAT     H2 9576   2.715   2.010   3.970
 3112WAT      O 9577   2.205   0.864   8.720
 3112WAT     H1 9578   2.229   0.864   8.623
 3112WAT     H2 9579   2.123   0.809   8.734
 3113WAT      O 9580   2.202   1.777   6.606
 3113WAT     H1 9581   2.108   1.763   6.635
 3113WAT     H2 9582   2.212   1.868   6.566
 3114WAT      O 9583   8.050   5.978   6.845
 3114WAT     H1 9584   7.960   5.933   6.846
 3114WAT     H2 9585   8.110   5.931   6.782
 3115WAT      O 9586   7.674   4.506   4.499
 3115WAT     H1 9587   7.606   4.572   4.469
 3115WAT     H2 9588   7.747   4.499   4.431
 3116WAT      O 9589   2.588   4.185   2.161
 3116WAT     H1 9590   2.633   4.143   2.083
 3116WAT     H2 9591   2.577   4.118   2.234
 3117WAT      O 9592   5.319   5.483   9.349
 3117WAT     H1 9593   5.265   5.520   9.273
 3117WAT     H2 9594   5.295   5.387   9.363
 3118WAT      O 9595   7.023   9.805   4.484
 3118WAT     H1 9596   7.075   9.775   4.404
 3118WAT     H2 9597   6.934   9.838   4.455
 3119WAT      O 9598   7.778   6.649   9.769
 3119WAT     H1 9599   7.688   6.678   9.801
 3119WAT     H2 9600   7.773   6.553   9.738
 3120WAT      O 9601   0.476   8.572   1.156
 3120WAT     H1 9602   0.436   8.515   1.083
 3120WAT     H2 9603   0.553   8.624   1.119
 3121WAT      O 9604   6.348   4.682   1.969
 3121WAT     H1 9605   6.265   4.734   1.949
 3121WAT     H2 9606   6.418   4.704   1.900
 3122WAT      O 9607   9.148   5.880   0.704
 3122WAT     H1 9608   9.081   5.840   0.641
 3122WAT     H2 9609   9.161   5.820   0.782
 3123WAT      O 9610   1.602   4.659   3.811
 3123WAT     H1 9611   1.654   4.734   3.851
 3123WAT     H2 9612   1.661   4.578   3.803
 3124WAT      O 9613   2.525   1.842   9.741
 3124WAT     H1 9614   2.491   1.863   9.650
 3124WAT     H2 9615   2.550   1.745   9.746
 3125WAT      O 9616   8.345   0.073   3.274
 3125WAT     H1 9617   8.400   0.097   3.354
 3125WAT     H2 9618   8.396   0.094   3.190
 3126WAT      O 9619   4.823   5.830   6.043
 3126WAT     H1 9620   4.727   5.828   6.073
 3126WAT     H2 9621   4.836   5.908   5.981
 3127WAT      O 9622   8.518   4.673   0.687
 3127WAT     H1 9623   8.523   4.677   0.587
 3127WAT     H2 9624   8.438   4.724   0.718
 3128WAT      O 9625   2.662   2.141   5.554
 3128WAT     H1 9626   2.610   2.170   5.635
 3128WAT     H2 9627   2.665   2.041   5.551
 3129WAT      O 9628   2.272   1.267   8.621
 3129WAT     H1 9629   2.344   1.225   8.677
 3129WAT     H2 9630   2.201   1.199   8.601
 3130WAT      O 9631   8.417   1.589   6.624
 3130WAT     H1 9632   8.323   1.578   6.657
 3130WAT     H2 9633   8.461   1.664   6.674
 3131WAT      O 9634   3.046   4.560   0.759
 3131WAT     H1 9635   3.077   4.514   0.843
 3131WAT     H2 9636   2.986   4.637   0.783
 3132WAT      O 9637   2.349   2.379   7.035
 3132WAT     H1 9638   2.301   2.335   6.959
 3132WAT     H2 9639   2.283   2.426   7.094
 3133WAT      O 9640   9.509   9.508   0.184
 3133WAT     H1 9641   9.440   9.449   0.143
 3133WAT     H2 9642   9.593   9.502   0.131
 3134WAT      O 9643   5.249   4.854   6.985
 3134WAT     H1 9644   5.215   4.924   6.922
 3134WAT     H2 9645   5.209   4.765   6.960
 3135WAT      O 9646   1.109   9.608   7.976
 3135WAT     H1 9647   1.151   9.687   7.931
 3135WAT     H2 9648   1.049   9.560   7.912
 3136WAT      O 9649   4.142   8.523   6.496
 3136WAT     H1 9650   4.192   8.584   6.558
 3136WAT     H2 9651   4.145   8.430   6.531
 3137WAT      O 9652   1.684   6.717   9.426
 3137WAT     H1 9653   1.759   6.721   9.493
 3137WAT     H2 9654   1.718   6.675   9.341
 3138WAT      O 9655   7.231   4.514   1.859
 3138WAT     H1 9656   7.268   4.602   1.828
 3138WAT     H2 9657   7.137   4.528   1.893
 3139WAT      O 9658   6.425   7.111   6.664
 3139WAT     H1 9659   6.338   7.143   6.625
 3139WAT     H2 9660   6.427   7.133   6.762
 3140WAT      O 9661   9.482   4.851   6.378
 3140WAT     H1 9662   9.403   4.800   6.410
 3140WAT     H2 9663   9.508   4.819   6.287
 3141WAT      O 9664   3.060   9.447   3.502
 3141WAT     H1 9665   3.004   9.521   3.540
 3141WAT     H2 9666   3.039   9.362   3.549
 3142WAT      O 9667   5.378   1.678   3.393
 3142WAT     H1 9668   5.386   1.582   3.366
 3142WAT     H2 9669   5.380   1.684   3.493
 3143WAT      O 9670   8.819   2.612   6.171
 3143WAT     H1 9671   8.747   2.670   6.131
 3143WAT     H2 9672   8.906   2.629   6.125
 3144WAT      O 9673   9.274   9.514   6.989
 3144WAT     H1 9674   9.184   9.534   6.951
 3144WAT     H2 9675   9.344   9.570   6.944
 3145WAT      O 9676   3.344   8.287   8.149
 3145WAT     H1 9677   3.332   8.280   8.248
 3145WAT     H2 9678   3.359   8.196   8.111
 3146WAT      O 9679   4.746   8.316   8.051
 3146WAT     H1 9680   4.696   8.330   7.966
 3146WAT     H2 9681   4.771   8.405   8.090
 3147WAT      O 9682   6.286   4.451   4.369
 3147WAT     H1 9683   6.278   4.481   4.465
 3147WAT     H2 9684   6.199   4.467   4.323
 3148WAT      O 9685   3.659   2.920   9.659
 3148WAT     H1 9686   3.568   2.896   9.693
 3148WAT     H2 9687   3.650   2.979   9.578
 3149WAT      O 9688   4.657   7.895   5.268
 3149WAT     H1 9689   4.645   7.887   5.169
 3149WAT     H2 9690   4.640   7.989   5.296
 3150WAT      O 9691   7.547   0.539   9.363
 3150WAT     H1 9692   7.453   0.571   9.355
 3150WAT     H2 9693   7.609   0.617   9.361
 3151WAT      O 9694   6.494   4.277   7.065
 3151WAT     H1 9695   6.539   4.366   7.065
 3151WAT     H2 9696   6.444   4.264   7.151
 3152WAT      O 9697   5.027   3.201   8.715
 3152WAT     H1 9698   4.998   3.233   8.805
 3152WAT     H2 9699   5.082   3.272   8.671
 3153WAT      O 9700   3.442   9.225   2.335
 3153WAT     H1 9701   3.455   9.154   2.404
 3153WAT     H2 9702   3.348   9.223   2.302
 3154WAT      O 9703   6.601   0.683   3.629
 3154WAT     H1 9704   6.523   0.680   3.692
 3154WAT     H2 9705   6.582   0.626   3.549
 3155WAT      O 9706   3.384   9.267   5.822
 3155WAT     H1 9707   3.412   9.363   5.818
 3155WAT     H2 9708   3.341   9.248   5.910
 3156WAT      O 9709   1.088   5.687   1.923
 3156WAT     H1 9710   1.126   5.761   1.980
 3156WAT     H2 9711   1.070   5.607   1.980
 3157WAT      O 9712   9.702   3.791   2.833
 3157WAT     H1 9713   9.615   3.840   2.842
 3157WAT     H2 9714   9.692   3.717   2.766
 3158WAT      O 9715   7.894   2.644   1.188
 3158WAT     H1 9716   7.956   2.642   1.266
 3158WAT     H2 9717   7.936   2.699   1.115
 3159WAT      O 9718   3.487   6.686   8.442
 3159WAT     H1 9719   3.571   6.694   8.495
 3159WAT     H2 9720   3.509   6.666   8.346
 3160WAT      O 9721   3.368   4.966   2.252
 3160WAT     H1 9722   3.311   5.049   2.247
 3160WAT     H2 9723   3.464   4.992   2.252
 3161WAT      O 9724   7.888   6.843   3.213
 3161WAT     H1 9725   7.816   6.836   3.144
 3161WAT     H2 9726   7.918   6.938   3.221
 3162WAT      O 9727   6.411   8.957   2.991
 3162WAT     H1 9728   6.358   9.039   2.971
 3162WAT     H2 9729   6.366   8.878   2.951
 3163WAT      O 9730   1.668   6.625   4.857
 3163WAT     H1 9731   1.710   6.631   4.948
 3163WAT     H2 9732   1.636   6.532   4.841
 3164WAT      O 9733   0.497   7.261   0.081
 3164WAT     H1 9734   0.542   7.282  -0.006
 3164WAT     H2 9735   0.413   7.210   0.064
 3165WAT      O 9736   4.256   3.223   9.082
 3165WAT     H1 9737   4.177   3.284   9.090
 3165WAT     H2 9738   4.286   3.195   9.173
 3166WAT      O 9739   7.357   2.109   9.806
 3166WAT     H1 9740   7.313   2.026   9.840
 3166WAT     H2 9741   7.373   2.172   9.883
 3167WAT      O 9742   6.336   7.863   1.817
 3167WAT     H1 9743   6.279   7.944   1.830
 3167WAT     H2 9744   6.285   7.781   1.843
 3168WAT      O 9745   1.156   2.448   7.513
 3168WAT     H1 9746   1.093   2.385   7.558
 3168WAT     H2 9747   1.158   2.535   7.561
 3169WAT      O 9748   4.403   0.032   6.610
 3169WAT     H1 9749   4.392   0.115   6.555
 3169WAT     H2 9750   4.500   0.015   6.626
 3170WAT      O 9751   9.200   2.286   8.172
 3170WAT     H1 9752   9.235   2.373   8.138
 3170WAT     H2 9753   9.100   2.285   8.168
 3171WAT      O 9754   4.931   9.133   6.511
 3171WAT     H1 9755   4.861   9.156   6.579
 3171WAT     H2 9756   5.022   9.149   6.550
 3172WAT      O 9757   7.425   8.500   6.915
 3172WAT     H1 9758   7.411   8.599   6.911
 3172WAT     H2 9759   7.368   8.455   6.846
 3173WAT      O 9760   3.051   6.127   9.448
 3173WAT     H1 9761   3.036   6.067   9.527
 3173WAT     H2 9762   3.149   6.132   9.428
 3174WAT      O 9763   3.027   9.567   5.927
 3174WAT     H1 9764   3.015   9.592   5.830
 3174WAT     H2 9765   3.010   9.469   5.938
 3175WAT      O 9766   4.366   3.198   3.001
 3175WAT     H1 9767   4.305   3.216   2.923
 3175WAT     H2 9768   4.455   3.169   2.967
 3176WAT      O 9769   8.188   1.113   6.906
 3176WAT     H1 9770   8.189   1.041   6.975
 3176WAT     H2 9771   8.268   1.103   6.847
 3177WAT      O 9772   7.543   4.590   7.930
 3177WAT     H1 9773   7.531   4.504   7.980
 3177WAT     H2 9774   7.469   4.600   7.863
 3178WAT      O 9775   8.153   6.984   3.921
 3178WAT     H1 9776   8.054   6.987   3.904
 3178WAT     H2 9777   8.175   6.903   3.975
 3179WAT      O 9778   2.573   1.882   4.493
 3179WAT     H1 9779   2.668   1.897   4.519
 3179WAT     H2 9780   2.569   1.835   4.405
 3180WAT      O 9781   1.436   9.414   0.058
 3180WAT     H1 9782   1.432   9.340   0.125
 3180WAT     H2 9783   1.419   9.501   0.104
 3181WAT      O 9784   4.781   6.281   2.842
 3181WAT     H1 9785   4.796   6.289   2.743
 3181WAT     H2 9786   4.686   6.307   2.862
 3182WAT      O 9787   7.266   5.143   9.804
 3182WAT     H1 9788   7.181   5.182   9.839
 3182WAT     H2 9789   7.247   5.055   9.760
 3183WAT      O 9790   4.988   7.348   2.627
 3183WAT     H1 9791   5.086   7.327   2.622
 3183WAT     H2 9792   4.956   7.376   2.536
 3184WAT      O 9793   5.791   7.993   2.808
 3184WAT     H1 9794   5.776   8.054   2.885
 3184WAT     H2 9795   5.711   7.995   2.748
 3185WAT      O 9796   8.717   5.561   8.866
 3185WAT     H1 9797   8.752   5.494   8.932
 3185WAT     H2 9798   8.774   5.643   8.869
 3186WAT      O 9799   1.332   7.371   6.272
 3186WAT     H1 9800   1.379   7.408   6.192
 3186WAT     H2 9801   1.303   7.277   6.254
 3187WAT      O 9802   1.491   1.977   5.523
 3187WAT     H1 9803   1.397   1.982   5.558
 3187WAT     H2 9804   1.522   1.882   5.525
 3188WAT      O 9805   1.243   3.660   6.676
 3188WAT     H1 9806   1.174   3.623   6.614
 3188WAT     H2 9807   1.334   3.642   6.639
 3189WAT      O 9808   1.668   7.268   6.515
 3189WAT     H1 9809   1.666   7.347   6.576
 3189WAT     H2 9810   1.762   7.236   6.505
 3190WAT      O 9811   1.537   2.885   0.647
 3190WAT     H1 9812   1.562   2.875   0.550
 3190WAT     H2 9813   1.494   2.974   0.661
 3191WAT      O 9814   4.809   5.971   2.425
 3191WAT     H1 9815   4.728   6.022   2.453
 3191WAT     H2 9816   4.838   6.002   2.334
 3192WAT      O 9817   3.663   6.286   7.696
 3192WAT     H1 9818   3.698   6.375   7.667
 3192WAT     H2 9819   3.681   6.273   7.793
 3193WAT      O 9820   9.040   2.441   1.615
 3193WAT     H1 9821   9.090   2.442   1.702
 3193WAT     H2 9822   9.031   2.534   1.581
 3194WAT      O 9823   3.033   8.653   6.558
 3194WAT     H1 9824   3.123   8.638   6.598
 3194WAT     H2 9825   3.041   8.719   6.483
 3195WAT      O 9826   5.691   4.959   1.581
 3195WAT     H1 9827   5.771   4.905   1.606
 3195WAT     H2 9828   5.627   4.901   1.530
 3196WAT      O 9829   3.654   7.621   2.068
 3196WAT     H1 9830   3.735   7.677   2.049
 3196WAT     H2 9831   3.634   7.565   1.988
 3197WAT      O 9832   5.422   3.744   0.682
 3197WAT     H1 9833   5.471   3.826   0.712
 3197WAT     H2 9834   5.389   3.694   0.762
 3198WAT      O 9835   2.295   1.811   3.593
 3198WAT     H1 9836   2.357   1.766   3.657
 3198WAT     H2 9837   2.298   1.910   3.606
 3199WAT      O 9838   6.428   7.338   2.436
 3199WAT     H1 9839   6.472   7.337   2.526
 3199WAT     H2 9840   6.452   7.422   2.388
 3200WAT      O 9841   0.428   4.366   2.023
 3200WAT     H1 9842   0.374   4.315   1.956
 3200WAT     H2 9843   0.524   4.337   2.017
 3201WAT      O 9844   7.762   4.245   4.617
 3201WAT     H1 9845   7.759   4.208   4.710
 3201WAT     H2 9846   7.712   4.332   4.615
 3202WAT      O 9847   7.298   7.272   8.717
 3202WAT     H1 9848   7.391   7.245   8.690
 3202WAT     H2 9849   7.237   7.267   8.638
 3203WAT      O 9850   5.957   6.663   3.128
 3203WAT     H1 9851   5.986   6.590   3.190
 3203WAT     H2 9852   5.917   6.624   3.046
 3204WAT      O 9853   6.729   4.825   4.248
 3204WAT     H1 9854   6.821   4.798   4.221
 3204WAT     H2 9855   6.686   4.752   4.301
 3205WAT      O 9856   0.219   2.265   9.402
 3205WAT     H1 9857   0.218   2.194   9.473
 3205WAT     H2 9858   0.252   2.227   9.317
 3206WAT      O 9859   0.333   6.606   5.892
 3206WAT     H1 9860   0.290   6.520   5.920
 3206WAT     H2 9861   0.424   6.613   5.933
 3207WAT      O 9862   6.135   4.996   1.067
 3207WAT     H1 9863   6.040   4.977   1.041
 3207WAT     H2 9864   6.148   5.095   1.074
 3208WAT      O 9865   8.750   1.210   2.450
 3208WAT     H1 9866   8.827   1.200   2.514
 3208WAT     H2 9867   8.780   1.187   2.358
 3209WAT      O 9868   2.892   5.322   3.341
 3209WAT     H1 9869   2.987   5.325   3.371
 3209WAT     H2 9870   2.882   5.254   3.268
 3210WAT      O 9871   1.658   0.917   8.153
 3210WAT     H1 9872   1.676   0.907   8.251
 3210WAT     H2 9873   1.606   1.001   8.137
 3211WAT      O 9874   5.314   5.607   9.026
 3211WAT     H1 9875   5.336   5.515   8.992
 3211WAT     H2 9876   5.399   5.655   9.050
 3212WAT      O 9877   3.041   4.053   8.493
 3212WAT     H1 9878   3.094   4.031   8.574
 3212WAT     H2 9879   2.947   4.073   8.520
 3213WAT      O 9880   4.160   8.507   4.456
 3213WAT     H1 9881   4.082   8.450   4.483
 3213WAT     H2 9882   4.131   8.603   4.454
 3214WAT      O 9883   3.178   2.914   9.133
 3214WAT     H1 9884   3.095   2.873   9.172
 3214WAT     H2 9885   3.255   2.851   9.144
 3215WAT      O 9886   0.051   0.120   0.161
 3215WAT     H1 9887  -0.012   0.055   0.117
 3215WAT     H2 9888   0.088   0.182   0.092
 3216WAT      O 9889   8.992   2.512   0.906
 3216WAT     H1 9890   9.039   2.600   0.899
 3216WAT     H2 9891   9.012   2.471   0.994
 3217WAT      O 9892   0.352   8.608   6.135
 3217WAT     H1 9893   0.428   8.579   6.193
 3217WAT     H2 9894   0.265   8.591   6.183
 3218WAT      O 9895   4.657   7.246   0.934
 3218WAT     H1 9896   4.749   7.284   0.943
 3218WAT     H2 9897   4.663   7.147   0.917
 3219WAT      O 9898   7.088   9.227   1.339
 3219WAT     H1 9899   7.120   9.151   1.395
 3219WAT     H2 9900   6.992   9.245   1.361
 3220WAT      O 9901   5.557   8.918   1.269
 3220WAT     H1 9902   5.635   8.956   1.318
 3220WAT     H2 9903   5.555   8.819   1.279
 3221WAT      O 9904   2.509   8.604   9.269
 3221WAT     H1 9905   2.597   8.632   9.230
 3221WAT     H2 9906   2.493   8.654   9.354
 3222WAT      O 9907   8.222   8.433   2.820
 3222WAT     H1 9908   8.155   8.443   2.746
 3222WAT     H2 9909   8.176   8.443   2.908
 3223WAT      O 9910   2.276   5.682   0.465
 3223WAT     H1 9911   2.280   5.591   0.505
 3223WAT     H2 9912   2.315   5.749   0.528
 3224WAT      O 9913   4.091   1.062   2.861
 3224WAT     H1 9914   4.007   1.017   2.890
 3224WAT     H2 9915   4.127   1.015   2.781
 3225WAT      O 9916   5.887   2.048   0.469
 3225WAT     H1 9917   5.984   2.058   0.448
 3225WAT     H2 9918   5.868   1.955   0.499
 3226WAT      O 9919   7.629   3.798   0.168
 3226WAT     H1 9920   7.621   3.890   0.128
 3226WAT     H2 9921   7.557   3.785   0.236
 3227WAT      O 9922   6.427   8.713   7.271
 3227WAT     H1 9923   6.511   8.679   7.228
 3227WAT     H2 9924   6.408   8.806   7.238
 3228WAT      O 9925   3.884   3.294   6.965
 3228WAT     H1 9926   3.826   3.373   6.984
 3228WAT     H2 9927   3.971   3.305   7.013
 3229WAT      O 9928   8.428   2.281   4.432
 3229WAT     H1 9929   8.424   2.289   4.332
 3229WAT     H2 9930   8.470   2.193   4.456
 3230WAT      O 9931   4.284   8.192   4.225
 3230WAT     H1 9932   4.222   8.269   4.211
 3230WAT     H2 9933   4.379   8.224   4.216
 3231WAT      O 9934   5.717   8.312   7.969
 3231WAT     H1 9935   5.739   8.288   7.874
 3231WAT     H2 9936   5.707   8.229   8.023
 3232WAT      O 9937   4.987   6.942   4.255
 3232WAT     H1 9938   4.910   6.887   4.289
 3232WAT     H2 9939   4.979   7.036   4.288
 3233WAT      O 9940   3.276   8.499   1.535
 3233WAT     H1 9941   3.334   8.557   1.477
 3233WAT     H2 9942   3.223   8.557   1.597
 3234WAT      O 9943   8.435   1.711   1.528
 3234WAT     H1 9944   8.381   1.649   1.586
 3234WAT     H2 9945   8.396   1.803   1.534
 3235WAT      O 9946   1.409   4.671   0.694
 3235WAT     H1 9947   1.364   4.584   0.673
 3235WAT     H2 9948   1.474   4.693   0.622
 3236WAT      O 9949   5.707   4.586   0.394
 3236WAT     H1 9950   5.752   4.497   0.403
 3236WAT     H2 9951   5.649   4.586   0.313
 3237WAT      O 9952   9.779   8.138   0.846
 3237WAT     H1 9953   9.714   8.158   0.773
 3237WAT     H2 9954   9.746   8.177   0.932
 3238WAT      O 9955   0.415   7.648   1.312
 3238WAT     H1 9956   0.472   7.728   1.331
 3238WAT     H2 9957   0.390   7.647   1.216
 3239WAT      O 9958   3.634   8.044   6.558
 3239WAT     H1 9959   3.678   7.954   6.554
 3239WAT     H2 9960   3.580   8.058   6.475
 3240WAT      O 9961   7.310   7.924   1.002
 3240WAT     H1 9962   7.219   7.898   1.034
 3240WAT     H2 9963   7.371   7.935   1.081
 3241WAT      O 9964   3.344   2.651   1.413
 3241WAT     H1 9965   3.434   2.687   1.436
 3241WAT     H2 9966   3.354   2.566   1.361
 3242WAT      O 9967   0.546   6.949   1.312
 3242WAT     H1 9968   0.524   6.904   1.398
 3242WAT     H2 9969   0.530   6.887   1.235
 3243WAT      O 9970   2.135   7.987   1.651
 3243WAT     H1 9971   2.195   7.920   1.694
 3243WAT     H2 9972   2.047   7.944   1.629
 3244WAT      O 9973   2.335   2.076   7.204
 3244WAT     H1 9974   2.390   2.074   7.120
 3244WAT     H2 9975   2.240   2.098   7.180
 3245WAT      O 9976   5.167   2.757   4.835
 3245WAT     H1 9977   5.246   2.783   4.891
 3245WAT     H2 9978   5.111   2.692   4.886
 3246WAT      O 9979   6.665   6.486   0.447
 3246WAT     H1 9980   6.695   6.393   0.469
 3246WAT     H2 9981   6.673   6.544   0.528
 3247WAT      O 9982   6.204   9.690   7.677
 3247WAT     H1 9983   6.131   9.710   7.612
 3247WAT     H2 9984   6.288   9.736   7.648
 3248WAT      O 9985   3.190   6.064   0.553
 3248WAT     H1 9986   3.187   6.156   0.514
 3248WAT     H2 9987   3.151   5.999   0.487
 3249WAT      O 9988   4.567   6.441   9.177
 3249WAT     H1 9989   4.625   6.458   9.097
 3249WAT     H2 9990   4.489   6.504   9.175
 3250WAT      O 9991   2.951   1.413   0.010
 3250WAT     H1 9992   2.963   1.316  -0.010
 3250WAT     H2 9993   2.856   1.439  -0.002
 3251WAT      O 9994   1.090   6.003   4.407
 3251WAT     H1 9995   1.065   5.959   4.493
 3251WAT     H2 9996   1.070   6.101   4.412
 3252WAT      O 9997   2.137   4.471   2.014
 3252WAT     H1 9998   2.111   4.443   2.106
 3252WAT     H2 9999   2.202   4.405   1.976
 3253WAT      O10000   7.005   9.745   6.327
 3253WAT     H110001   6.952   9.671   6.368
 3253WAT     H210002   6.974   9.833   6.363
 3254WAT      O10003   5.544   8.870   4.275
 3254WAT     H110004   5.457   8.871   4.324
 3254WAT     H210005   5.620   8.876   4.340
 3255WAT      O10006   4.884   2.128   4.130
 3255WAT     H110007   4.899   2.205   4.068
 3255WAT     H210008   4.821   2.063   4.088
 3256WAT      O10009   8.382   6.416   2.301
 3256WAT     H110010   8.359   6.405   2.398
 3256WAT     H210011   8.307   6.380   2.245
 3257WAT      O10012   5.276   6.868   4.527
 3257WAT     H110013   5.313   6.833   4.613
 3257WAT     H210014   5.177   6.852   4.525
 3258WAT      O10015   3.154   3.209   3.483
 3258WAT     H110016   3.075   3.203   3.421
 3258WAT     H210017   3.127   3.180   3.575
 3259WAT      O10018   7.687   6.213   3.700
 3259WAT     H110019   7.709   6.311   3.697
 3259WAT     H210020   7.609   6.198   3.762
 3260WAT      O10021   1.263   9.672   2.205
 3260WAT     H110022   1.308   9.755   2.173
 3260WAT     H210023   1.331   9.610   2.244
 3261WAT      O10024   0.219   1.889   5.184
 3261WAT     H110025   0.275   1.938   5.251
 3261WAT     H210026   0.191   1.801   5.223
 3262WAT      O10027   4.878   1.714   1.480
 3262WAT     H110028   4.815   1.694   1.556
 3262WAT     H210029   4.825   1.730   1.397
 3263WAT      O10030   7.713   1.948   7.920
 3263WAT     H110031   7.617   1.934   7.895
 3263WAT     H210032   7.760   1.860   7.923
 3264WAT      O10033   9.330   3.305   8.857
 3264WAT     H110034   9.364   3.210   8.856
 3264WAT     H210035   9.238   3.307   8.896
 3265WAT      O10036   5.347   4.326   9.527
 3265WAT     H110037   5.261   4.300   9.572
 3265WAT     H210038   5.424   4.308   9.589
 3266WAT      O10039   5.318   0.657   6.770
 3266WAT     H110040   5.320   0.558   6.789
 3266WAT     H210041   5.412   0.690   6.761
 3267WAT      O10042   0.834   2.216   7.977
 3267WAT     H110043   0.922   2.213   8.024
 3267WAT     H210044   0.794   2.124   7.974
 3268WAT      O10045   0.440   3.444   1.750
 3268WAT     H110046   0.351   3.430   1.706
 3268WAT     H210047   0.430   3.432   1.849
 3269WAT      O10048   5.317   6.149   7.582
 3269WAT     H110049   5.351   6.236   7.618
 3269WAT     H210050   5.219   6.157   7.565
 3270WAT      O10051   3.287   8.060   4.072
 3270WAT     H110052   3.329   8.019   3.992
 3270WAT     H210053   3.288   8.160   4.063
 3271WAT      O10054   5.913   7.260   2.818
 3271WAT     H110055   5.881   7.221   2.904
 3271WAT     H210056   6.002   7.220   2.794
 3272WAT      O10057   6.003   0.921   0.368
 3272WAT     H110058   5.985   0.892   0.273
 3272WAT     H210059   6.097   0.953   0.375
 3273WAT      O10060   2.957   3.470   3.357
 3273WAT     H110061   2.901   3.549   3.330
 3273WAT     H210062   2.951   3.458   3.456
 3274WAT      O10063   3.473   2.022   2.567
 3274WAT     H110064   3.563   1.978   2.566
 3274WAT     H210065   3.407   1.965   2.519
 3275WAT      O10066   7.845   0.459   8.549
 3275WAT     H110067   7.755   0.417   8.552
 3275WAT     H210068   7.915   0.389   8.562
 3276WAT      O10069   9.804   3.079   0.502
 3276WAT     H110070   9.712   3.114   0.484
 3276WAT     H210071   9.806   2.980   0.484
 3277WAT      O10072   9.374   4.125   6.475
 3277WAT     H110073   9.309   4.114   6.400
 3277WAT     H210074   9.354   4.058   6.547
 3278WAT      O10075   9.346   7.205   1.527
 3278WAT     H110076   9.261   7.179   1.481
 3278WAT     H210077   9.370   7.135   1.594
 3279WAT      O10078   2.193   1.229   7.633
 3279WAT     H110079   2.261   1.168   7.675
 3279WAT     H210080   2.239   1.311   7.600
 3280WAT      O10081   0.116   5.565   4.209
 3280WAT     H110082   0.085   5.623   4.284
 3280WAT     H210083   0.207   5.530   4.229
 3281WAT      O10084   1.703   2.702   0.153
 3281WAT     H110085   1.659   2.695   0.064
 3281WAT     H210086   1.728   2.611   0.185
 3282WAT      O10087   7.991   4.744   6.178
 3282WAT     H110088   7.957   4.756   6.271
 3282WAT     H210089   7.960   4.656   6.142
 3283WAT      O10090   0.408   0.790   7.631
 3283WAT     H110091   0.405   0.691   7.616
 3283WAT     H210092   0.439   0.809   7.724
 3284WAT      O10093   9.608   4.023   0.805
 3284WAT     H110094   9.658   3.938   0.822
 3284WAT     H210095   9.642   4.066   0.722
 3285WAT      O10096   0.915   9.831   3.516
 3285WAT     H110097   0.995   9.832   3.576
 3285WAT     H210098   0.891   9.924   3.489
 3286WAT      O10099   8.609   5.079   1.131
 3286WAT     H110100   8.644   5.142   1.062
 3286WAT     H210101   8.681   5.015   1.158
 3287WAT      O10102   0.926   7.862   1.774
 3287WAT     H110103   0.856   7.888   1.707
 3287WAT     H210104   0.959   7.943   1.822
 3288WAT      O10105   8.665   8.908   2.824
 3288WAT     H110106   8.747   8.947   2.864
 3288WAT     H210107   8.675   8.902   2.724
 3289WAT      O10108   2.115   9.158   5.674
 3289WAT     H110109   2.108   9.229   5.745
 3289WAT     H210110   2.100   9.068   5.715
 3290WAT      O10111   2.376   2.185   5.533
 3290WAT     H110112   2.424   2.146   5.611
 3290WAT     H210113   2.299   2.241   5.566
 3291WAT      O10114   2.693   6.037   7.317
 3291WAT     H110115   2.668   6.023   7.221
 3291WAT     H210116   2.695   5.948   7.364
 3292WAT      O10117   1.423   4.537   4.761
 3292WAT     H110118   1.425   4.443   4.727
 3292WAT     H210119   1.333   4.576   4.745
 3293WAT      O10120   7.791   1.834   1.098
 3293WAT     H110121   7.889   1.829   1.077
 3293WAT     H210122   7.766   1.760   1.160
 3294WAT      O10123   6.794   1.394   5.013
 3294WAT     H110124   6.827   1.312   4.966
 3294WAT     H210125   6.795   1.380   5.111
 3295WAT      O10126   3.889   2.486   8.206
 3295WAT     H110127   3.967   2.548   8.196
 3295WAT     H210128   3.891   2.444   8.296
 3296WAT      O10129   4.879   2.197   6.875
 3296WAT     H110130   4.957   2.135   6.862
 3296WAT     H210131   4.795   2.143   6.880
 3297WAT      O10132   0.023   1.643   0.261
 3297WAT     H110133  -0.034   1.669   0.183
 3297WAT     H210134  -0.035   1.603   0.332
 3298WAT      O10135   6.037   1.892   2.575
 3298WAT     H110136   6.063   1.878   2.479
 3298WAT     H210137   6.015   1.989   2.589
 3299WAT      O10138   6.984   1.029   4.668
 3299WAT     H110139   7.003   0.931   4.660
 3299WAT     H210140   6.908   1.054   4.608
 3300WAT      O10141   5.357   3.435   9.248
 3300WAT     H110142   5.394   3.528   9.248
 3300WAT     H210143   5.304   3.420   9.331
 3301WAT      O10144   1.725   6.338   0.417
 3301WAT     H110145   1.751   6.434   0.425
 3301WAT     H210146   1.627   6.328   0.436
 3302WAT      O10147   9.192   4.220   5.363
 3302WAT     H110148   9.252   4.296   5.339
 3302WAT     H210149   9.219   4.182   5.452
 3303WAT      O10150   5.334   3.122   5.883
 3303WAT     H110151   5.418   3.148   5.834
 3303WAT     H210152   5.347   3.034   5.928
 3304WAT      O10153   1.664   2.667   3.150
 3304WAT     H110154   1.728   2.733   3.110
 3304WAT     H210155   1.606   2.714   3.217
 3305WAT      O10156   7.045   9.219   9.844
 3305WAT     H110157   7.084   9.303   9.881
 3305WAT     H210158   7.078   9.140   9.896
 3306WAT      O10159   1.740   7.796   5.343
 3306WAT     H110160   1.743   7.699   5.365
 3306WAT     H210161   1.730   7.850   5.427
 3307WAT      O10162   0.163   9.179   8.345
 3307WAT     H110163   0.226   9.103   8.331
 3307WAT     H210164   0.187   9.228   8.429
 3308WAT      O10165   5.743   0.372   9.538
 3308WAT     H110166   5.800   0.389   9.457
 3308WAT     H210167   5.745   0.274   9.559
 3309WAT      O10168   9.260   3.516   3.581
 3309WAT     H110169   9.354   3.538   3.605
 3309WAT     H210170   9.221   3.454   3.649
 3310WAT      O10171   8.168   6.811   7.673
 3310WAT     H110172   8.209   6.803   7.582
 3310WAT     H210173   8.096   6.743   7.683
 3311WAT      O10174   2.622   5.563   4.942
 3311WAT     H110175   2.601   5.466   4.932
 3311WAT     H210176   2.538   5.617   4.933
 3312WAT      O10177   0.848   5.030   7.176
 3312WAT     H110178   0.843   5.072   7.267
 3312WAT     H210179   0.773   4.965   7.166
 3313WAT      O10180   8.949   3.877   8.928
 3313WAT     H110181   9.035   3.845   8.890
 3313WAT     H210182   8.964   3.961   8.979
 3314WAT      O10183   9.195   6.374   6.807
 3314WAT     H110184   9.121   6.324   6.852
 3314WAT     H210185   9.267   6.309   6.780
 3315WAT      O10186   0.322   9.475   2.875
 3315WAT     H110187   0.391   9.541   2.904
 3315WAT     H210188   0.366   9.402   2.823
 3316WAT      O10189   1.337   3.046   6.588
 3316WAT     H110190   1.277   3.063   6.665
 3316WAT     H210191   1.291   3.071   6.503
 3317WAT      O10192   2.250   2.097   3.560
 3317WAT     H110193   2.279   2.191   3.579
 3317WAT     H210194   2.237   2.086   3.461
 3318WAT      O10195   0.684   4.377   7.262
 3318WAT     H110196   0.650   4.285   7.245
 3318WAT     H210197   0.624   4.424   7.326
 3319WAT      O10198   1.631   6.854   2.669
 3319WAT     H110199   1.555   6.859   2.604
 3319WAT     H210200   1.709   6.906   2.635
 3320WAT      O10201   9.189   4.044   0.133
 3320WAT     H110202   9.179   4.132   0.088
 3320WAT     H210203   9.123   3.979   0.096
 3321WAT      O10204   1.542   8.977   5.589
 3321WAT     H110205   1.583   8.989   5.679
 3321WAT     H210206   1.456   8.927   5.597
 3322WAT      O10207   6.120   4.801   1.922
 3322WAT     H110208   6.078   4.732   1.864
 3322WAT     H210209   6.152   4.877   1.866
 3323WAT      O10210   0.719   0.669   0.131
 3323WAT     H110211   0.732   0.758   0.175
 3323WAT     H210212   0.807   0.622   0.124
 3324WAT      O10213   0.517   3.464   4.877
 3324WAT     H110214   0.478   3.427   4.793
 3324WAT     H210215   0.535   3.389   4.942
 3325WAT      O10216   0.400   5.613   2.325
 3325WAT     H110217   0.466   5.679   2.359
 3325WAT     H210218   0.320   5.612   2.385
 3326WAT      O10219   5.004   3.780   0.768
 3326WAT     H110220   5.093   3.824   0.773
 3326WAT     H210221   4.940   3.841   0.721
 3327WAT      O10222   5.123   7.430   7.512
 3327WAT     H110223   5.077   7.447   7.599
 3327WAT     H210224   5.159   7.517   7.476
 3328WAT      O10225   2.974   2.777   4.239
 3328WAT     H110226   2.899   2.843   4.245
 3328WAT     H210227   3.005   2.754   4.331
 3329WAT      O10228   5.922   5.028   5.463
 3329WAT     H110229   5.968   5.063   5.381
 3329WAT     H210230   5.835   4.986   5.436
 3330WAT      O10231   9.739   4.402   4.759
 3330WAT     H110232   9.644   4.374   4.744
 3330WAT     H210233   9.798   4.354   4.694
 3331WAT      O10234   3.243   1.993   8.748
 3331WAT     H110235   3.221   1.987   8.651
 3331WAT     H210236   3.311   2.064   8.763
 3332WAT      O10237   6.629   1.109   3.739
 3332WAT     H110238   6.613   1.061   3.653
 3332WAT     H210239   6.548   1.104   3.796
 3333WAT      O10240   3.512   7.848   7.036
 3333WAT     H110241   3.570   7.829   7.115
 3333WAT     H210242   3.561   7.908   6.972
 3334WAT      O10243   0.198   3.717   8.554
 3334WAT     H110244   0.162   3.626   8.534
 3334WAT     H210245   0.227   3.760   8.469
 3335WAT      O10246   8.956   1.002   8.398
 3335WAT     H110247   8.965   1.087   8.347
 3335WAT     H210248   9.043   0.978   8.440
 3336WAT      O10249   0.150   3.080   7.406
 3336WAT     H110250   0.064   3.111   7.448
 3336WAT     H210251   0.194   3.013   7.466
 3337WAT      O10252   2.024   9.233   6.602
 3337WAT     H110253   1.966   9.197   6.530
 3337WAT     H210254   1.979   9.310   6.647
 3338WAT      O10255   6.013   0.461   3.858
 3338WAT     H110256   5.945   0.391   3.880
 3338WAT     H210257   6.091   0.419   3.813
 3339WAT      O10258   1.782   6.597   2.999
 3339WAT     H110259   1.693   6.633   2.974
 3339WAT     H210260   1.807   6.521   2.938
 3340WAT      O10261   6.987   1.419   1.556
 3340WAT     H110262   6.903   1.400   1.607
 3340WAT     H210263   6.983   1.374   1.467
 3341WAT      O10264   0.354   3.250   8.597
 3341WAT     H110265   0.350   3.150   8.591
 3341WAT     H210266   0.311   3.290   8.515
 3342WAT      O10267   3.392   7.697   3.843
 3342WAT     H110268   3.420   7.648   3.926
 3342WAT     H210269   3.302   7.663   3.814
 3343WAT      O10270   5.544   4.342   3.530
 3343WAT     H110271   5.532   4.282   3.451
 3343WAT     H210272   5.586   4.290   3.605
 3344WAT      O10273   1.863   4.544   4.851
 3344WAT     H110274   1.884   4.449   4.830
 3344WAT     H210275   1.799   4.547   4.928
 3345WAT      O10276   3.784   8.388   6.508
 3345WAT     H110277   3.801   8.476   6.465
 3345WAT     H210278   3.690   8.359   6.489
 3346WAT      O10279   1.931   9.407   2.618
 3346WAT     H110280   2.027   9.400   2.645
 3346WAT     H210281   1.925   9.426   2.521
 3347WAT      O10282   3.359   1.255   5.777
 3347WAT     H110283   3.444   1.307   5.764
 3347WAT     H210284   3.289   1.314   5.816
 3348WAT      O10285   7.053   3.355   4.677
 3348WAT     H110286   7.065   3.440   4.728
 3348WAT     H210287   6.957   3.327   4.681
 3349WAT      O10288   8.458   3.352   5.706
 3349WAT     H110289   8.408   3.294   5.771
 3349WAT     H210290   8.395   3.417   5.664
 3350WAT      O10291   7.931   4.666   0.844
 3350WAT     H110292   8.010   4.670   0.905
 3350WAT     H210293   7.952   4.607   0.767
 3351WAT      O10294   1.247   7.038   4.530
 3351WAT     H110295   1.239   6.940   4.550
 3351WAT     H210296   1.175   7.088   4.579
 3352WAT      O10297   1.992   8.995   6.925
 3352WAT     H110298   2.081   8.955   6.942
 3352WAT     H210299   1.930   8.926   6.888
 3353WAT      O10300   9.786   2.292   7.842
 3353WAT     H110301   9.687   2.297   7.832
 3353WAT     H210302   9.817   2.362   7.905
 3354WAT      O10303   2.616   3.914   4.470
 3354WAT     H110304   2.681   3.839   4.456
 3354WAT     H210305   2.594   3.922   4.567
 3355WAT      O10306   8.348   5.947   2.241
 3355WAT     H110307   8.413   5.882   2.201
 3355WAT     H210308   8.397   6.028   2.272
 3356WAT      O10309   8.134   3.131   0.602
 3356WAT     H110310   8.118   3.181   0.517
 3356WAT     H210311   8.206   3.063   0.588
 3357WAT      O10312   2.348   6.453   1.559
 3357WAT     H110313   2.338   6.538   1.508
 3357WAT     H210314   2.267   6.439   1.616
 3358WAT      O10315   5.356   4.632   5.661
 3358WAT     H110316   5.439   4.586   5.692
 3358WAT     H210317   5.343   4.717   5.713
 3359WAT      O10318   2.601   1.651   6.237
 3359WAT     H110319   2.525   1.672   6.299
 3359WAT     H210320   2.608   1.723   6.168
 3360WAT      O10321   0.438   1.796   1.793
 3360WAT     H110322   0.357   1.805   1.851
 3360WAT     H210323   0.498   1.875   1.807
 3361WAT      O10324   5.698   2.491   6.209
 3361WAT     H110325   5.754   2.571   6.188
 3361WAT     H210326   5.634   2.473   6.135
 3362WAT      O10327   8.715   6.941   9.218
 3362WAT     H110328   8.653   6.999   9.165
 3362WAT     H210329   8.725   6.977   9.310
 3363WAT      O10330   2.910   8.379   9.434
 3363WAT     H110331   2.959   8.407   9.517
 3363WAT     H210332   2.813   8.402   9.444
 3364WAT      O10333   1.377   0.884   9.843
 3364WAT     H110334   1.425   0.799   9.823
 3364WAT     H210335   1.384   0.903   9.941
 3365WAT      O10336   4.574   0.482   6.256
 3365WAT     H110337   4.520   0.488   6.172
 3365WAT     H210338   4.513   0.493   6.335
 3366WAT      O10339   7.762   4.729   3.915
 3366WAT     H110340   7.750   4.742   3.817
 3366WAT     H210341   7.860   4.722   3.936
 3367WAT      O10342   8.703   9.492   5.938
 3367WAT     H110343   8.800   9.485   5.916
 3367WAT     H210344   8.661   9.559   5.876
 3368WAT      O10345   5.515   1.336   2.661
 3368WAT     H110346   5.519   1.363   2.565
 3368WAT     H210347   5.502   1.418   2.718
 3369WAT      O10348   1.391   9.629   0.223
 3369WAT     H110349   1.292   9.642   0.229
 3369WAT     H210350   1.425   9.590   0.308
 3370WAT      O10351   0.404   2.668   3.543
 3370WAT     H110352   0.355   2.746   3.504
 3370WAT     H210353   0.469   2.632   3.476
 3371WAT      O10354   9.441   8.850   2.537
 3371WAT     H110355   9.448   8.773   2.474
 3371WAT     H210356   9.383   8.826   2.614
 3372WAT      O10357   6.191   3.367   0.448
 3372WAT     H110358   6.237   3.456   0.444
 3372WAT     H210359   6.119   3.371   0.517
 3373WAT      O10360   2.779   8.690   8.826
 3373WAT     H110361   2.863   8.690   8.881
 3373WAT     H210362   2.734   8.779   8.835
 3374WAT      O10363   4.328   4.295   5.504
 3374WAT     H110364   4.269   4.284   5.584
 3374WAT     H210365   4.407   4.234   5.512
 3375WAT      O10366   3.350   8.949   2.207
 3375WAT     H110367   3.391   8.995   2.129
 3375WAT     H210368   3.420   8.935   2.278
 3376WAT      O10369   6.460   5.889   6.652
 3376WAT     H110370   6.386   5.822   6.664
 3376WAT     H210371   6.500   5.911   6.741
 3377WAT      O10372   9.562   1.434   1.776
 3377WAT     H110373   9.467   1.426   1.806
 3377WAT     H210374   9.621   1.382   1.837
 3378WAT      O10375   4.626   2.814   5.411
 3378WAT     H110376   4.582   2.743   5.356
 3378WAT     H210377   4.711   2.844   5.367
 3379WAT      O10378   3.936   9.431   1.681
 3379WAT     H110379   3.845   9.433   1.639
 3379WAT     H210380   3.929   9.396   1.774
 3380WAT      O10381   0.872   5.991   5.560
 3380WAT     H110382   0.786   6.002   5.611
 3380WAT     H210383   0.853   5.951   5.471
 3381WAT      O10384   1.738   4.938   9.527
 3381WAT     H110385   1.694   5.016   9.573
 3381WAT     H210386   1.835   4.935   9.552
 3382WAT      O10387   6.354   4.501   6.020
 3382WAT     H110388   6.453   4.488   6.023
 3382WAT     H210389   6.332   4.595   6.046
 3383WAT      O10390   0.664   5.562   0.817
 3383WAT     H110391   0.733   5.490   0.818
 3383WAT     H210392   0.636   5.579   0.722
 3384WAT      O10393   1.803   8.432   5.920
 3384WAT     H110394   1.788   8.333   5.920
 3384WAT     H210395   1.806   8.465   6.014
 3385WAT      O10396   8.593   7.644   0.312
 3385WAT     H110397   8.554   7.559   0.346
 3385WAT     H210398   8.526   7.689   0.252
 3386WAT      O10399   0.677   5.455   3.631
 3386WAT     H110400   0.702   5.462   3.728
 3386WAT     H210401   0.582   5.427   3.623
 3387WAT      O10402   1.481   4.318   8.362
 3387WAT     H110403   1.428   4.263   8.426
 3387WAT     H210404   1.484   4.272   8.273
 3388WAT      O10405   8.513   3.634   6.169
 3388WAT     H110406   8.568   3.582   6.104
 3388WAT     H210407   8.418   3.634   6.139
 3389WAT      O10408   0.112   3.166   6.109
 3389WAT     H110409   0.026   3.175   6.060
 3389WAT     H210410   0.095   3.171   6.208
 3390WAT      O10411   8.581   3.088   0.217
 3390WAT     H110412   8.641   3.159   0.182
 3390WAT     H210413   8.489   3.125   0.229
 3391WAT      O10414   6.848   9.463   1.600
 3391WAT     H110415   6.864   9.547   1.548
 3391WAT     H210416   6.928   9.443   1.656
 3392WAT      O10417   9.058   8.255   2.859
 3392WAT     H110418   8.961   8.237   2.870
 3392WAT     H210419   9.075   8.353   2.874
 3393WAT      O10420   1.024   7.900   8.092
 3393WAT     H110421   1.080   7.954   8.155
 3393WAT     H210422   0.945   7.955   8.063
 3394WAT      O10423   4.923   8.023   7.856
 3394WAT     H110424   4.987   7.963   7.809
 3394WAT     H210425   4.846   8.045   7.796
 3395WAT      O10426   7.198   5.496   6.634
 3395WAT     H110427   7.142   5.445   6.568
 3395WAT     H210428   7.293   5.466   6.626
 3396WAT      O10429   3.532   8.359   6.905
 3396WAT     H110430   3.541   8.456   6.882
 3396WAT     H210431   3.507   8.308   6.823
 3397WAT      O10432   7.278   4.960   3.122
 3397WAT     H110433   7.269   4.949   3.221
 3397WAT     H210434   7.374   4.977   3.099
 3398WAT      O10435   8.547   3.291   4.481
 3398WAT     H110436   8.481   3.346   4.532
 3398WAT     H210437   8.506   3.203   4.457
 3399WAT      O10438   4.981   1.783   3.617
 3399WAT     H110439   4.884   1.805   3.631
 3399WAT     H210440   5.037   1.837   3.679
 3400WAT      O10441   7.406   0.188   0.005
 3400WAT     H110442   7.427   0.281   0.036
 3400WAT     H210443   7.478   0.125   0.036
 3401WAT      O10444   6.752   4.437   1.898
 3401WAT     H110445   6.718   4.363   1.839
 3401WAT     H210446   6.734   4.525   1.854
 3402WAT      O10447   5.571   7.636   9.605
 3402WAT     H110448   5.650   7.673   9.654
 3402WAT     H210449   5.490   7.690   9.629
 3403WAT      O10450   1.808   5.989   5.261
 3403WAT     H110451   1.711   5.985   5.236
 3403WAT     H210452   1.857   5.915   5.215
 3404WAT      O10453   8.290   2.725   3.747
 3404WAT     H110454   8.386   2.746   3.765
 3404WAT     H210455   8.253   2.790   3.681
 3405WAT      O10456   0.340   2.641   1.103
 3405WAT     H110457   0.246   2.672   1.091
 3405WAT     H210458   0.376   2.607   1.015
 3406WAT      O10459   9.155   7.261   0.100
 3406WAT     H110460   9.128   7.276   0.005
 3406WAT     H210461   9.110   7.178   0.134
 3407WAT      O10462   7.609   0.879   5.857
 3407WAT     H110463   7.683   0.891   5.790
 3407WAT     H210464   7.621   0.943   5.932
 3408WAT      O10465   4.892   3.611   5.078
 3408WAT     H110466   4.985   3.639   5.054
 3408WAT     H210467   4.872   3.639   5.172
 3409WAT      O10468   6.876   3.677   3.887
 3409WAT     H110469   6.933   3.629   3.953
 3409WAT     H210470   6.885   3.776   3.901
 3410WAT      O10471   2.260   3.310   9.312
 3410WAT     H110472   2.171   3.346   9.283
 3410WAT     H210473   2.264   3.212   9.294
 3411WAT      O10474   1.567   5.760   4.938
 3411WAT     H110475   1.489   5.712   4.898
 3411WAT     H210476   1.618   5.698   4.997
 3412WAT      O10477   3.375   1.342   8.266
 3412WAT     H110478   3.365   1.424   8.210
 3412WAT     H210479   3.326   1.266   8.223
 3413WAT      O10480   0.335   7.974   7.024
 3413WAT     H110481   0.304   8.069   7.020
 3413WAT     H210482   0.256   7.912   7.025
 3414WAT      O10483   2.177   5.053   9.005
 3414WAT     H110484   2.111   5.112   9.053
 3414WAT     H210485   2.147   4.958   9.012
 3415WAT      O10486   7.757   8.289   0.245
 3415WAT     H110487   7.802   8.261   0.329
 3415WAT     H210488   7.744   8.210   0.185
 3416WAT      O10489   4.284   3.446   4.842
 3416WAT     H110490   4.279   3.360   4.790
 3416WAT     H210491   4.192   3.475   4.868
 3417WAT      O10492   4.308   0.198   4.420
 3417WAT     H110493   4.253   0.162   4.344
 3417WAT     H210494   4.265   0.173   4.507
 3418WAT      O10495   2.904   2.078   6.300
 3418WAT     H110496   2.828   2.034   6.251
 3418WAT     H210497   2.872   2.110   6.389
 3419WAT      O10498   4.176   9.038   5.072
 3419WAT     H110499   4.123   8.991   5.144
 3419WAT     H210500   4.133   9.126   5.052
 3420WAT      O10501   5.230   3.974   5.400
 3420WAT     H110502   5.258   3.896   5.345
 3420WAT     H210503   5.290   4.051   5.381
 3421WAT      O10504   0.005   9.803   3.868
 3421WAT     H110505   0.041   9.894   3.890
 3421WAT     H210506   0.058   9.763   3.793
 3422WAT      O10507   0.848   7.009   5.292
 3422WAT     H110508   0.779   7.069   5.252
 3422WAT     H210509   0.912   6.978   5.222
 3423WAT      O10510   3.088   8.424   6.824
 3423WAT     H110511   3.148   8.489   6.778
 3423WAT     H210512   2.996   8.464   6.831
 3424WAT      O10513   5.780   6.406   1.802
 3424WAT     H110514   5.861   6.396   1.745
 3424WAT     H210515   5.800   6.371   1.894
 3425WAT      O10516   1.481   0.945   7.279
 3425WAT     H110517   1.389   0.963   7.313
 3425WAT     H210518   1.484   0.855   7.236
 3426WAT      O10519   2.644   9.607   8.716
 3426WAT     H110520   2.732   9.652   8.704
 3426WAT     H210521   2.655   9.508   8.711
 3427WAT      O10522   4.153   7.413   4.531
 3427WAT     H110523   4.055   7.397   4.520
 3427WAT     H210524   4.204   7.333   4.499
 3428WAT      O10525   6.462   4.654   6.866
 3428WAT     H110526   6.517   4.710   6.804
 3428WAT     H210527   6.421   4.579   6.814
 3429WAT      O10528   8.358   8.851   0.528
 3429WAT     H110529   8.389   8.789   0.456
 3429WAT     H210530   8.287   8.912   0.491
 3430WAT      O10531   0.103   5.188   7.198
 3430WAT     H110532   0.094   5.287   7.209
 3430WAT     H210533   0.013   5.148   7.180
 3431WAT      O10534   2.014   4.158   2.986
 3431WAT     H110535   2.059   4.219   3.052
 3431WAT     H210536   2.037   4.063   3.008
 3432WAT      O10537   8.384   8.372   6.655
 3432WAT     H110538   8.390   8.273   6.666
 3432WAT     H210539   8.311   8.408   6.713
 3433WAT      O10540   6.227   3.230   3.022
 3433WAT     H110541   6.308   3.214   3.079
 3433WAT     H210542   6.145   3.208   3.075
 3434WAT      O10543   5.165   3.132   7.604
 3434WAT     H110544   5.120   3.189   7.672
 3434WAT     H210545   5.096   3.075   7.558
 3435WAT      O10546   5.720   6.980   0.001
 3435WAT     H110547   5.704   6.980   0.100
 3435WAT     H210548   5.807   7.026  -0.019
 3436WAT      O10549   8.856   2.270   3.215
 3436WAT     H110550   8.906   2.356   3.223
 3436WAT     H210551   8.920   2.195   3.199
 3437WAT      O10552   3.674   5.572   9.665
 3437WAT     H110553   3.598   5.544   9.606
 3437WAT     H210554   3.735   5.494   9.679
 3438WAT      O10555   5.073   9.320   3.449
 3438WAT     H110556   5.158   9.363   3.476
 3438WAT     H210557   5.031   9.277   3.529
 3439WAT      O10558   4.487   8.919   8.844
 3439WAT     H110559   4.406   8.863   8.825
 3439WAT     H210560   4.534   8.941   8.759
 3440WAT      O10561   3.644   8.154   9.672
 3440WAT     H110562   3.588   8.073   9.688
 3440WAT     H210563   3.605   8.207   9.597
 3441WAT      O10564   6.011   8.970   2.810
 3441WAT     H110565   6.083   8.997   2.746
 3441WAT     H210566   5.966   8.887   2.776
 3442WAT      O10567   0.667   8.388   0.358
 3442WAT     H110568   0.638   8.481   0.333
 3442WAT     H210569   0.598   8.323   0.325
 3443WAT      O10570   3.024   1.709   9.109
 3443WAT     H110571   3.083   1.667   9.178
 3443WAT     H210572   3.077   1.774   9.055
 3444WAT      O10573   0.929   2.492   5.328
 3444WAT     H110574   1.026   2.511   5.345
 3444WAT     H210575   0.876   2.576   5.341
 3445WAT      O10576   1.848   9.839   4.782
 3445WAT     H110577   1.754   9.804   4.785
 3445WAT     H210578   1.869   9.884   4.869
 3446WAT      O10579   9.604   3.363   4.293
 3446WAT     H110580   9.700   3.389   4.309
 3446WAT     H210581   9.571   3.310   4.371
 3447WAT      O10582   7.180   0.666   0.698
 3447WAT     H110583   7.221   0.629   0.615
 3447WAT     H210584   7.192   0.601   0.774
 3448WAT      O10585   5.561   4.671   9.248
 3448WAT     H110586   5.511   4.661   9.161
 3448WAT     H210587   5.643   4.726   9.233
 3449WAT      O10588   5.280   6.136   8.863
 3449WAT     H110589   5.256   6.050   8.907
 3449WAT     H210590   5.210   6.161   8.797
 3450WAT      O10591   3.033   9.388   5.285
 3450WAT     H110592   2.955   9.449   5.296
 3450WAT     H210593   3.053   9.377   5.187
 3451WAT      O10594   5.189   5.354   2.815
 3451WAT     H110595   5.278   5.370   2.773
 3451WAT     H210596   5.196   5.363   2.914
 3452WAT      O10597   0.480   9.631   2.594
 3452WAT     H110598   0.392   9.655   2.554
 3452WAT     H210599   0.552   9.642   2.525
 3453WAT      O10600   4.691   1.389   8.364
 3453WAT     H110601   4.744   1.356   8.442
 3453WAT     H210602   4.594   1.375   8.382
 3454WAT      O10603   6.457   6.157   5.120
 3454WAT     H110604   6.466   6.137   5.217
 3454WAT     H210605   6.360   6.163   5.096
 3455WAT      O10606   9.664   9.239   9.502
 3455WAT     H110607   9.748   9.217   9.552
 3455WAT     H210608   9.589   9.184   9.538
 3456WAT      O10609   4.583   0.470   1.052
 3456WAT     H110610   4.526   0.390   1.034
 3456WAT     H210611   4.626   0.501   0.968
 3457WAT      O10612   3.687   4.348   4.501
 3457WAT     H110613   3.751   4.364   4.426
 3457WAT     H210614   3.690   4.251   4.527
 3458WAT      O10615   4.745   1.826   8.051
 3458WAT     H110616   4.805   1.768   7.996
 3458WAT     H210617   4.650   1.815   8.021
 3459WAT      O10618   7.932   1.970   7.645
 3459WAT     H110619   7.839   1.936   7.657
 3459WAT     H210620   7.957   2.028   7.722
 3460WAT      O10621   6.034   8.874   1.146
 3460WAT     H110622   5.997   8.858   1.054
 3460WAT     H210623   6.095   8.953   1.144
 3461WAT      O10624   6.670   8.736   8.545
 3461WAT     H110625   6.706   8.646   8.520
 3461WAT     H210626   6.687   8.801   8.470
 3462WAT      O10627   3.898   5.599   8.065
 3462WAT     H110628   3.876   5.505   8.089
 3462WAT     H210629   3.927   5.603   7.970
 3463WAT      O10630   1.027   1.232   7.890
 3463WAT     H110631   1.038   1.170   7.967
 3463WAT     H210632   0.947   1.290   7.904
 3464WAT      O10633   9.385   9.112   0.751
 3464WAT     H110634   9.467   9.104   0.694
 3464WAT     H210635   9.360   9.209   0.759
 3465WAT      O10636   8.095   7.339   4.743
 3465WAT     H110637   8.086   7.437   4.730
 3465WAT     H210638   8.191   7.317   4.763
 3466WAT      O10639   4.205   1.674   8.297
 3466WAT     H110640   4.230   1.675   8.200
 3466WAT     H210641   4.220   1.765   8.336
 3467WAT      O10642   3.891   7.974   3.464
 3467WAT     H110643   3.840   7.930   3.537
 3467WAT     H210644   3.957   8.038   3.503
 3468WAT      O10645   4.818   7.677   3.035
 3468WAT     H110646   4.853   7.610   2.970
 3468WAT     H210647   4.718   7.672   3.037
 3469WAT      O10648   3.189   4.284   1.838
 3469WAT     H110649   3.263   4.344   1.869
 3469WAT     H210650   3.128   4.264   1.915
 3470WAT      O10651   5.350   0.712   0.082
 3470WAT     H110652   5.269   0.762   0.113
 3470WAT     H210653   5.398   0.765   0.012
 3471WAT      O10654   6.198   1.993   6.179
 3471WAT     H110655   6.208   1.911   6.124
 3471WAT     H210656   6.116   1.985   6.236
 3472WAT      O10657   3.858   5.655   0.372
 3472WAT     H110658   3.881   5.709   0.453
 3472WAT     H210659   3.857   5.558   0.396
 3473WAT      O10660   5.147   2.802   3.389
 3473WAT     H110661   5.127   2.760   3.477
 3473WAT     H210662   5.091   2.884   3.377
 3474WAT      O10663   1.613   5.483   5.710
 3474WAT     H110664   1.589   5.498   5.615
 3474WAT     H210665   1.648   5.567   5.750
 3475WAT      O10666   8.228   6.909   3.426
 3475WAT     H110667   8.224   6.813   3.398
 3475WAT     H210668   8.166   6.963   3.369
 3476WAT      O10669   0.309   4.318   7.126
 3476WAT     H110670   0.282   4.324   7.222
 3476WAT     H210671   0.248   4.255   7.078
 3477WAT      O10672   7.925   1.007   6.006
 3477WAT     H110673   7.942   1.105   6.006
 3477WAT     H210674   7.995   0.961   6.061
 3478WAT      O10675   4.474   1.891   2.912
 3478WAT     H110676   4.466   1.826   2.836
 3478WAT     H210677   4.568   1.925   2.916
 3479WAT      O10678   7.895   3.292   1.104
 3479WAT     H110679   7.801   3.325   1.109
 3479WAT     H210680   7.956   3.369   1.081
 3480WAT      O10681   8.000   5.417   3.467
 3480WAT     H110682   8.037   5.473   3.392
 3480WAT     H210683   8.047   5.441   3.552
 3481WAT      O10684   7.970   8.424   7.184
 3481WAT     H110685   7.890   8.477   7.213
 3481WAT     H210686   7.944   8.329   7.169
 3482WAT      O10687   0.011   2.720   4.295
 3482WAT     H110688  -0.006   2.664   4.376
 3482WAT     H210689   0.109   2.723   4.275
 3483WAT      O10690   0.668   2.972   1.604
 3483WAT     H110691   0.655   3.061   1.559
 3483WAT     H210692   0.592   2.911   1.582
 3484WAT      O10693   1.501   3.635   6.565
 3484WAT     H110694   1.584   3.595   6.605
 3484WAT     H210695   1.527   3.713   6.508
 3485WAT      O10696   6.875   5.451   2.805
 3485WAT     H110697   6.914   5.481   2.892
 3485WAT     H210698   6.826   5.365   2.818
 3486WAT      O10699   9.668   7.691   5.515
 3486WAT     H110700   9.615   7.757   5.462
 3486WAT     H210701   9.620   7.669   5.599
 3487WAT      O10702   2.067   6.318   0.056
 3487WAT     H110703   2.105   6.316   0.148
 3487WAT     H210704   1.974   6.281   0.057
 3488WAT      O10705   3.120   2.429   5.855
 3488WAT     H110706   3.129   2.349   5.796
 3488WAT     H210707   3.143   2.403   5.949
 3489WAT      O10708   9.798   8.281   5.483
 3489WAT     H110709   9.886   8.293   5.438
 3489WAT     H210710   9.809   8.288   5.582
 3490WAT      O10711   1.882   6.140   8.912
 3490WAT     H110712   1.981   6.125   8.908
 3490WAT     H210713   1.847   6.106   9.000
 3491WAT      O10714   4.816   4.803   6.187
 3491WAT     H110715   4.753   4.760   6.124
 3491WAT     H210716   4.885   4.736   6.216
 3492WAT      O10717   2.556   2.240   8.955
 3492WAT     H110718   2.527   2.225   9.049
 3492WAT     H210719   2.644   2.288   8.954
 3493WAT      O10720   9.834   6.506   4.974
 3493WAT     H110721   9.739   6.520   5.004
 3493WAT     H210722   9.837   6.432   4.906
 3494WAT      O10723   0.177   1.385   2.682
 3494WAT     H110724   0.264   1.412   2.722
 3494WAT     H210725   0.112   1.363   2.755
 3495WAT      O10726   2.173   0.184   9.309
 3495WAT     H110727   2.080   0.220   9.297
 3495WAT     H210728   2.231   0.216   9.234
 3496WAT      O10729   1.124   7.997   0.107
 3496WAT     H110730   1.197   7.934   0.080
 3496WAT     H210731   1.036   7.956   0.085
 3497WAT      O10732   7.817   3.053   8.467
 3497WAT     H110733   7.762   3.032   8.548
 3497WAT     H210734   7.855   2.969   8.429
 3498WAT      O10735   1.250   5.646   6.529
 3498WAT     H110736   1.291   5.725   6.483
 3498WAT     H210737   1.318   5.572   6.535
 3499WAT      O10738   3.647   6.107   2.737
 3499WAT     H110739   3.588   6.126   2.658
 3499WAT     H210740   3.699   6.189   2.760
 3500WAT      O10741   9.578   1.743   1.502
 3500WAT     H110742   9.552   1.821   1.445
 3500WAT     H210743   9.645   1.773   1.570
 3501WAT      O10744   3.084   9.268   5.019
 3501WAT     H110745   3.053   9.182   4.979
 3501WAT     H210746   3.031   9.344   4.980
 3502WAT      O10747   6.776   4.304   2.432
 3502WAT     H110748   6.834   4.337   2.507
 3502WAT     H210749   6.831   4.294   2.349
 3503WAT      O10750   3.295   9.839   1.197
 3503WAT     H110751   3.247   9.783   1.265
 3503WAT     H210752   3.367   9.785   1.154
 3504WAT      O10753   7.352   3.295   9.616
 3504WAT     H110754   7.314   3.379   9.577
 3504WAT     H210755   7.451   3.293   9.600
 3505WAT      O10756   8.126   4.134   0.742
 3505WAT     H110757   8.198   4.070   0.713
 3505WAT     H210758   8.153   4.177   0.828
 3506WAT      O10759   4.484   5.958   5.593
 3506WAT     H110760   4.394   5.988   5.626
 3506WAT     H210761   4.540   5.932   5.672
 3507WAT      O10762   5.498   0.932   6.449
 3507WAT     H110763   5.532   0.961   6.359
 3507WAT     H210764   5.461   0.840   6.443
 3508WAT      O10765   4.940   0.231   5.858
 3508WAT     H110766   4.878   0.249   5.782
 3508WAT     H210767   4.956   0.132   5.865
 3509WAT      O10768   5.355   4.764   3.218
 3509WAT     H110769   5.412   4.828   3.270
 3509WAT     H210770   5.392   4.672   3.226
 3510WAT      O10771   9.406   4.566   6.636
 3510WAT     H110772   9.451   4.506   6.570
 3510WAT     H210773   9.379   4.651   6.590
 3511WAT      O10774   3.646   1.232   8.180
 3511WAT     H110775   3.600   1.283   8.253
 3511WAT     H210776   3.585   1.162   8.144
 3512WAT      O10777   2.209   5.278   8.844
 3512WAT     H110778   2.289   5.268   8.786
 3512WAT     H210779   2.194   5.194   8.896
 3513WAT      O10780   5.228   1.453   1.932
 3513WAT     H110781   5.274   1.401   1.860
 3513WAT     H210782   5.297   1.485   1.998
 3514WAT      O10783   7.909   2.358   3.692
 3514WAT     H110784   7.970   2.279   3.683
 3514WAT     H210785   7.842   2.357   3.618
 3515WAT      O10786   5.280   2.997   1.440
 3515WAT     H110787   5.296   2.938   1.361
 3515WAT     H210788   5.347   2.975   1.511
 3516WAT      O10789   8.392   7.005   6.708
 3516WAT     H110790   8.488   6.996   6.736
 3516WAT     H210791   8.333   6.995   6.788
 3517WAT      O10792   5.435   9.471   6.817
 3517WAT     H110793   5.400   9.535   6.748
 3517WAT     H210794   5.516   9.425   6.781
 3518WAT      O10795   8.827   0.748   0.653
 3518WAT     H110796   8.898   0.775   0.718
 3518WAT     H210797   8.868   0.697   0.578
 3519WAT      O10798   0.417   9.274   1.252
 3519WAT     H110799   0.401   9.176   1.266
 3519WAT     H210800   0.410   9.322   1.339
 3520WAT      O10801   1.167   5.892   4.891
 3520WAT     H110802   1.167   5.825   4.817
 3520WAT     H210803   1.149   5.847   4.978
 3521WAT      O10804   3.099   8.453   1.206
 3521WAT     H110805   3.181   8.499   1.171
 3521WAT     H210806   3.018   8.490   1.161
 3522WAT      O10807   7.260   2.129   7.087
 3522WAT     H110808   7.247   2.155   6.991
 3522WAT     H210809   7.241   2.031   7.098
 3523WAT      O10810   7.443   7.440   7.752
 3523WAT     H110811   7.490   7.516   7.798
 3523WAT     H210812   7.477   7.353   7.788
 3524WAT      O10813   3.491   2.281   5.295
 3524WAT     H110814   3.534   2.268   5.384
 3524WAT     H210815   3.426   2.207   5.277
 3525WAT      O10816   3.005   1.680   6.372
 3525WAT     H110817   2.952   1.757   6.407
 3525WAT     H210818   3.058   1.710   6.292
 3526WAT      O10819   2.057   5.263   1.820
 3526WAT     H110820   2.053   5.363   1.818
 3526WAT     H210821   2.129   5.233   1.883
 3527WAT      O10822   2.768   2.958   4.268
 3527WAT     H110823   2.712   2.935   4.348
 3527WAT     H210824   2.785   3.056   4.266
 3528WAT      O10825   8.241   3.881   6.275
 3528WAT     H110826   8.251   3.959   6.213
 3528WAT     H210827   8.163   3.896   6.335
 3529WAT      O10828   9.265   7.554   6.596
 3529WAT     H110829   9.256   7.608   6.512
 3529WAT     H210830   9.334   7.595   6.654
 3530WAT      O10831   4.387   2.422   2.163
 3530WAT     H110832   4.475   2.412   2.210
 3530WAT     H210833   4.392   2.498   2.099
 3531WAT      O10834   2.839   2.721   1.766
 3531WAT     H110835   2.783   2.669   1.702
 3531WAT     H210836   2.890   2.658   1.825
 3532WAT      O10837   7.569   6.205   1.654
 3532WAT     H110838   7.639   6.164   1.596
 3532WAT     H210839   7.606   6.222   1.745
 3533WAT      O10840   8.557   3.180   2.024
 3533WAT     H110841   8.496   3.133   1.960
 3533WAT     H210842   8.647   3.191   1.982
 3534WAT      O10843   0.671   6.791   7.523
 3534WAT     H110844   0.687   6.795   7.621
 3534WAT     H210845   0.670   6.695   7.493
 3535WAT      O10846   8.901   4.591   6.434
 3535WAT     H110847   8.940   4.603   6.343
 3535WAT     H210848   8.812   4.637   6.439
 3536WAT      O10849   0.789   7.556   5.180
 3536WAT     H110850   0.724   7.623   5.145
 3536WAT     H210851   0.828   7.505   5.103
 3537WAT      O10852   6.528   4.035   8.205
 3537WAT     H110853   6.588   4.074   8.136
 3537WAT     H210854   6.508   3.940   8.182
 3538WAT      O10855   6.944   5.102   1.368
 3538WAT     H110856   6.978   5.109   1.462
 3538WAT     H210857   6.973   5.015   1.329
 3539WAT      O10858   2.367   0.868   2.543
 3539WAT     H110859   2.380   0.770   2.560
 3539WAT     H210860   2.453   0.908   2.513
 3540WAT      O10861   8.968   4.491   2.043
 3540WAT     H110862   8.887   4.546   2.067
 3540WAT     H210863   8.953   4.396   2.072
 3541WAT      O10864   8.626   7.586   8.424
 3541WAT     H110865   8.631   7.668   8.482
 3541WAT     H210866   8.693   7.519   8.456
 3542WAT      O10867   4.812   5.628   9.734
 3542WAT     H110868   4.865   5.555   9.690
 3542WAT     H210869   4.831   5.629   9.832
 3543WAT      O10870   8.412   6.324   1.115
 3543WAT     H110871   8.470   6.285   1.044
 3543WAT     H210872   8.397   6.256   1.187
 3544WAT      O10873   8.935   0.937   9.187
 3544WAT     H110874   9.005   0.991   9.141
 3544WAT     H210875   8.947   0.945   9.286
 3545WAT      O10876   1.139   6.633   2.196
 3545WAT     H110877   1.113   6.714   2.249
 3545WAT     H210878   1.062   6.604   2.139
 3546WAT      O10879   3.908   2.072   8.714
 3546WAT     H110880   3.851   2.053   8.794
 3546WAT     H210881   3.970   1.995   8.699
 3547WAT      O10882   5.046   0.307   6.619
 3547WAT     H110883   5.060   0.406   6.629
 3547WAT     H210884   4.948   0.288   6.613
 3548WAT      O10885   4.983   7.361   8.639
 3548WAT     H110886   4.885   7.350   8.657
 3548WAT     H210887   5.028   7.394   8.722
 3549WAT      O10888   8.236   6.590   2.821
 3549WAT     H110889   8.322   6.635   2.798
 3549WAT     H210890   8.169   6.607   2.749
 3550WAT      O10891   7.117   9.370   3.376
 3550WAT     H110892   7.119   9.313   3.458
 3550WAT     H210893   7.058   9.450   3.392
 3551WAT      O10894   9.035   0.352   7.619
 3551WAT     H110895   9.108   0.299   7.661
 3551WAT     H210896   9.021   0.321   7.525
 3552WAT      O10897   5.826   1.348   4.409
 3552WAT     H110898   5.896   1.277   4.401
 3552WAT     H210899   5.785   1.364   4.319
 3553WAT      O10900   0.788   0.300   2.304
 3553WAT     H110901   0.733   0.367   2.254
 3553WAT     H210902   0.730   0.225   2.334
 3554WAT      O10903   8.525   7.471   5.170
 3554WAT     H110904   8.426   7.486   5.180
 3554WAT     H210905   8.541   7.378   5.138
 3555WAT      O10906   6.490   1.474   8.395
 3555WAT     H110907   6.541   1.498   8.478
 3555WAT     H210908   6.403   1.432   8.421
 3556WAT      O10909   2.784   4.447   8.121
 3556WAT     H110910   2.842   4.515   8.167
 3556WAT     H210911   2.840   4.369   8.092
 3557WAT      O10912   7.460   0.747   6.039
 3557WAT     H110913   7.523   0.733   6.116
 3557WAT     H210914   7.513   0.773   5.958
 3558WAT      O10915   2.886   9.296   0.741
 3558WAT     H110916   2.857   9.327   0.651
 3558WAT     H210917   2.815   9.317   0.809
 3559WAT      O10918   3.158   7.483   4.021
 3559WAT     H110919   3.089   7.544   3.980
 3559WAT     H210920   3.190   7.522   4.107
 3560WAT      O10921   2.601   8.600   5.041
 3560WAT     H110922   2.685   8.629   4.996
 3560WAT     H210923   2.535   8.676   5.043
 3561WAT      O10924   9.124   5.002   0.724
 3561WAT     H110925   9.130   5.077   0.658
 3561WAT     H210926   9.046   4.944   0.703
 3562WAT      O10927   9.221   0.013   7.139
 3562WAT     H110928   9.319  -0.002   7.155
 3562WAT     H210929   9.202   0.112   7.139
 3563WAT      O10930   1.482   6.236   0.457
 3563WAT     H110931   1.443   6.145   0.446
 3563WAT     H210932   1.414   6.297   0.497
 3564WAT      O10933   6.778   2.759   2.668
 3564WAT     H110934   6.743   2.838   2.718
 3564WAT     H210935   6.828   2.790   2.587
 3565WAT      O10936   7.880   5.207   3.588
 3565WAT     H110937   7.892   5.230   3.685
 3565WAT     H210938   7.908   5.285   3.532
 3566WAT      O10939   1.907   7.677   0.691
 3566WAT     H110940   1.899   7.678   0.790
 3566WAT     H210941   1.944   7.764   0.659
 3567WAT      O10942   3.851   3.852   6.503
 3567WAT     H110943   3.913   3.883   6.574
 3567WAT     H210944   3.874   3.897   6.417
 3568WAT      O10945   3.705   6.710   5.519
 3568WAT     H110946   3.666   6.669   5.437
 3568WAT     H210947   3.765   6.644   5.564
 3569WAT      O10948   6.448   0.057   2.570
 3569WAT     H110949   6.523   0.122   2.581
 3569WAT     H210950   6.364   0.097   2.609
 3570WAT      O10951   4.650   8.971   8.613
 3570WAT     H110952   4.747   8.982   8.637
 3570WAT     H210953   4.635   8.878   8.580
 3571WAT      O10954   2.234   2.330   2.530
 3571WAT     H110955   2.238   2.367   2.437
 3571WAT     H210956   2.326   2.329   2.569
 3572WAT      O10957   1.536   3.061   7.891
 3572WAT     H110958   1.509   3.002   7.968
 3572WAT     H210959   1.631   3.040   7.866
 3573WAT      O10960   5.284   2.728   1.971
 3573WAT     H110961   5.268   2.764   1.879
 3573WAT     H210962   5.374   2.759   2.003
 3574WAT      O10963   3.389   8.198   9.875
 3574WAT     H110964   3.457   8.229   9.942
 3574WAT     H210965   3.405   8.244   9.787
 3575WAT      O10966   6.666   4.357   8.729
 3575WAT     H110967   6.696   4.365   8.634
 3575WAT     H210968   6.648   4.260   8.749
 3576WAT      O10969   9.301   8.829   1.576
 3576WAT     H110970   9.247   8.878   1.644
 3576WAT     H210971   9.390   8.873   1.565
 3577WAT      O10972   4.536   2.120   9.477
 3577WAT     H110973   4.467   2.051   9.496
 3577WAT     H210974   4.545   2.181   9.556
 3578WAT      O10975   3.253   8.229   4.942
 3578WAT     H110976   3.228   8.132   4.936
 3578WAT     H210977   3.291   8.248   5.033
 3579WAT      O10978   4.430   7.579   4.129
 3579WAT     H110979   4.527   7.597   4.145
 3579WAT     H210980   4.375   7.624   4.199
 3580WAT      O10981   2.261   0.574   1.413
 3580WAT     H110982   2.284   0.655   1.468
 3580WAT     H210983   2.345   0.528   1.386
 3581WAT      O10984   4.395   0.790   8.616
 3581WAT     H110985   4.311   0.737   8.608
 3581WAT     H210986   4.399   0.858   8.543
 3582WAT      O10987   5.666   6.545   7.394
 3582WAT     H110988   5.716   6.629   7.415
 3582WAT     H210989   5.727   6.466   7.403
 3583WAT      O10990   9.854   0.272   5.507
 3583WAT     H110991   9.905   0.204   5.559
 3583WAT     H210992   9.756   0.261   5.524
 3584WAT      O10993   0.414   5.563   7.413
 3584WAT     H110994   0.459   5.652   7.404
 3584WAT     H210995   0.470   5.503   7.470
 3585WAT      O10996   4.163   8.854   5.842
 3585WAT     H110997   4.167   8.780   5.909
 3585WAT     H210998   4.255   8.882   5.817
 3586WAT      O10999   3.204   4.199   5.801
 3586WAT     H111000   3.251   4.164   5.882
 3586WAT     H211001   3.119   4.150   5.787
 3587WAT      O11002   6.924   4.864   1.195
 3587WAT     H111003   6.849   4.824   1.249
 3587WAT     H211004   6.886   4.907   1.113
 3588WAT      O11005   9.107   3.282   3.113
 3588WAT     H111006   9.042   3.287   3.038
 3588WAT     H211007   9.058   3.279   3.200
 3589WAT      O11008   2.920   5.117   1.311
 3589WAT     H111009   3.012   5.081   1.301
 3589WAT     H211010   2.862   5.049   1.356
 3590WAT      O11011   0.049   1.355   2.921
 3590WAT     H111012   0.124   1.318   2.975
 3590WAT     H211013  -0.022   1.391   2.982
 3591WAT      O11014   2.668   6.191   1.288
 3591WAT     H111015   2.597   6.125   1.265
 3591WAT     H211016   2.719   6.160   1.368
 3592WAT      O11017   5.979   5.698   9.336
 3592WAT     H111018   6.001   5.609   9.375
 3592WAT     H211019   5.986   5.768   9.407
 3593WAT      O11020   6.893   7.430   5.744
 3593WAT     H111021   6.874   7.343   5.790
 3593WAT     H211022   6.809   7.483   5.738
 3594WAT      O11023   6.118   6.411   8.305
 3594WAT     H111024   6.056   6.450   8.373
 3594WAT     H211025   6.070   6.401   8.218
 3595WAT      O11026   8.288   2.739   6.012
 3595WAT     H111027   8.205   2.682   6.020
 3595WAT     H211028   8.274   2.808   5.941
 3596WAT      O11029   8.294   5.710   7.846
 3596WAT     H111030   8.284   5.809   7.859
 3596WAT     H211031   8.278   5.663   7.933
 3597WAT      O11032   0.772   7.356   2.963
 3597WAT     H111033   0.819   7.430   2.914
 3597WAT     H211034   0.691   7.328   2.911
 3598WAT      O11035   5.580   6.955   6.815
 3598WAT     H111036   5.521   6.914   6.885
 3598WAT     H211037   5.562   7.053   6.810
 3599WAT      O11038   5.581   8.968   2.116
 3599WAT     H111039   5.500   9.014   2.152
 3599WAT     H211040   5.593   8.880   2.163
 3600WAT      O11041   9.716   3.960   8.539
 3600WAT     H111042   9.699   4.037   8.476
 3600WAT     H211043   9.803   3.973   8.585
 3601WAT      O11044   3.616   9.675   8.698
 3601WAT     H111045   3.579   9.722   8.619
 3601WAT     H211046   3.568   9.704   8.781
 3602WAT      O11047   5.889   2.078   3.714
 3602WAT     H111048   5.963   2.145   3.720
 3602WAT     H211049   5.927   1.988   3.693
 3603WAT      O11050   4.266   6.499   6.639
 3603WAT     H111051   4.358   6.487   6.677
 3603WAT     H211052   4.258   6.590   6.599
 3604WAT      O11053   4.817   9.039   2.200
 3604WAT     H111054   4.870   9.052   2.116
 3604WAT     H211055   4.873   9.066   2.279
 3605WAT      O11056   1.630   3.155   4.589
 3605WAT     H111057   1.533   3.148   4.563
 3605WAT     H211058   1.638   3.145   4.688
 3606WAT      O11059   9.534   4.623   4.978
 3606WAT     H111060   9.529   4.551   5.047
 3606WAT     H211061   9.481   4.596   4.898
 3607WAT      O11062   3.682   6.149   3.056
 3607WAT     H111063   3.651   6.192   3.141
 3607WAT     H211064   3.605   6.103   3.012
 3608WAT      O11065   3.217   0.163   7.654
 3608WAT     H111066   3.191   0.256   7.627
 3608WAT     H211067   3.189   0.099   7.582
 3609WAT      O11068   3.537   7.215   0.276
 3609WAT     H111069   3.496   7.155   0.344
 3609WAT     H211070   3.547   7.166   0.190
 3610WAT      O11071   2.189   8.669   6.284
 3610WAT     H111072   2.263   8.676   6.351
 3610WAT     H211073   2.101   8.671   6.332
 3611WAT      O11074   7.060   1.019   1.795
 3611WAT     H111075   7.044   1.052   1.888
 3611WAT     H211076   7.031   0.923   1.789
 3612WAT      O11077   6.904   1.787   5.790
 3612WAT     H111078   6.829   1.831   5.740
 3612WAT     H211079   6.878   1.694   5.815
 3613WAT      O11080   2.296   2.713   1.219
 3613WAT     H111081   2.339   2.697   1.308
 3613WAT     H211082   2.257   2.805   1.217
 3614WAT      O11083   7.997   9.710   5.283
 3614WAT     H111084   8.040   9.727   5.372
 3614WAT     H211085   7.902   9.741   5.285
 3615WAT      O11086   3.446   3.091   8.279
 3615WAT     H111087   3.505   3.011   8.278
 3615WAT     H211088   3.434   3.122   8.373
 3616WAT      O11089   1.704   6.340   6.206
 3616WAT     H111090   1.662   6.323   6.295
 3616WAT     H211091   1.758   6.423   6.210
 3617WAT      O11092   7.772   3.001   0.654
 3617WAT     H111093   7.779   3.038   0.562
 3617WAT     H211094   7.717   2.917   0.652
 3618WAT      O11095   0.054   2.616   5.303
 3618WAT     H111096  -0.044   2.602   5.295
 3618WAT     H211097   0.091   2.558   5.375
 3619WAT      O11098   0.300   9.089   5.267
 3619WAT     H111099   0.201   9.078   5.277
 3619WAT     H211100   0.347   9.025   5.327
 3620WAT      O11101   4.284   2.754   8.725
 3620WAT     H111102   4.209   2.817   8.747
 3620WAT     H211103   4.280   2.675   8.787
 3621WAT      O11104   8.043   5.638   1.527
 3621WAT     H111105   8.015   5.547   1.497
 3621WAT     H211106   8.021   5.705   1.455
 3622WAT      O11107   5.372   6.347   2.281
 3622WAT     H111108   5.449   6.291   2.251
 3622WAT     H211109   5.311   6.291   2.337
 3623WAT      O11110   7.888   5.398   9.695
 3623WAT     H111111   7.799   5.423   9.733
 3623WAT     H211112   7.933   5.332   9.755
 3624WAT      O11113   4.388   8.491   4.611
 3624WAT     H111114   4.301   8.476   4.565
 3624WAT     H211115   4.427   8.578   4.582
 3625WAT      O11116   6.583   2.427   0.578
 3625WAT     H111117   6.504   2.458   0.526
 3625WAT     H211118   6.659   2.407   0.516
 3626WAT      O11119   4.059   1.925   4.912
 3626WAT     H111120   4.128   1.998   4.914
 3626WAT     H211121   3.994   1.939   4.986
 3627WAT      O11122   4.675   1.507   6.628
 3627WAT     H111123   4.710   1.423   6.587
 3627WAT     H211124   4.751   1.571   6.641
 3628WAT      O11125   2.616   2.335   4.788
 3628WAT     H111126   2.629   2.278   4.707
 3628WAT     H211127   2.670   2.298   4.864
 3629WAT      O11128   8.530   1.740   5.935
 3629WAT     H111129   8.496   1.721   5.842
 3629WAT     H211130   8.497   1.830   5.964
 3630WAT      O11131   6.530   2.262   8.232
 3630WAT     H111132   6.516   2.192   8.302
 3630WAT     H211133   6.604   2.233   8.171
 3631WAT      O11134   5.215   7.660   4.847
 3631WAT     H111135   5.257   7.571   4.862
 3631WAT     H211136   5.287   7.729   4.835
 3632WAT      O11137   5.513   3.826   5.229
 3632WAT     H111138   5.428   3.779   5.248
 3632WAT     H211139   5.523   3.840   5.130
 3633WAT      O11140   1.205   2.365   2.280
 3633WAT     H111141   1.285   2.353   2.221
 3633WAT     H211142   1.192   2.282   2.335
 3634WAT      O11143   8.435   2.569   5.671
 3634WAT     H111144   8.337   2.579   5.688
 3634WAT     H211145   8.467   2.482   5.710
 3635WAT      O11146   6.621   5.296   3.168
 3635WAT     H111147   6.547   5.271   3.106
 3635WAT     H211148   6.695   5.228   3.161
 3636WAT      O11149   7.690   9.729   8.629
 3636WAT     H111150   7.650   9.713   8.539
 3636WAT     H211151   7.619   9.722   8.699
 3637WAT      O11152   5.967   2.965   2.208
 3637WAT     H111153   5.941   2.903   2.133
 3637WAT     H211154   5.886   2.991   2.259
 3638WAT      O11155   5.242   0.474   5.806
 3638WAT     H111156   5.327   0.521   5.784
 3638WAT     H211157   5.239   0.455   5.904
 3639WAT      O11158   5.325   0.770   7.205
 3639WAT     H111159   5.300   0.728   7.118
 3639WAT     H211160   5.283   0.861   7.211
 3640WAT      O11161   1.063   9.119   1.183
 3640WAT     H111162   0.968   9.089   1.189
 3640WAT     H211163   1.121   9.041   1.162
 3641WAT      O11164   7.884   8.891   4.343
 3641WAT     H111165   7.891   8.988   4.367
 3641WAT     H211166   7.896   8.879   4.245
 3642WAT      O11167   0.030   1.247   7.051
 3642WAT     H111168   0.017   1.311   7.127
 3642WAT     H211169  -0.052   1.245   6.995
 3643WAT      O11170   3.795   1.774   6.567
 3643WAT     H111171   3.845   1.696   6.605
 3643WAT     H211172   3.847   1.858   6.584
 3644WAT      O11173   9.556   6.683   6.935
 3644WAT     H111174   9.469   6.634   6.942
 3644WAT     H211175   9.541   6.781   6.947
 3645WAT      O11176   2.753   0.944   3.368
 3645WAT     H111177   2.837   0.890   3.361
 3645WAT     H211178   2.675   0.884   3.387
 3646WAT      O11179   0.790   7.966   3.839
 3646WAT     H111180   0.731   8.044   3.820
 3646WAT     H211181   0.848   7.987   3.918
 3647WAT      O11182   6.624   7.074   9.324
 3647WAT     H111183   6.541   7.115   9.287
 3647WAT     H211184   6.682   7.146   9.363
 3648WAT      O11185   5.748   5.360   8.049
 3648WAT     H111186   5.705   5.270   8.041
 3648WAT     H211187   5.840   5.350   8.087
 3649WAT      O11188   0.458   8.142   1.644
 3649WAT     H111189   0.520   8.202   1.694
 3649WAT     H211190   0.476   8.047   1.669
 3650WAT      O11191   4.126   8.413   4.176
 3650WAT     H111192   4.027   8.422   4.167
 3650WAT     H211193   4.155   8.452   4.264
 3651WAT      O11194   3.864   9.014   8.706
 3651WAT     H111195   3.847   9.067   8.623
 3651WAT     H211196   3.931   9.062   8.762
 3652WAT      O11197   3.651   9.320   0.531
 3652WAT     H111198   3.722   9.327   0.462
 3652WAT     H211199   3.585   9.394   0.519
 3653WAT      O11200   2.352   7.231   0.540
 3653WAT     H111201   2.298   7.156   0.501
 3653WAT     H211202   2.327   7.317   0.495
 3654WAT      O11203   8.732   1.791   3.185
 3654WAT     H111204   8.825   1.791   3.149
 3654WAT     H211205   8.705   1.884   3.209
 3655WAT      O11206   1.716   5.593   3.390
 3655WAT     H111207   1.642   5.604   3.458
 3655WAT     H211208   1.798   5.558   3.436
 3656WAT      O11209   1.877   5.687   0.586
 3656WAT     H111210   1.876   5.746   0.666
 3656WAT     H211211   1.897   5.742   0.505
 3657WAT      O11212   4.904   7.714   8.818
 3657WAT     H111213   4.846   7.705   8.738
 3657WAT     H211214   4.861   7.776   8.884
 3658WAT      O11215   1.435   0.751   9.273
 3658WAT     H111216   1.429   0.726   9.177
 3658WAT     H211217   1.532   0.757   9.300
 3659WAT      O11218   8.462   9.729   7.387
 3659WAT     H111219   8.560   9.710   7.376
 3659WAT     H211220   8.416   9.718   7.299
 3660WAT      O11221   8.131   4.643   2.470
 3660WAT     H111222   8.159   4.703   2.545
 3660WAT     H211223   8.057   4.686   2.418
 3661WAT      O11224   6.840   8.794   0.235
 3661WAT     H111225   6.916   8.849   0.269
 3661WAT     H211226   6.852   8.777   0.137
 3662WAT      O11227   4.312   9.616   2.598
 3662WAT     H111228   4.365   9.655   2.674
 3662WAT     H211229   4.374   9.588   2.525
 3663WAT      O11230   4.918   3.994   2.847
 3663WAT     H111231   4.971   3.973   2.765
 3663WAT     H211232   4.835   3.938   2.847
 3664WAT      O11233   6.091   2.957   7.574
 3664WAT     H111234   6.066   3.036   7.629
 3664WAT     H211235   6.091   2.982   7.477
 3665WAT      O11236   8.689   8.913   2.522
 3665WAT     H111237   8.726   8.920   2.430
 3665WAT     H211238   8.589   8.921   2.519
 3666WAT      O11239   3.294   5.736   2.614
 3666WAT     H111240   3.242   5.666   2.664
 3666WAT     H211241   3.280   5.825   2.658
 3667WAT      O11242   4.988   4.548   5.503
 3667WAT     H111243   5.038   4.500   5.432
 3667WAT     H211244   4.895   4.511   5.510
 3668WAT      O11245   9.443   8.411   5.379
 3668WAT     H111246   9.368   8.453   5.430
 3668WAT     H211247   9.529   8.458   5.400
 3669WAT      O11248   3.192   2.030   3.109
 3669WAT     H111249   3.272   1.993   3.062
 3669WAT     H211250   3.168   1.972   3.186
 3670WAT      O11251   4.953   1.336   0.437
 3670WAT     H111252   4.899   1.263   0.478
 3670WAT     H211253   4.907   1.370   0.355
 3671WAT      O11254   7.593   3.146   6.998
 3671WAT     H111255   7.607   3.062   6.946
 3671WAT     H211256   7.673   3.205   6.988
 3672WAT      O11257   6.359   8.376   7.644
 3672WAT     H111258   6.384   8.470   7.667
 3672WAT     H211259   6.328   8.373   7.549
 3673WAT      O11260   0.104   1.263   4.765
 3673WAT     H111261   0.150   1.322   4.831
 3673WAT     H211262   0.012   1.242   4.797
 3674WAT      O11263   3.981   4.706   7.078
 3674WAT     H111264   4.010   4.801   7.065
 3674WAT     H211265   4.055   4.645   7.050
 3675WAT      O11266   2.356   1.743   6.381
 3675WAT     H111267   2.298   1.716   6.458
 3675WAT     H211268   2.299   1.768   6.303
 3676WAT      O11269   6.558   4.023   8.572
 3676WAT     H111270   6.470   4.028   8.525
 3676WAT     H211271   6.632   4.034   8.506
 3677WAT      O11272   0.489   1.557   1.923
 3677WAT     H111273   0.411   1.497   1.907
 3677WAT     H211274   0.471   1.647   1.883
 3678WAT      O11275   9.803   0.185   7.635
 3678WAT     H111276   9.851   0.100   7.617
 3678WAT     H211277   9.717   0.187   7.583
 3679WAT      O11278   6.895   1.641   4.991
 3679WAT     H111279   6.994   1.644   4.981
 3679WAT     H211280   6.865   1.546   4.994
 3680WAT      O11281   3.433   4.745   0.726
 3680WAT     H111282   3.527   4.733   0.696
 3680WAT     H211283   3.404   4.667   0.781
 3681WAT      O11284   8.262   8.572   5.024
 3681WAT     H111285   8.263   8.610   5.117
 3681WAT     H211286   8.311   8.633   4.963
 3682WAT      O11287   5.214   0.288   7.829
 3682WAT     H111288   5.260   0.275   7.742
 3682WAT     H211289   5.279   0.272   7.904
 3683WAT      O11290   8.409   9.540   5.748
 3683WAT     H111291   8.382   9.636   5.759
 3683WAT     H211292   8.359   9.484   5.815
 3684WAT      O11293   4.500   5.351   0.779
 3684WAT     H111294   4.404   5.369   0.759
 3684WAT     H211295   4.510   5.255   0.806
 3685WAT      O11296   1.929   2.340   0.185
 3685WAT     H111297   1.843   2.391   0.185
 3685WAT     H211298   2.003   2.400   0.154
 3686WAT      O11299   9.003   6.711   9.406
 3686WAT     H111300   9.041   6.681   9.493
 3686WAT     H211301   9.003   6.635   9.341
 3687WAT      O11302   7.396   5.918   8.742
 3687WAT     H111303   7.470   5.983   8.762
 3687WAT     H211304   7.409   5.835   8.797
 3688WAT      O11305   8.023   0.153   2.702
 3688WAT     H111306   8.114   0.154   2.744
 3688WAT     H211307   8.026   0.198   2.613
 3689WAT      O11308   3.355   0.540   5.355
 3689WAT     H111309   3.301   0.608   5.404
 3689WAT     H211310   3.345   0.554   5.256
 3690WAT      O11311   0.167   5.448   6.955
 3690WAT     H111312   0.152   5.372   6.892
 3690WAT     H211313   0.247   5.429   7.012
 3691WAT      O11314   7.779   4.235   2.934
 3691WAT     H111315   7.858   4.190   2.976
 3691WAT     H211316   7.807   4.321   2.893
 3692WAT      O11317   4.624   7.900   8.596
 3692WAT     H111318   4.565   7.898   8.515
 3692WAT     H211319   4.672   7.813   8.605
 3693WAT      O11320   9.509   5.714   7.226
 3693WAT     H111321   9.453   5.729   7.307
 3693WAT     H211322   9.591   5.770   7.231
 3694WAT      O11323   3.239   2.193   6.950
 3694WAT     H111324   3.241   2.118   6.884
 3694WAT     H211325   3.144   2.215   6.973
 3695WAT      O11326   4.074   6.171   6.142
 3695WAT     H111327   4.021   6.227   6.205
 3695WAT     H211328   4.138   6.229   6.092
 3696WAT      O11329   7.136   7.759   0.296
 3696WAT     H111330   7.101   7.666   0.309
 3696WAT     H211331   7.158   7.798   0.386
 3697WAT      O11332   7.971   7.407   3.154
 3697WAT     H111333   8.044   7.378   3.093
 3697WAT     H211334   7.951   7.504   3.139
 3698WAT      O11335   1.072   4.851   3.244
 3698WAT     H111336   1.011   4.907   3.300
 3698WAT     H211337   1.126   4.910   3.184
 3699WAT      O11338   0.319   6.339   1.351
 3699WAT     H111339   0.237   6.384   1.387
 3699WAT     H211340   0.376   6.407   1.305
 3700WAT      O11341   0.105   6.546   5.502
 3700WAT     H111342   0.188   6.567   5.553
 3700WAT     H211343   0.113   6.582   5.409
 3701WAT      O11344   8.826   1.173   2.863
 3701WAT     H111345   8.785   1.083   2.873
 3701WAT     H211346   8.754   1.243   2.854
 3702WAT      O11347   9.734   6.418   3.657
 3702WAT     H111348   9.734   6.503   3.605
 3702WAT     H211349   9.740   6.439   3.755
 3703WAT      O11350   6.600   4.975   3.718
 3703WAT     H111351   6.536   4.997   3.791
 3703WAT     H211352   6.689   4.951   3.757
 3704WAT      O11353   1.001   3.506   9.377
 3704WAT     H111354   1.000   3.412   9.411
 3704WAT     H211355   1.093   3.542   9.382
 3705WAT      O11356   5.487   0.453   1.540
 3705WAT     H111357   5.442   0.542   1.549
 3705WAT     H211358   5.421   0.385   1.510
 3706WAT      O11359   3.401   7.977   2.039
 3706WAT     H111360   3.330   7.947   1.976
 3706WAT     H211361   3.388   8.074   2.060
 3707WAT      O11362   0.214   6.521   5.048
 3707WAT     H111363   0.264   6.604   5.025
 3707WAT     H211364   0.124   6.523   5.003
 3708WAT      O11365   7.555   9.069   9.171
 3708WAT     H111366   7.590   9.144   9.115
 3708WAT     H211367   7.631   9.014   9.204
 3709WAT      O11368   7.409   2.492   1.316
 3709WAT     H111369   7.501   2.477   1.281
 3709WAT     H211370   7.342   2.447   1.257
 3710WAT      O11371   0.106   1.061   2.800
 3710WAT     H111372   0.033   0.994   2.810
 3710WAT     H211373   0.179   1.022   2.744
 3711WAT      O11374   8.309   0.038   8.885
 3711WAT     H111375   8.331   0.127   8.925
 3711WAT     H211376   8.264  -0.019   8.953
 3712WAT      O11377   4.004   1.745   1.621
 3712WAT     H111378   4.054   1.807   1.682
 3712WAT     H211379   4.020   1.650   1.651
 3713WAT      O11380   1.305   9.337   1.071
 3713WAT     H111381   1.233   9.318   1.005
 3713WAT     H211382   1.389   9.289   1.044
 3714WAT      O11383   8.157   9.739   1.674
 3714WAT     H111384   8.136   9.832   1.643
 3714WAT     H211385   8.180   9.741   1.771
 3715WAT      O11386   7.810   7.844   9.159
 3715WAT     H111387   7.875   7.795   9.217
 3715WAT     H211388   7.719   7.806   9.172
 3716WAT      O11389   5.889   8.096   1.398
 3716WAT     H111390   5.874   8.192   1.373
 3716WAT     H211391   5.942   8.092   1.483
 3717WAT      O11392   0.960   7.560   5.576
 3717WAT     H111393   0.993   7.535   5.485
 3717WAT     H211394   0.922   7.653   5.573
 3718WAT      O11395   5.171   8.030   8.196
 3718WAT     H111396   5.100   8.090   8.160
 3718WAT     H211397   5.131   7.968   8.264
 3719WAT      O11398   4.206   3.243   8.603
 3719WAT     H111399   4.204   3.209   8.509
 3719WAT     H211400   4.216   3.166   8.666
 3720WAT      O11401   4.170   2.914   0.509
 3720WAT     H111402   4.085   2.952   0.545
 3720WAT     H211403   4.162   2.899   0.411
 3721WAT      O11404   9.186   1.902   8.763
 3721WAT     H111405   9.210   1.805   8.755
 3721WAT     H211406   9.159   1.922   8.857
 3722WAT      O11407   2.822   6.319   6.303
 3722WAT     H111408   2.771   6.236   6.286
 3722WAT     H211409   2.788   6.393   6.245
 3723WAT      O11410   2.420   7.145   4.783
 3723WAT     H111411   2.347   7.079   4.768
 3723WAT     H211412   2.404   7.225   4.725
 3724WAT      O11413   7.642   9.359   3.399
 3724WAT     H111414   7.644   9.315   3.309
 3724WAT     H211415   7.553   9.403   3.412
 3725WAT      O11416   2.896   1.172   2.787
 3725WAT     H111417   2.918   1.086   2.743
 3725WAT     H211418   2.899   1.246   2.720
 3726WAT      O11419   9.569   5.679   1.570
 3726WAT     H111420   9.540   5.619   1.645
 3726WAT     H211421   9.488   5.716   1.525
 3727WAT      O11422   5.889   5.126   9.764
 3727WAT     H111423   5.825   5.091   9.832
 3727WAT     H211424   5.923   5.216   9.794
 3728WAT      O11425   5.543   4.602   1.579
 3728WAT     H111426   5.594   4.627   1.662
 3728WAT     H211427   5.485   4.523   1.598
 3729WAT      O11428   4.222   5.482   4.419
 3729WAT     H111429   4.184   5.472   4.327
 3729WAT     H211430   4.197   5.402   4.474
 3730WAT      O11431   6.896   9.024   7.362
 3730WAT     H111432   6.935   8.966   7.433
 3730WAT     H211433   6.830   9.088   7.402
 3731WAT      O11434   8.102   8.459   0.494
 3731WAT     H111435   8.067   8.485   0.405
 3731WAT     H211436   8.027   8.425   0.551
 3732WAT      O11437   2.618   1.555   6.772
 3732WAT     H111438   2.681   1.479   6.786
 3732WAT     H211439   2.540   1.524   6.717
 3733WAT      O11440   8.036   2.676   3.319
 3733WAT     H111441   8.009   2.720   3.233
 3733WAT     H211442   7.957   2.632   3.360
 3734WAT      O11443   7.636   2.525   6.028
 3734WAT     H111444   7.665   2.430   6.016
 3734WAT     H211445   7.548   2.527   6.075
 3735WAT      O11446   3.178   5.319   9.545
 3735WAT     H111447   3.139   5.347   9.633
 3735WAT     H211448   3.190   5.400   9.488
 3736WAT      O11449   7.425   7.028   8.948
 3736WAT     H111450   7.353   7.098   8.938
 3736WAT     H211451   7.383   6.943   8.980
 3737WAT      O11452   0.714   0.935   0.773
 3737WAT     H111453   0.801   0.971   0.739
 3737WAT     H211454   0.731   0.873   0.849
 3738WAT      O11455   5.657   4.788   3.449
 3738WAT     H111456   5.595   4.867   3.448
 3738WAT     H211457   5.610   4.710   3.491
 3739WAT      O11458   0.885   0.038   1.475
 3739WAT     H111459   0.852   0.104   1.543
 3739WAT     H211460   0.813   0.024   1.407
 3740WAT      O11461   5.877   2.503   0.153
 3740WAT     H111462   5.795   2.556   0.176
 3740WAT     H211463   5.895   2.511   0.055
 3741WAT      O11464   6.142   7.763   8.150
 3741WAT     H111465   6.111   7.673   8.120
 3741WAT     H211466   6.102   7.783   8.240
 3742WAT      O11467   9.848   9.727   0.971
 3742WAT     H111468   9.872   9.688   1.060
 3742WAT     H211469   9.866   9.660   0.899
 3743WAT      O11470   1.985   8.983   5.071
 3743WAT     H111471   1.925   8.907   5.045
 3743WAT     H211472   2.036   9.015   4.992
 3744WAT      O11473   9.396   3.811   6.094
 3744WAT     H111474   9.392   3.907   6.066
 3744WAT     H211475   9.452   3.759   6.030
 3745WAT      O11476   7.858   4.446   6.767
 3745WAT     H111477   7.862   4.458   6.866
 3745WAT     H211478   7.801   4.519   6.728
 3746WAT      O11479   9.111   3.329   3.771
 3746WAT     H111480   9.030   3.346   3.714
 3746WAT     H211481   9.123   3.231   3.783
 3747WAT      O11482   4.889   7.899   5.895
 3747WAT     H111483   4.974   7.946   5.920
 3747WAT     H211484   4.910   7.819   5.840
 3748WAT      O11485   9.297   8.960   0.313
 3748WAT     H111486   9.316   8.943   0.217
 3748WAT     H211487   9.281   9.058   0.327
 3749WAT      O11488   8.856   8.079   3.931
 3749WAT     H111489   8.769   8.116   3.964
 3749WAT     H211490   8.907   8.040   4.008
 3750WAT      O11491   3.249   0.217   5.096
 3750WAT     H111492   3.218   0.137   5.148
 3750WAT     H211493   3.189   0.294   5.116
 3751WAT      O11494   1.002   8.557   0.572
 3751WAT     H111495   0.954   8.642   0.549
 3751WAT     H211496   0.940   8.480   0.561
 3752WAT      O11497   9.245   9.358   5.934
 3752WAT     H111498   9.256   9.330   6.029
 3752WAT     H211499   9.297   9.441   5.917
 3753WAT      O11500   8.743   0.144   9.114
 3753WAT     H111501   8.669   0.078   9.111
 3753WAT     H211502   8.708   0.234   9.088
 3754WAT      O11503   8.429   6.395   3.055
 3754WAT     H111504   8.483   6.338   3.116
 3754WAT     H211505   8.387   6.469   3.107
 3755WAT      O11506   1.043   1.724   8.459
 3755WAT     H111507   1.100   1.668   8.399
 3755WAT     H211508   0.974   1.666   8.503
 3756WAT      O11509   4.737   0.565   0.824
 3756WAT     H111510   4.809   0.631   0.805
 3756WAT     H211511   4.737   0.494   0.753
 3757WAT      O11512   1.271   4.871   4.873
 3757WAT     H111513   1.368   4.882   4.890
 3757WAT     H211514   1.241   4.938   4.805
 3758WAT      O11515   1.562   6.855   6.085
 3758WAT     H111516   1.640   6.816   6.133
 3758WAT     H211517   1.502   6.782   6.053
 3759WAT      O11518   1.875   7.801   3.362
 3759WAT     H111519   1.867   7.702   3.374
 3759WAT     H211520   1.971   7.827   3.361
 3760WAT      O11521   0.367   0.600   4.086
 3760WAT     H111522   0.411   0.688   4.068
 3760WAT     H211523   0.421   0.527   4.045
 3761WAT      O11524   0.008   0.967   1.236
 3761WAT     H111525  -0.080   0.983   1.281
 3761WAT     H211526   0.056   1.054   1.225
 3762WAT      O11527   5.073   6.562   8.849
 3762WAT     H111528   4.985   6.567   8.801
 3762WAT     H211529   5.147   6.585   8.786
 3763WAT      O11530   0.499   9.252   3.827
 3763WAT     H111531   0.572   9.218   3.768
 3763WAT     H211532   0.525   9.341   3.864
 3764WAT      O11533   4.514   2.705   0.649
 3764WAT     H111534   4.592   2.757   0.614
 3764WAT     H211535   4.439   2.768   0.668
 3765WAT      O11536   2.036   3.098   9.312
 3765WAT     H111537   2.017   3.189   9.275
 3765WAT     H211538   2.115   3.059   9.265
 3766WAT      O11539   1.711   0.358   9.172
 3766WAT     H111540   1.762   0.276   9.146
 3766WAT     H211541   1.622   0.331   9.208
 3767WAT      O11542   2.928   2.115   8.125
 3767WAT     H111543   2.878   2.188   8.173
 3767WAT     H211544   2.867   2.070   8.060
 3768WAT      O11545   8.313   4.085   1.288
 3768WAT     H111546   8.241   4.026   1.323
 3768WAT     H211547   8.293   4.180   1.312
 3769WAT      O11548   5.817   2.585   5.340
 3769WAT     H111549   5.839   2.656   5.273
 3769WAT     H211550   5.870   2.600   5.423
 3770WAT      O11551   4.697   3.421   7.310
 3770WAT     H111552   4.669   3.517   7.307
 3770WAT     H211553   4.791   3.412   7.276
 3771WAT      O11554   3.365   0.179   9.735
 3771WAT     H111555   3.309   0.149   9.813
 3771WAT     H211556   3.349   0.120   9.657
 3772WAT      O11557   7.449   6.913   3.178
 3772WAT     H111558   7.405   6.905   3.267
 3772WAT     H211559   7.489   7.004   3.168
 3773WAT      O11560   7.348   4.339   7.437
 3773WAT     H111561   7.361   4.382   7.348
 3773WAT     H211562   7.335   4.241   7.426
 3774WAT      O11563   8.459   3.812   3.155
 3774WAT     H111564   8.460   3.736   3.090
 3774WAT     H211565   8.366   3.822   3.193
 3775WAT      O11566   5.244   4.266   1.947
 3775WAT     H111567   5.152   4.235   1.972
 3775WAT     H211568   5.302   4.187   1.927
 3776WAT      O11569   6.233   6.194   7.827
 3776WAT     H111570   6.161   6.257   7.799
 3776WAT     H211571   6.314   6.209   7.771
 3777WAT      O11572   7.442   1.874   0.047
 3777WAT     H111573   7.526   1.907   0.089
 3777WAT     H211574   7.463   1.801  -0.019
 3778WAT      O11575   8.745   8.215   7.360
 3778WAT     H111576   8.738   8.183   7.454
 3778WAT     H211577   8.667   8.273   7.337
 3779WAT      O11578   7.305   1.919   2.994
 3779WAT     H111579   7.290   1.835   2.942
 3779WAT     H211580   7.305   1.898   3.092
 3780WAT      O11581   3.489   6.708   4.824
 3780WAT     H111582   3.585   6.711   4.852
 3780WAT     H211583   3.432   6.684   4.903
 3781WAT      O11584   3.180   9.542   1.372
 3781WAT     H111585   3.148   9.516   1.281
 3781WAT     H211586   3.153   9.471   1.438
 3782WAT      O11587   3.423   2.434   8.806
 3782WAT     H111588   3.435   2.339   8.776
 3782WAT     H211589   3.339   2.471   8.766
 3783WAT      O11590   0.552   8.251   9.682
 3783WAT     H111591   0.453   8.244   9.675
 3783WAT     H211592   0.590   8.164   9.715
 3784WAT      O11593   1.754   3.868   8.696
 3784WAT     H111594   1.796   3.876   8.606
 3784WAT     H211595   1.668   3.819   8.689
 3785WAT      O11596   8.037   4.020   9.539
 3785WAT     H111597   8.087   4.078   9.603
 3785WAT     H211598   8.097   3.946   9.507
 3786WAT      O11599   2.878   0.940   6.952
 3786WAT     H111600   2.933   0.884   7.014
 3786WAT     H211601   2.935   0.972   6.877
 3787WAT      O11602   2.289   4.432   5.256
 3787WAT     H111603   2.202   4.400   5.293
 3787WAT     H211604   2.329   4.499   5.318
 3788WAT      O11605   9.136   4.274   4.710
 3788WAT     H111606   9.149   4.280   4.611
 3788WAT     H211607   9.051   4.226   4.730
 3789WAT      O11608   2.615   0.655   7.913
 3789WAT     H111609   2.696   0.633   7.968
 3789WAT     H211610   2.632   0.631   7.818
 3790WAT      O11611   2.638   5.054   6.296
 3790WAT     H111612   2.546   5.053   6.337
 3790WAT     H211613   2.692   5.127   6.338
 3791WAT      O11614   9.125   7.756   9.846
 3791WAT     H111615   9.030   7.783   9.863
 3791WAT     H211616   9.169   7.826   9.789
 3792WAT      O11617   8.427   2.737   6.453
 3792WAT     H111618   8.467   2.691   6.532
 3792WAT     H211619   8.329   2.720   6.450
 3793WAT      O11620   0.599   8.560   3.370
 3793WAT     H111621   0.575   8.558   3.467
 3793WAT     H211622   0.687   8.606   3.359
 3794WAT      O11623   8.334   9.271   3.422
 3794WAT     H111624   8.238   9.288   3.400
 3794WAT     H211625   8.341   9.241   3.517
 3795WAT      O11626   4.694   8.682   7.736
 3795WAT     H111627   4.631   8.617   7.779
 3795WAT     H211628   4.645   8.736   7.667
 3796WAT      O11629   1.162   7.665   6.169
 3796WAT     H111630   1.233   7.695   6.106
 3796WAT     H211631   1.083   7.632   6.117
 3797WAT      O11632   6.563   5.713   5.012
 3797WAT     H111633   6.643   5.695   4.956
 3797WAT     H211634   6.536   5.630   5.060
 3798WAT      O11635   0.096   5.104   0.815
 3798WAT     H111636   0.014   5.050   0.835
 3798WAT     H211637   0.148   5.060   0.742
 3799WAT      O11638   8.330   3.404   4.094
 3799WAT     H111639   8.261   3.351   4.144
 3799WAT     H211640   8.414   3.409   4.148
 3800WAT      O11641   9.836   4.903   0.462
 3800WAT     H111642   9.801   4.908   0.368
 3800WAT     H211643   9.761   4.885   0.525
 3801WAT      O11644   2.676   2.080   7.178
 3801WAT     H111645   2.753   2.031   7.136
 3801WAT     H211646   2.686   2.077   7.277
 3802WAT      O11647   3.590   1.555   0.827
 3802WAT     H111648   3.566   1.459   0.839
 3802WAT     H211649   3.586   1.602   0.915
 3803WAT      O11650   3.764   7.519   1.290
 3803WAT     H111651   3.697   7.531   1.363
 3803WAT     H211652   3.793   7.423   1.288
 3804WAT      O11653   7.464   0.584   5.115
 3804WAT     H111654   7.549   0.533   5.105
 3804WAT     H211655   7.455   0.648   5.038
 3805WAT      O11656   2.761   2.736   5.297
 3805WAT     H111657   2.753   2.696   5.206
 3805WAT     H211658   2.815   2.676   5.356
 3806WAT      O11659   3.070   1.424   3.457
 3806WAT     H111660   3.015   1.361   3.512
 3806WAT     H211661   3.030   1.515   3.460
 3807WAT      O11662   4.311   6.383   3.800
 3807WAT     H111663   4.331   6.362   3.704
 3807WAT     H211664   4.393   6.418   3.844
 3808WAT      O11665   4.262   2.111   9.822
 3808WAT     H111666   4.236   2.071   9.910
 3808WAT     H211667   4.192   2.176   9.793
 3809WAT      O11668   3.804   3.515   8.440
 3809WAT     H111669   3.895   3.487   8.472
 3809WAT     H211670   3.739   3.441   8.457
 3810WAT      O11671   7.959   2.266   4.620
 3810WAT     H111672   7.995   2.248   4.711
 3810WAT     H211673   7.968   2.363   4.598
 3811WAT      O11674   4.656   9.293   4.901
 3811WAT     H111675   4.676   9.387   4.931
 3811WAT     H211676   4.594   9.295   4.824
 3812WAT      O11677   5.750   9.724   2.155
 3812WAT     H111678   5.827   9.685   2.105
 3812WAT     H211679   5.698   9.784   2.095
 3813WAT      O11680   4.001   4.919   2.070
 3813WAT     H111681   4.055   4.844   2.110
 3813WAT     H211682   4.062   4.979   2.018
 3814WAT      O11683   1.195   6.001   3.274
 3814WAT     H111684   1.217   5.905   3.254
 3814WAT     H211685   1.224   6.023   3.367
 3815WAT      O11686   2.738   5.278   6.757
 3815WAT     H111687   2.728   5.268   6.856
 3815WAT     H211688   2.657   5.321   6.719
 3816WAT      O11689   4.204   1.801   2.190
 3816WAT     H111690   4.174   1.887   2.230
 3816WAT     H211691   4.146   1.779   2.111
 3817WAT      O11692   7.204   1.694   1.453
 3817WAT     H111693   7.279   1.715   1.515
 3817WAT     H211694   7.230   1.619   1.393
 3818WAT      O11695   2.340   3.029   5.774
 3818WAT     H111696   2.383   2.957   5.720
 3818WAT     H211697   2.322   2.995   5.867
 3819WAT      O11698   7.501   4.025   5.269
 3819WAT     H111699   7.444   4.082   5.329
 3819WAT     H211700   7.573   3.982   5.322
 3820WAT      O11701   2.115   5.232   5.182
 3820WAT     H111702   2.161   5.178   5.253
 3820WAT     H211703   2.184   5.272   5.122
 3821WAT      O11704   5.770   8.435   5.735
 3821WAT     H111705   5.833   8.462   5.662
 3821WAT     H211706   5.714   8.513   5.763
 3822WAT      O11707   0.851   4.418   0.089
 3822WAT     H111708   0.789   4.349   0.051
 3822WAT     H211709   0.801   4.503   0.106
 3823WAT      O11710   2.866   6.353   8.258
 3823WAT     H111711   2.918   6.279   8.214
 3823WAT     H211712   2.858   6.430   8.196
 3824WAT      O11713   4.584   0.346   3.671
 3824WAT     H111714   4.622   0.257   3.693
 3824WAT     H211715   4.509   0.335   3.605
 3825WAT      O11716   4.805   2.123   5.386
 3825WAT     H111717   4.737   2.188   5.352
 3825WAT     H211718   4.865   2.095   5.311
 3826WAT      O11719   3.891   1.856   2.453
 3826WAT     H111720   3.981   1.871   2.495
 3826WAT     H211721   3.873   1.929   2.387
 3827WAT      O11722   9.647   3.062   2.332
 3827WAT     H111723   9.660   3.156   2.362
 3827WAT     H211724   9.574   3.058   2.263
 3828WAT      O11725   6.305   2.631   4.144
 3828WAT     H111726   6.240   2.699   4.177
 3828WAT     H211727   6.391   2.641   4.195
 3829WAT      O11728   2.354   6.235   5.096
 3829WAT     H111729   2.276   6.199   5.148
 3829WAT     H211730   2.374   6.173   5.019
 3830WAT      O11731   7.286   7.103   6.341
 3830WAT     H111732   7.306   7.133   6.434
 3830WAT     H211733   7.345   7.152   6.276
 3831WAT      O11734   7.347   9.553   2.325
 3831WAT     H111735   7.294   9.481   2.281
 3831WAT     H211736   7.317   9.563   2.420
 3832WAT      O11737   9.210   9.018   1.154
 3832WAT     H111738   9.162   9.070   1.083
 3832WAT     H211739   9.309   9.031   1.145
 3833WAT      O11740   3.477   0.484   4.802
 3833WAT     H111741   3.469   0.463   4.899
 3833WAT     H211742   3.475   0.583   4.788
 3834WAT      O11743   9.149   3.339   4.600
 3834WAT     H111744   9.139   3.248   4.640
 3834WAT     H211745   9.202   3.397   4.662
 3835WAT      O11746   4.064   3.814   3.563
 3835WAT     H111747   4.079   3.863   3.649
 3835WAT     H211748   4.101   3.722   3.570
 3836WAT      O11749   8.817   5.770   5.155
 3836WAT     H111750   8.746   5.724   5.208
 3836WAT     H211751   8.904   5.768   5.205
 3837WAT      O11752   6.545   0.949   0.045
 3837WAT     H111753   6.592   0.865   0.072
 3837WAT     H211754   6.447   0.940   0.062
 3838WAT      O11755   3.956   9.504   8.031
 3838WAT     H111756   3.948   9.485   7.933
 3838WAT     H211757   4.052   9.513   8.056
 3839WAT      O11758   9.455   0.983   4.906
 3839WAT     H111759   9.443   0.976   4.807
 3839WAT     H211760   9.375   0.944   4.952
 3840WAT      O11761   1.225   6.715   9.509
 3840WAT     H111762   1.311   6.766   9.508
 3840WAT     H211763   1.205   6.682   9.417
 3841WAT      O11764   9.622   4.860   0.615
 3841WAT     H111765   9.619   4.760   0.619
 3841WAT     H211766   9.542   4.894   0.565
 3842WAT      O11767   1.233   7.376   5.430
 3842WAT     H111768   1.304   7.320   5.386
 3842WAT     H211769   1.156   7.387   5.368
 3843WAT      O11770   6.348   9.584   3.839
 3843WAT     H111771   6.284   9.520   3.796
 3843WAT     H211772   6.365   9.555   3.934
 3844WAT      O11773   8.436   4.592   4.589
 3844WAT     H111774   8.456   4.534   4.668
 3844WAT     H211775   8.513   4.589   4.526
 3845WAT      O11776   7.102   5.877   9.234
 3845WAT     H111777   7.138   5.815   9.165
 3845WAT     H211778   7.172   5.895   9.303
 3846WAT      O11779   4.790   6.349   2.544
 3846WAT     H111780   4.762   6.440   2.512
 3846WAT     H211781   4.721   6.282   2.520
 3847WAT      O11782   0.419   1.727   3.423
 3847WAT     H111783   0.359   1.656   3.459
 3847WAT     H211784   0.466   1.692   3.342
 3848WAT      O11785   4.376   3.558   9.445
 3848WAT     H111786   4.279   3.580   9.433
 3848WAT     H211787   4.417   3.621   9.511
 3849WAT      O11788   2.114   6.416   1.680
 3849WAT     H111789   2.047   6.358   1.632
 3849WAT     H211790   2.066   6.473   1.746
 3850WAT      O11791   5.459   9.601   7.061
 3850WAT     H111792   5.503   9.526   7.111
 3850WAT     H211793   5.439   9.572   6.968
 3851WAT      O11794   7.135   0.268   3.426
 3851WAT     H111795   7.216   0.327   3.429
 3851WAT     H211796   7.053   0.323   3.411
 3852WAT      O11797   3.462   0.066   7.418
 3852WAT     H111798   3.385   0.011   7.450
 3852WAT     H211799   3.435   0.116   7.336
 3853WAT      O11800   7.467   6.395   2.477
 3853WAT     H111801   7.464   6.317   2.541
 3853WAT     H211802   7.515   6.367   2.394
 3854WAT      O11803   6.107   2.679   7.462
 3854WAT     H111804   6.190   2.645   7.418
 3854WAT     H211805   6.121   2.773   7.494
 3855WAT      O11806   3.321   4.769   0.453
 3855WAT     H111807   3.327   4.743   0.549
 3855WAT     H211808   3.296   4.866   0.446
 3856WAT      O11809   5.547   1.878   7.151
 3856WAT     H111810   5.529   1.832   7.238
 3856WAT     H211811   5.507   1.969   7.152
 3857WAT      O11812   2.289   1.346   2.322
 3857WAT     H111813   2.199   1.385   2.301
 3857WAT     H211814   2.279   1.247   2.336
 3858WAT      O11815   1.444   7.756   6.604
 3858WAT     H111816   1.428   7.707   6.518
 3858WAT     H211817   1.510   7.829   6.590
 3859WAT      O11818   3.671   8.035   2.728
 3859WAT     H111819   3.616   8.113   2.758
 3859WAT     H211820   3.658   7.958   2.792
 3860WAT      O11821   9.335   2.268   1.756
 3860WAT     H111822   9.282   2.192   1.794
 3860WAT     H211823   9.429   2.263   1.790
 3861WAT      O11824   5.847   0.892   4.996
 3861WAT     H111825   5.816   0.979   4.956
 3861WAT     H211826   5.855   0.824   4.923
 3862WAT      O11827   1.273   6.333   7.063
 3862WAT     H111828   1.248   6.429   7.076
 3862WAT     H211829   1.309   6.321   6.970
 3863WAT      O11830   2.990   5.828   3.051
 3863WAT     H111831   3.079   5.791   3.024
 3863WAT     H211832   2.929   5.752   3.073
 3864WAT      O11833   6.621   8.294   0.232
 3864WAT     H111834   6.655   8.212   0.277
 3864WAT     H211835   6.669   8.306   0.145
 3865WAT      O11836   4.806   2.390   5.548
 3865WAT     H111837   4.779   2.329   5.622
 3865WAT     H211838   4.781   2.484   5.569
 3866WAT      O11839   6.066   7.074   6.747
 3866WAT     H111840   6.122   7.143   6.701
 3866WAT     H211841   6.015   7.117   6.822
 3867WAT      O11842   7.139   0.640   4.421
 3867WAT     H111843   7.118   0.598   4.332
 3867WAT     H211844   7.236   0.660   4.427
 3868WAT      O11845   0.809   4.984   9.005
 3868WAT     H111846   0.847   5.075   9.021
 3868WAT     H211847   0.835   4.952   8.914
 3869WAT      O11848   6.185   7.652   5.146
 3869WAT     H111849   6.196   7.739   5.097
 3869WAT     H211850   6.151   7.583   5.083
 3870WAT      O11851   3.738   0.608   2.423
 3870WAT     H111852   3.713   0.550   2.346
 3870WAT     H211853   3.710   0.564   2.508
 3871WAT      O11854   7.247   0.425   1.241
 3871WAT     H111855   7.318   0.451   1.306
 3871WAT     H211856   7.288   0.378   1.163
 3872WAT      O11857   0.872   3.372   3.724
 3872WAT     H111858   0.917   3.330   3.645
 3872WAT     H211859   0.924   3.352   3.807
 3873WAT      O11860   2.293   4.377   9.817
 3873WAT     H111861   2.213   4.419   9.859
 3873WAT     H211862   2.376   4.416   9.857
 3874WAT      O11863   1.908   7.573   4.761
 3874WAT     H111864   1.932   7.553   4.856
 3874WAT     H211865   1.809   7.568   4.750
 3875WAT      O11866   7.506   1.458   1.478
 3875WAT     H111867   7.468   1.439   1.387
 3875WAT     H211868   7.459   1.401   1.546
 3876WAT      O11869   0.137   0.747   7.058
 3876WAT     H111870   0.201   0.676   7.089
 3876WAT     H211871   0.189   0.829   7.033
 3877WAT      O11872   7.288   6.023   6.028
 3877WAT     H111873   7.381   5.988   6.046
 3877WAT     H211874   7.240   6.034   6.114
 3878WAT      O11875   5.908   4.203   1.922
 3878WAT     H111876   5.949   4.294   1.923
 3878WAT     H211877   5.810   4.211   1.901
 3879WAT      O11878   4.677   6.617   7.464
 3879WAT     H111879   4.685   6.542   7.399
 3879WAT     H211880   4.583   6.653   7.462
 3880WAT      O11881   6.901   8.470   5.866
 3880WAT     H111882   6.886   8.375   5.894
 3880WAT     H211883   6.855   8.486   5.779
 3881WAT      O11884   7.515   8.827   2.718
 3881WAT     H111885   7.587   8.871   2.772
 3881WAT     H211886   7.484   8.889   2.646
 3882WAT      O11887   7.803   9.150   0.381
 3882WAT     H111888   7.803   9.109   0.472
 3882WAT     H211889   7.776   9.081   0.314
 3883WAT      O11890   8.137   9.521   0.632
 3883WAT     H111891   8.172   9.457   0.700
 3883WAT     H211892   8.206   9.590   0.613
 3884WAT      O11893   8.759   7.902   5.443
 3884WAT     H111894   8.810   7.828   5.486
 3884WAT     H211895   8.681   7.864   5.393
 3885WAT      O11896   8.560   0.327   4.906
 3885WAT     H111897   8.624   0.381   4.961
 3885WAT     H211898   8.550   0.236   4.946
 3886WAT      O11899   0.410   9.172   9.136
 3886WAT     H111900   0.468   9.104   9.092
 3886WAT     H211901   0.415   9.162   9.235
 3887WAT      O11902   1.046   6.578   8.852
 3887WAT     H111903   1.076   6.556   8.759
 3887WAT     H211904   1.072   6.503   8.913
 3888WAT      O11905   0.923   6.774   4.100
 3888WAT     H111906   0.873   6.688   4.110
 3888WAT     H211907   0.860   6.851   4.115
 3889WAT      O11908   7.309   7.807   5.411
 3889WAT     H111909   7.263   7.790   5.498
 3889WAT     H211910   7.376   7.734   5.394
 3890WAT      O11911   3.083   5.665   6.515
 3890WAT     H111912   3.016   5.712   6.572
 3890WAT     H211913   3.035   5.609   6.447
 3891WAT      O11914   9.857   3.442   4.344
 3891WAT     H111915   9.894   3.353   4.370
 3891WAT     H211916   9.931   3.499   4.309
 3892WAT      O11917   0.285   5.759   2.122
 3892WAT     H111918   0.337   5.732   2.040
 3892WAT     H211919   0.302   5.692   2.194
 3893WAT      O11920   3.048   3.302   9.171
 3893WAT     H111921   2.952   3.285   9.152
 3893WAT     H211922   3.064   3.297   9.270
 3894WAT      O11923   0.725   5.527   4.262
 3894WAT     H111924   0.771   5.562   4.180
 3894WAT     H211925   0.627   5.541   4.253
 3895WAT      O11926   7.423   0.360   8.897
 3895WAT     H111927   7.473   0.443   8.871
 3895WAT     H211928   7.331   0.363   8.858
 3896WAT      O11929   0.041   8.516   5.309
 3896WAT     H111930   0.032   8.446   5.238
 3896WAT     H211931   0.119   8.493   5.367
 3897WAT      O11932   1.833   3.835   4.557
 3897WAT     H111933   1.849   3.740   4.583
 3897WAT     H211934   1.914   3.890   4.578
 3898WAT      O11935   6.856   0.020   8.105
 3898WAT     H111936   6.805   0.061   8.029
 3898WAT     H211937   6.925  -0.042   8.069
 3899WAT      O11938   6.024   7.989   9.735
 3899WAT     H111939   5.979   7.952   9.654
 3899WAT     H211940   6.116   8.020   9.711
 3900WAT      O11941   0.454   6.788   8.626
 3900WAT     H111942   0.395   6.854   8.672
 3900WAT     H211943   0.548   6.823   8.625
 3901WAT      O11944   8.643   7.976   6.897
 3901WAT     H111945   8.552   8.003   6.928
 3901WAT     H211946   8.644   7.877   6.878
 3902WAT      O11947   9.257   0.284   0.052
 3902WAT     H111948   9.203   0.246   0.127
 3902WAT     H211949   9.333   0.222   0.031
 3903WAT      O11950   7.569   3.952   2.961
 3903WAT     H111951   7.669   3.947   2.954
 3903WAT     H211952   7.539   4.046   2.944
 3904WAT      O11953   8.517   7.367   1.451
 3904WAT     H111954   8.487   7.447   1.399
 3904WAT     H211955   8.613   7.347   1.429
 3905WAT      O11956   1.165   1.664   4.614
 3905WAT     H111957   1.234   1.604   4.656
 3905WAT     H211958   1.137   1.734   4.680
 3906WAT      O11959   3.750   6.738   8.611
 3906WAT     H111960   3.777   6.810   8.548
 3906WAT     H211961   3.789   6.757   8.702
 3907WAT      O11962   6.446   5.707   5.880
 3907WAT     H111963   6.501   5.703   5.963
 3907WAT     H211964   6.384   5.629   5.877
 3908WAT      O11965   2.594   5.920   6.795
 3908WAT     H111966   2.612   6.000   6.852
 3908WAT     H211967   2.602   5.946   6.698
 3909WAT      O11968   1.315   5.574   5.538
 3909WAT     H111969   1.397   5.617   5.500
 3909WAT     H211970   1.248   5.645   5.561
 3910WAT      O11971   7.487   6.760   4.972
 3910WAT     H111972   7.540   6.744   4.889
 3910WAT     H211973   7.505   6.687   5.038
 3911WAT      O11974   1.161   7.173   1.300
 3911WAT     H111975   1.160   7.263   1.258
 3911WAT     H211976   1.169   7.182   1.399
 3912WAT      O11977   3.670   9.170   0.763
 3912WAT     H111978   3.690   9.230   0.840
 3912WAT     H211979   3.650   9.224   0.682
 3913WAT      O11980   8.286   0.815   5.944
 3913WAT     H111981   8.373   0.812   5.895
 3913WAT     H211982   8.261   0.723   5.974
 3914WAT      O11983   5.668   1.681   0.783
 3914WAT     H111984   5.626   1.758   0.830
 3914WAT     H211985   5.600   1.633   0.728
 3915WAT      O11986   4.648   2.596   3.746
 3915WAT     H111987   4.689   2.625   3.659
 3915WAT     H211988   4.570   2.654   3.767
 3916WAT      O11989   1.845   6.590   9.249
 3916WAT     H111990   1.889   6.573   9.161
 3916WAT     H211991   1.892   6.540   9.321
 3917WAT      O11992   1.526   1.695   0.278
 3917WAT     H111993   1.472   1.611   0.281
 3917WAT     H211994   1.612   1.680   0.327
 3918WAT      O11995   2.037   5.188   9.236
 3918WAT     H111996   1.999   5.277   9.260
 3918WAT     H211997   2.134   5.184   9.261
 3919WAT      O11998   6.058   3.016   8.274
 3919WAT     H111999   6.145   3.047   8.311
 3919WAT     H212000   5.995   2.993   8.348
 3920WAT      O12001   6.052   7.938   2.818
 3920WAT     H112002   5.958   7.962   2.840
 3920WAT     H212003   6.079   7.983   2.732
 3921WAT      O12004   1.290   1.826   8.472
 3921WAT     H112005   1.196   1.793   8.481
 3921WAT     H212006   1.354   1.750   8.486
 3922WAT      O12007   0.949   0.629   0.495
 3922WAT     H112008   1.047   0.643   0.479
 3922WAT     H212009   0.935   0.544   0.546
 3923WAT      O12010   5.964   7.453   5.620
 3923WAT     H112011   5.970   7.442   5.720
 3923WAT     H212012   6.003   7.541   5.594
 3924WAT      O12013   2.615   0.382   2.744
 3924WAT     H112014   2.673   0.403   2.822
 3924WAT     H212015   2.541   0.449   2.738
 3925WAT      O12016   5.389   6.160   1.828
 3925WAT     H112017   5.341   6.107   1.898
 3925WAT     H212018   5.323   6.205   1.769
 3926WAT      O12019   6.921   3.814   5.195
 3926WAT     H112020   7.006   3.801   5.246
 3926WAT     H212021   6.856   3.865   5.250
 3927WAT      O12022   0.295   4.254   5.888
 3927WAT     H112023   0.260   4.245   5.795
 3927WAT     H212024   0.369   4.189   5.902
 3928WAT      O12025   4.621   7.239   1.990
 3928WAT     H112026   4.582   7.186   2.066
 3928WAT     H212027   4.664   7.177   1.924
 3929WAT      O12028   1.131   3.653   5.156
 3929WAT     H112029   1.227   3.674   5.135
 3929WAT     H212030   1.082   3.632   5.072
 3930WAT      O12031   8.209   1.568   8.584
 3930WAT     H112032   8.170   1.655   8.557
 3930WAT     H212033   8.185   1.498   8.517
 3931WAT      O12034   0.255   6.166   2.739
 3931WAT     H112035   0.245   6.202   2.646
 3931WAT     H212036   0.351   6.174   2.767
 3932WAT      O12037   4.558   5.749   8.121
 3932WAT     H112038   4.630   5.690   8.086
 3932WAT     H212039   4.552   5.740   8.221
 3933WAT      O12040   1.504   7.993   4.793
 3933WAT     H112041   1.476   7.913   4.740
 3933WAT     H212042   1.586   8.033   4.752
 3934WAT      O12043   3.049   3.283   2.259
 3934WAT     H112044   2.971   3.299   2.319
 3934WAT     H212045   3.016   3.253   2.169
 3935WAT      O12046   8.805   0.385   9.629
 3935WAT     H112047   8.774   0.383   9.534
 3935WAT     H212048   8.793   0.477   9.666
 3936WAT      O12049   7.081   3.306   5.880
 3936WAT     H112050   7.178   3.298   5.858
 3936WAT     H212051   7.068   3.293   5.979
 3937WAT      O12052   0.678   4.457   1.750
 3937WAT     H112053   0.644   4.545   1.783
 3937WAT     H212054   0.747   4.472   1.679
 3938WAT      O12055   0.239   4.426   3.482
 3938WAT     H112056   0.324   4.458   3.441
 3938WAT     H212057   0.161   4.460   3.430
 3939WAT      O12058   0.823   9.068   1.298
 3939WAT     H112059   0.883   9.039   1.373
 3939WAT     H212060   0.775   8.989   1.261
 3940WAT      O12061   4.712   0.955   3.074
 3940WAT     H112062   4.671   0.933   3.163
 3940WAT     H212063   4.692   1.050   3.052
 3941WAT      O12064   4.896   6.192   3.055
 3941WAT     H112065   4.846   6.145   3.128
 3941WAT     H212066   4.833   6.212   2.980
 3942WAT      O12067   0.330   6.505   4.147
 3942WAT     H112068   0.344   6.604   4.156
 3942WAT     H212069   0.235   6.482   4.168
 3943WAT      O12070   7.511   4.476   6.827
 3943WAT     H112071   7.435   4.464   6.764
 3943WAT     H212072   7.552   4.566   6.814
 3944WAT      O12073   2.521   4.543   8.056
 3944WAT     H112074   2.497   4.637   8.036
 3944WAT     H212075   2.556   4.536   8.150
 3945WAT      O12076   5.704   1.011   2.563
 3945WAT     H112077   5.689   1.002   2.464
 3945WAT     H212078   5.711   1.108   2.587
 3946WAT      O12079   8.919   6.190   3.474
 3946WAT     H112080   9.005   6.238   3.457
 3946WAT     H212081   8.853   6.214   3.402
 3947WAT      O12082   9.190   5.987   2.215
 3947WAT     H112083   9.208   5.899   2.261
 3947WAT     H212084   9.176   6.058   2.284
 3948WAT      O12085   8.122   1.067   5.289
 3948WAT     H112086   8.206   1.087   5.339
 3948WAT     H212087   8.099   0.971   5.302
 3949WAT      O12088   4.344   2.187   2.826
 3949WAT     H112089   4.391   2.109   2.868
 3949WAT     H212090   4.245   2.176   2.835
 3950WAT      O12091   1.333   3.096   7.446
 3950WAT     H112092   1.385   3.181   7.432
 3950WAT     H212093   1.293   3.068   7.359
 3951WAT      O12094   3.238   8.863   9.289
 3951WAT     H112095   3.266   8.956   9.313
 3951WAT     H212096   3.168   8.866   9.218
 3952WAT      O12097   9.851   8.880   9.622
 3952WAT     H112098   9.887   8.793   9.658
 3952WAT     H212099   9.770   8.906   9.674
 3953WAT      O12100   4.991   1.673   5.663
 3953WAT     H112101   4.892   1.667   5.673
 3953WAT     H212102   5.019   1.769   5.668
 3954WAT      O12103   7.207   5.307   8.249
 3954WAT     H112104   7.294   5.355   8.252
 3954WAT     H212105   7.187   5.280   8.154
 3955WAT      O12106   2.723   2.035   4.731
 3955WAT     H112107   2.671   1.971   4.787
 3955WAT     H212108   2.786   1.985   4.672
 3956WAT      O12109   4.421   3.408   4.507
 3956WAT     H112110   4.433   3.352   4.425
 3956WAT     H212111   4.341   3.375   4.558
 3957WAT      O12112   0.059   2.279   4.550
 3957WAT     H112113   0.081   2.202   4.610
 3957WAT     H212114   0.141   2.333   4.533
 3958WAT      O12115   8.353   2.101   8.293
 3958WAT     H112116   8.356   2.152   8.379
 3958WAT     H212117   8.278   2.134   8.236
 3959WAT      O12118   9.396   9.748   5.110
 3959WAT     H112119   9.471   9.805   5.143
 3959WAT     H212120   9.379   9.767   5.013
 3960WAT      O12121   3.242   0.052   0.441
 3960WAT     H112122   3.217   0.108   0.362
 3960WAT     H212123   3.263  -0.041   0.412
 3961WAT      O12124   0.355   0.716   3.659
 3961WAT     H112125   0.352   0.777   3.739
 3961WAT     H212126   0.285   0.745   3.594
 3962WAT      O12127   5.901   6.354   5.175
 3962WAT     H112128   5.907   6.380   5.272
 3962WAT     H212129   5.821   6.296   5.161
 3963WAT      O12130   1.179   8.079   6.180
 3963WAT     H112131   1.095   8.030   6.205
 3963WAT     H212132   1.245   8.072   6.255
 3964WAT      O12133   1.054   6.746   3.308
 3964WAT     H112134   1.035   6.653   3.276
 3964WAT     H212135   1.065   6.806   3.230
 3965WAT      O12136   0.217   4.590   4.182
 3965WAT     H112137   0.166   4.598   4.268
 3965WAT     H212138   0.287   4.519   4.192
 3966WAT      O12139   9.681   2.589   5.397
 3966WAT     H112140   9.644   2.667   5.447
 3966WAT     H212141   9.665   2.505   5.448
 3967WAT      O12142   8.090   2.466   9.318
 3967WAT     H112143   8.128   2.467   9.225
 3967WAT     H212144   8.063   2.373   9.343
 3968WAT      O12145   3.381   4.905   6.362
 3968WAT     H112146   3.386   4.954   6.449
 3968WAT     H212147   3.306   4.943   6.307
 3969WAT      O12148   9.019   9.366   5.219
 3969WAT     H112149   9.115   9.360   5.246
 3969WAT     H212150   9.006   9.323   5.130
 3970WAT      O12151   1.473   0.057   7.849
 3970WAT     H112152   1.568   0.043   7.876
 3970WAT     H212153   1.468   0.128   7.779
 3971WAT      O12154   1.291   6.043   3.530
 3971WAT     H112155   1.302   5.944   3.530
 3971WAT     H212156   1.249   6.072   3.616
 3972WAT      O12157   2.637   8.044   7.339
 3972WAT     H112158   2.558   8.092   7.301
 3972WAT     H212159   2.629   8.039   7.438
 3973WAT      O12160   0.433   0.133   0.699
 3973WAT     H112161   0.511   0.071   0.711
 3973WAT     H212162   0.455   0.201   0.629
 3974WAT      O12163   9.208   1.243   5.252
 3974WAT     H112164   9.117   1.263   5.216
 3974WAT     H212165   9.273   1.235   5.177
 3975WAT      O12166   0.991   5.685   7.544
 3975WAT     H112167   0.921   5.616   7.561
 3975WAT     H212168   0.958   5.774   7.576
 3976WAT      O12169   5.189   2.685   8.562
 3976WAT     H112170   5.158   2.619   8.493
 3976WAT     H212171   5.117   2.699   8.630
 3977WAT      O12172   2.687   0.778   7.032
 3977WAT     H112173   2.689   0.695   6.975
 3977WAT     H212174   2.759   0.840   7.002
 3978WAT      O12175   1.850   9.660   4.537
 3978WAT     H112176   1.835   9.563   4.514
 3978WAT     H212177   1.850   9.671   4.636
 3979WAT      O12178   6.942   9.574   3.461
 3979WAT     H112179   6.942   9.557   3.560
 3979WAT     H212180   6.852   9.608   3.433
 3980WAT      O12181   5.936   0.659   1.025
 3980WAT     H112182   5.911   0.661   0.928
 3980WAT     H212183   5.973   0.748   1.051
 3981WAT      O12184   0.311   9.426   7.496
 3981WAT     H112185   0.379   9.453   7.428
 3981WAT     H212186   0.259   9.348   7.461
 3982WAT      O12187   7.749   8.113   6.535
 3982WAT     H112188   7.750   8.072   6.626
 3982WAT     H212189   7.669   8.172   6.526
 3983WAT      O12190   4.485   2.542   4.458
 3983WAT     H112191   4.446   2.579   4.373
 3983WAT     H212192   4.506   2.445   4.445
 3984WAT      O12193   0.989   4.672   0.399
 3984WAT     H112194   0.954   4.718   0.481
 3984WAT     H212195   0.988   4.573   0.413
 3985WAT      O12196   2.741   5.724   4.348
 3985WAT     H112197   2.696   5.794   4.293
 3985WAT     H212198   2.724   5.741   4.445
 3986WAT      O12199   3.750   3.142   4.921
 3986WAT     H112200   3.650   3.148   4.928
 3986WAT     H212201   3.776   3.052   4.888
 3987WAT      O12202   8.489   2.327   5.840
 3987WAT     H112203   8.416   2.339   5.907
 3987WAT     H212204   8.484   2.236   5.800
 3988WAT      O12205   6.146   2.531   1.132
 3988WAT     H112206   6.183   2.622   1.152
 3988WAT     H212207   6.182   2.499   1.044
 3989WAT      O12208   2.115   0.257   0.837
 3989WAT     H112209   2.055   0.193   0.885
 3989WAT     H212210   2.104   0.349   0.877
 3990WAT      O12211   2.644   0.897   4.159
 3990WAT     H112212   2.738   0.866   4.148
 3990WAT     H212213   2.637   0.994   4.138
 3991WAT      O12214   2.124   1.617   4.151
 3991WAT     H112215   2.054   1.612   4.079
 3991WAT     H212216   2.210   1.580   4.116
 3992WAT      O12217   6.010   8.796   0.869
 3992WAT     H112218   5.930   8.749   0.833
 3992WAT     H212219   6.064   8.831   0.792
 3993WAT      O12220   1.589   1.826   1.539
 3993WAT     H112221   1.637   1.886   1.603
 3993WAT     H212222   1.504   1.870   1.510
 3994WAT      O12223   5.197   5.031   8.646
 3994WAT     H112224   5.212   5.129   8.655
 3994WAT     H212225   5.164   5.010   8.554
 3995WAT      O12226   1.992   1.031   6.984
 3995WAT     H112227   1.969   1.096   7.055
 3995WAT     H212228   1.935   0.949   6.992
 3996WAT      O12229   3.476   2.118   9.194
 3996WAT     H112230   3.466   2.044   9.127
 3996WAT     H212231   3.484   2.205   9.146
 3997WAT      O12232   0.194   1.646   6.842
 3997WAT     H112233   0.101   1.660   6.807
 3997WAT     H212234   0.204   1.553   6.875
 3998WAT      O12235   2.416   1.377   3.675
 3998WAT     H112236   2.321   1.386   3.644
 3998WAT     H212237   2.422   1.302   3.740
 3999WAT      O12238   2.308   0.729   0.967
 3999WAT     H112239   2.323   0.807   0.906
 3999WAT     H212240   2.256   0.759   1.047
 4000WAT      O12241   7.465   7.491   8.175
 4000WAT     H112242   7.388   7.435   8.206
 4000WAT     H212243   7.441   7.535   8.089
 4001WAT      O12244   2.343   2.746   7.857
 4001WAT     H112245   2.354   2.687   7.936
 4001WAT     H212246   2.431   2.788   7.834
 4002WAT      O12247   8.112   8.458   8.010
 4002WAT     H112248   8.029   8.480   8.059
 4002WAT     H212249   8.166   8.392   8.063
 4003WAT      O12250   0.597   2.713   4.608
 4003WAT     H112251   0.572   2.617   4.597
 4003WAT     H212252   0.680   2.732   4.557
 4004WAT      O12253   3.306   1.317   6.674
 4004WAT     H112254   3.329   1.375   6.596
 4004WAT     H212255   3.298   1.373   6.756
 4005WAT      O12256   1.707   0.817   8.417
 4005WAT     H112257   1.642   0.746   8.393
 4005WAT     H212258   1.797   0.776   8.436
 4006WAT      O12259   2.528   3.379   0.416
 4006WAT     H112260   2.463   3.451   0.394
 4006WAT     H212261   2.479   3.297   0.445
 4007WAT      O12262   2.101   1.419   2.093
 4007WAT     H112263   2.006   1.392   2.076
 4007WAT     H212264   2.105   1.517   2.109
 4008WAT      O12265   3.016   0.780   6.684
 4008WAT     H112266   3.063   0.859   6.722
 4008WAT     H212267   2.956   0.741   6.753
 4009WAT      O12268   1.711   0.201   6.540
 4009WAT     H112269   1.697   0.125   6.604
 4009WAT     H212270   1.804   0.236   6.550
 4010WAT      O12271   4.074   8.886   4.673
 4010WAT     H112272   3.982   8.847   4.666
 4010WAT     H212273   4.132   8.824   4.726
 4011WAT      O12274   3.267   3.916   6.128
 4011WAT     H112275   3.293   3.829   6.171
 4011WAT     H212276   3.188   3.954   6.176
 4012WAT      O12277   6.619   7.919   7.830
 4012WAT     H112278   6.527   7.955   7.817
 4012WAT     H212279   6.638   7.852   7.758
 4013WAT      O12280   4.515   8.786   6.269
 4013WAT     H112281   4.613   8.804   6.268
 4013WAT     H212282   4.495   8.705   6.214
 4014WAT      O12283   9.137   2.738   0.872
 4014WAT     H112284   9.229   2.699   0.869
 4014WAT     H212285   9.099   2.740   0.779
 4015WAT      O12286   2.173   5.471   0.222
 4015WAT     H112287   2.175   5.381   0.180
 4015WAT     H212288   2.078   5.501   0.233
 4016WAT      O12289   6.744   1.070   4.536
 4016WAT     H112290   6.655   1.115   4.544
 4016WAT     H212291   6.733   0.972   4.549
 4017WAT      O12292   6.166   2.924   6.730
 4017WAT     H112293   6.210   2.930   6.820
 4017WAT     H212294   6.138   2.829   6.713
 4018WAT      O12295   1.856   8.085   2.095
 4018WAT     H112296   1.794   8.007   2.086
 4018WAT     H212297   1.841   8.129   2.184
 4019WAT      O12298   9.351   6.239   1.387
 4019WAT     H112299   9.355   6.263   1.290
 4019WAT     H212300   9.267   6.275   1.427
 4020WAT      O12301   0.783   2.768   2.299
 4020WAT     H112302   0.751   2.673   2.294
 4020WAT     H212303   0.705   2.829   2.315
 4021WAT      O12304   5.387   3.276   2.083
 4021WAT     H112305   5.341   3.278   2.172
 4021WAT     H212306   5.358   3.355   2.028
 4022WAT      O12307   2.051   3.761   4.037
 4022WAT     H112308   1.954   3.757   4.061
 4022WAT     H212309   2.073   3.686   3.975
 4023WAT      O12310   0.470   0.942   4.801
 4023WAT     H112311   0.377   0.979   4.800
 4023WAT     H212312   0.531   1.007   4.846
 4024WAT      O12313   6.839   1.096   7.644
 4024WAT     H112314   6.843   1.157   7.565
 4024WAT     H212315   6.912   1.118   7.708
 4025WAT      O12316   3.468   1.939   3.862
 4025WAT     H112317   3.487   1.964   3.767
 4025WAT     H212318   3.371   1.918   3.872
 4026WAT      O12319   7.820   2.429   6.792
 4026WAT     H112320   7.855   2.335   6.790
 4026WAT     H212321   7.735   2.434   6.739
 4027WAT      O12322   2.131   2.746   9.839
 4027WAT     H112323   2.200   2.750   9.767
 4027WAT     H212324   2.043   2.777   9.803
 4028WAT      O12325   0.347   1.852   6.828
 4028WAT     H112326   0.381   1.879   6.918
 4028WAT     H212327   0.275   1.784   6.837
 4029WAT      O12328   4.534   8.236   0.618
 4029WAT     H112329   4.561   8.217   0.523
 4029WAT     H212330   4.609   8.284   0.665
 4030WAT      O12331   8.250   3.827   7.900
 4030WAT     H112332   8.298   3.762   7.842
 4030WAT     H212333   8.177   3.780   7.950
 4031WAT      O12334   2.291   3.680   3.449
 4031WAT     H112335   2.298   3.747   3.524
 4031WAT     H212336   2.375   3.627   3.444
 4032WAT      O12337   8.681   0.421   7.410
 4032WAT     H112338   8.746   0.406   7.335
 4032WAT     H212339   8.597   0.369   7.393
 4033WAT      O12340   6.478   0.500   8.432
 4033WAT     H112341   6.475   0.406   8.465
 4033WAT     H212342   6.471   0.563   8.509
 4034WAT      O12343   2.110   6.087   6.412
 4034WAT     H112344   2.153   6.008   6.368
 4034WAT     H212345   2.025   6.109   6.365
 4035WAT      O12346   0.583   5.544   8.355
 4035WAT     H112347   0.674   5.584   8.355
 4035WAT     H212348   0.584   5.458   8.304
 4036WAT      O12349   3.550   2.565   7.651
 4036WAT     H112350   3.452   2.565   7.669
 4036WAT     H212351   3.598   2.511   7.721
 4037WAT      O12352   3.273   6.247   8.786
 4037WAT     H112353   3.358   6.273   8.740
 4037WAT     H212354   3.207   6.215   8.719
 4038WAT      O12355   0.030   2.848   1.758
 4038WAT     H112356   0.046   2.935   1.710
 4038WAT     H212357   0.023   2.865   1.856
 4039WAT      O12358   5.680   4.829   7.283
 4039WAT     H112359   5.603   4.833   7.219
 4039WAT     H212360   5.739   4.751   7.260
 4040WAT      O12361   5.988   9.706   7.488
 4040WAT     H112362   5.967   9.609   7.476
 4040WAT     H212363   5.903   9.758   7.500
 4041WAT      O12364   0.277   4.777   3.986
 4041WAT     H112365   0.350   4.836   4.018
 4041WAT     H212366   0.262   4.703   4.052
 4042WAT      O12367   6.071   8.282   0.833
 4042WAT     H112368   6.108   8.189   0.829
 4042WAT     H212369   5.988   8.283   0.888
 4043WAT      O12370   4.033   4.627   7.922
 4043WAT     H112371   4.054   4.530   7.937
 4043WAT     H212372   4.007   4.669   8.009
 4044WAT      O12373   8.857   2.877   3.779
 4044WAT     H112374   8.944   2.829   3.781
 4044WAT     H212375   8.860   2.956   3.841
 4045WAT      O12376   2.178   0.397   4.505
 4045WAT     H112377   2.145   0.484   4.543
 4045WAT     H212378   2.142   0.322   4.560
 4046WAT      O12379   8.996   9.413   3.729
 4046WAT     H112380   8.948   9.326   3.717
 4046WAT     H212381   8.930   9.488   3.731
 4047WAT      O12382   3.866   8.977   0.781
 4047WAT     H112383   3.812   9.061   0.781
 4047WAT     H212384   3.896   8.957   0.874
 4048WAT      O12385   8.394   5.364   9.756
 4048WAT     H112386   8.405   5.444   9.815
 4048WAT     H212387   8.480   5.346   9.708
 4049WAT      O12388   6.402   1.860   5.643
 4049WAT     H112389   6.435   1.889   5.554
 4049WAT     H212390   6.310   1.823   5.634
 4050WAT      O12391   1.073   0.804   6.819
 4050WAT     H112392   0.974   0.812   6.834
 4050WAT     H212393   1.122   0.838   6.899
 4051WAT      O12394   0.170   2.508   5.532
 4051WAT     H112395   0.163   2.411   5.510
 4051WAT     H212396   0.260   2.528   5.570
 4052WAT      O12397   6.107   5.651   3.562
 4052WAT     H112398   6.207   5.660   3.562
 4052WAT     H212399   6.080   5.565   3.604
 4053WAT      O12400   3.856   7.736   9.678
 4053WAT     H112401   3.907   7.739   9.764
 4053WAT     H212402   3.921   7.732   9.602
 4054WAT      O12403   3.998   9.109   1.774
 4054WAT     H112404   3.997   9.187   1.836
 4054WAT     H212405   3.917   9.112   1.715
 4055WAT      O12406   7.250   3.007   8.705
 4055WAT     H112407   7.317   3.075   8.737
 4055WAT     H212408   7.163   3.053   8.686
 4056WAT      O12409   5.965   1.119   6.551
 4056WAT     H112410   5.880   1.095   6.505
 4056WAT     H212411   5.978   1.060   6.631
 4057WAT      O12412   0.434   4.347   0.060
 4057WAT     H112413   0.350   4.397   0.080
 4057WAT     H212414   0.443   4.335  -0.039
 4058WAT      O12415   1.920   4.257   4.460
 4058WAT     H112416   1.920   4.348   4.418
 4058WAT     H212417   1.924   4.187   4.389
 4059WAT      O12418   1.309   7.013   6.679
 4059WAT     H112419   1.279   6.980   6.590
 4059WAT     H212420   1.329   7.111   6.673
 4060WAT      O12421   8.333   9.683   7.127
 4060WAT     H112422   8.260   9.742   7.093
 4060WAT     H212423   8.416   9.697   7.073
 4061WAT      O12424   3.070   5.745   3.932
 4061WAT     H112425   2.972   5.763   3.945
 4061WAT     H212426   3.112   5.824   3.887
 4062WAT      O12427   7.015   2.203   5.216
 4062WAT     H112428   7.109   2.222   5.187
 4062WAT     H212429   6.984   2.119   5.171
 4063WAT      O12430   2.050   1.619   6.202
 4063WAT     H112431   1.963   1.611   6.154
 4063WAT     H212432   2.058   1.544   6.269
 4064WAT      O12433   6.878   5.358   4.593
 4064WAT     H112434   6.918   5.440   4.550
 4064WAT     H212435   6.813   5.386   4.663
 4065WAT      O12436   5.750   4.171   3.294
 4065WAT     H112437   5.799   4.139   3.375
 4065WAT     H212438   5.802   4.246   3.252
 4066WAT      O12439   3.248   4.880   4.994
 4066WAT     H112440   3.210   4.937   5.067
 4066WAT     H212441   3.195   4.795   4.989
 4067WAT      O12442   1.645   1.850   8.679
 4067WAT     H112443   1.691   1.797   8.608
 4067WAT     H212444   1.640   1.796   8.763
 4068WAT      O12445   8.457   8.825   0.076
 4068WAT     H112446   8.401   8.820  -0.007
 4068WAT     H212447   8.401   8.802   0.156
 4069WAT      O12448   6.581   1.394   4.023
 4069WAT     H112449   6.675   1.365   4.005
 4069WAT     H212450   6.581   1.485   4.063
 4070WAT      O12451   1.402   8.203   8.638
 4070WAT     H112452   1.459   8.212   8.720
 4070WAT     H212453   1.461   8.187   8.559
 4071WAT      O12454   9.542   4.568   3.767
 4071WAT     H112455   9.630   4.555   3.719
 4071WAT     H212456   9.473   4.599   3.702
 4072WAT      O12457   2.901   9.004   7.788
 4072WAT     H112458   2.812   8.967   7.813
 4072WAT     H212459   2.970   8.976   7.854
 4073WAT      O12460   8.714   8.943   1.346
 4073WAT     H112461   8.648   8.901   1.408
 4073WAT     H212462   8.758   9.020   1.392
 4074WAT      O12463   9.466   9.666   5.743
 4074WAT     H112464   9.371   9.669   5.714
 4074WAT     H212465   9.473   9.616   5.830
 4075WAT      O12466   4.078   1.461   1.302
 4075WAT     H112467   4.152   1.514   1.343
 4075WAT     H212468   4.112   1.411   1.223
 4076WAT      O12469   3.620   3.482   8.980
 4076WAT     H112470   3.565   3.401   8.959
 4076WAT     H212471   3.688   3.495   8.908
 4077WAT      O12472   5.871   7.859   4.357
 4077WAT     H112473   5.949   7.816   4.311
 4077WAT     H212474   5.887   7.958   4.364
 4078WAT      O12475   0.397   2.891   4.492
 4078WAT     H112476   0.341   2.828   4.438
 4078WAT     H212477   0.468   2.839   4.540
 4079WAT      O12478   2.274   6.752   8.002
 4079WAT     H112479   2.318   6.796   7.923
 4079WAT     H212480   2.195   6.807   8.031
 4080WAT      O12481   1.620   8.698   4.398
 4080WAT     H112482   1.619   8.601   4.421
 4080WAT     H212483   1.538   8.742   4.434
 4081WAT      O12484   9.813   1.221   3.378
 4081WAT     H112485   9.817   1.216   3.478
 4081WAT     H212486   9.785   1.313   3.350
 4082WAT      O12487   7.530   9.338   8.754
 4082WAT     H112488   7.436   9.332   8.722
 4082WAT     H212489   7.589   9.281   8.697
 4083WAT      O12490   6.566   6.055   1.347
 4083WAT     H112491   6.575   6.103   1.260
 4083WAT     H212492   6.652   6.011   1.370
 4084WAT      O12493   2.454   4.931   9.414
 4084WAT     H112494   2.448   4.977   9.325
 4084WAT     H212495   2.542   4.884   9.422
 4085WAT      O12496   1.494   6.733   0.773
 4085WAT     H112497   1.505   6.786   0.857
 4085WAT     H212498   1.408   6.757   0.729
 4086WAT      O12499   2.579   4.064   1.401
 4086WAT     H112500   2.630   3.983   1.430
 4086WAT     H212501   2.636   4.118   1.338
 4087WAT      O12502   5.118   6.327   4.250
 4087WAT     H112503   5.097   6.342   4.153
 4087WAT     H212504   5.033   6.333   4.303
 4088WAT      O12505   2.448   7.068   6.960
 4088WAT     H112506   2.407   7.101   7.045
 4088WAT     H212507   2.478   6.974   6.972
 4089WAT      O12508   9.890   3.343   5.663
 4089WAT     H112509   9.857   3.423   5.712
 4089WAT     H212510   9.815   3.303   5.610
 4090WAT      O12511   5.857   5.201   6.576
 4090WAT     H112512   5.838   5.138   6.500
 4090WAT     H212513   5.772   5.248   6.601
 4091WAT      O12514   3.311   3.032   5.476
 4091WAT     H112515   3.241   2.967   5.505
 4091WAT     H212516   3.371   2.989   5.409
 4092WAT      O12517   3.202   4.063   7.068
 4092WAT     H112518   3.165   4.124   6.998
 4092WAT     H212519   3.185   4.102   7.159
 4093WAT      O12520   3.818   7.377  -0.002
 4093WAT     H112521   3.734   7.323  -0.012
 4093WAT     H212522   3.812   7.432   0.081
 4094WAT      O12523   3.209   2.749   9.449
 4094WAT     H112524   3.302   2.720   9.428
 4094WAT     H212525   3.211   2.825   9.513
 4095WAT      O12526   4.795   0.151   5.619
 4095WAT     H112527   4.746   0.079   5.668
 4095WAT     H212528   4.732   0.227   5.600
 4096WAT      O12529   9.098   6.990   4.022
 4096WAT     H112530   9.061   7.024   3.936
 4096WAT     H212531   9.196   6.976   4.013
 4097WAT      O12532   9.343   0.145   8.666
 4097WAT     H112533   9.398   0.171   8.586
 4097WAT     H212534   9.403   0.125   8.743
 4098WAT      O12535   0.625   4.588   3.706
 4098WAT     H112536   0.664   4.534   3.781
 4098WAT     H212537   0.657   4.552   3.619
 4099WAT      O12538   8.987   5.171   6.174
 4099WAT     H112539   9.071   5.137   6.132
 4099WAT     H212540   9.005   5.260   6.217
 4100WAT      O12541   8.534   1.537   8.733
 4100WAT     H112542   8.556   1.628   8.698
 4100WAT     H212543   8.441   1.512   8.705
 4101WAT      O12544   1.082   5.485   7.084
 4101WAT     H112545   1.174   5.515   7.060
 4101WAT     H212546   1.082   5.449   7.178
 4102WAT      O12547   1.822   0.935   2.946
 4102WAT     H112548   1.901   0.997   2.943
 4102WAT     H212549   1.739   0.985   2.921
 4103WAT      O12550   5.795   7.582   0.895
 4103WAT     H112551   5.860   7.617   0.827
 4103WAT     H212552   5.764   7.491   0.867
 4104WAT      O12553   1.123   1.172   8.730
 4104WAT     H112554   1.031   1.133   8.724
 4104WAT     H212555   1.177   1.141   8.651
 4105WAT      O12556   5.727   3.099   4.932
 4105WAT     H112557   5.802   3.128   4.991
 4105WAT     H212558   5.640   3.134   4.968
 4106WAT      O12559   6.642   1.329   5.900
 4106WAT     H112560   6.653   1.387   5.981
 4106WAT     H212561   6.675   1.237   5.920
 4107WAT      O12562   9.302   8.849   4.270
 4107WAT     H112563   9.287   8.915   4.344
 4107WAT     H212564   9.363   8.776   4.303
 4108WAT      O12565   4.135   8.007   2.015
 4108WAT     H112566   4.080   8.080   2.054
 4108WAT     H212567   4.193   7.967   2.086
 4109WAT      O12568   2.081   0.967   6.067
 4109WAT     H112569   2.057   0.871   6.058
 4109WAT     H212570   2.174   0.982   6.031
 4110WAT      O12571   1.164   3.501   4.469
 4110WAT     H112572   1.107   3.550   4.404
 4110WAT     H212573   1.248   3.470   4.424
 4111WAT      O12574   9.472   3.307   5.625
 4111WAT     H112575   9.450   3.235   5.691
 4111WAT     H212576   9.389   3.338   5.580
 4112WAT      O12577   3.270   6.643   5.049
 4112WAT     H112578   3.227   6.730   5.026
 4112WAT     H212579   3.210   6.567   5.025
 4113WAT      O12580   8.369   5.842   3.037
 4113WAT     H112581   8.347   5.893   3.121
 4113WAT     H212582   8.410   5.754   3.061
 4114WAT      O12583   7.490   2.044   0.780
 4114WAT     H112584   7.458   1.951   0.763
 4114WAT     H212585   7.477   2.099   0.698
 4115WAT      O12586   5.635   2.651   0.211
 4115WAT     H112587   5.571   2.580   0.180
 4115WAT     H212588   5.592   2.706   0.282
 4116WAT      O12589   7.441   8.463   1.193
 4116WAT     H112590   7.527   8.438   1.238
 4116WAT     H212591   7.388   8.381   1.173
 4117WAT      O12592   0.541   5.682   4.772
 4117WAT     H112593   0.480   5.716   4.700
 4117WAT     H212594   0.539   5.745   4.850
 4118WAT      O12595   3.317   6.285   4.534
 4118WAT     H112596   3.408   6.280   4.574
 4118WAT     H212597   3.322   6.334   4.446
 4119WAT      O12598   0.475   5.447   0.551
 4119WAT     H112599   0.504   5.465   0.457
 4119WAT     H212600   0.451   5.533   0.596
 4120WAT      O12601   1.244   5.214   0.338
 4120WAT     H112602   1.243   5.248   0.432
 4120WAT     H212603   1.267   5.289   0.276
 4121WAT      O12604   9.653   1.385   8.646
 4121WAT     H112605   9.738   1.401   8.697
 4121WAT     H212606   9.609   1.302   8.680
 4122WAT      O12607   9.516   4.627   9.545
 4122WAT     H112608   9.511   4.718   9.503
 4122WAT     H212609   9.609   4.591   9.535
 4123WAT      O12610   5.930   2.402   4.296
 4123WAT     H112611   5.902   2.388   4.391
 4123WAT     H212612   5.884   2.335   4.238
 4124WAT      O12613   5.830   7.172   5.162
 4124WAT     H112614   5.769   7.093   5.157
 4124WAT     H212615   5.919   7.144   5.199
 4125WAT      O12616   0.376   2.248   7.292
 4125WAT     H112617   0.364   2.343   7.262
 4125WAT     H212618   0.456   2.242   7.352
 4126WAT      O12619   7.747   8.216   1.518
 4126WAT     H112620   7.846   8.221   1.532
 4126WAT     H212621   7.719   8.283   1.450
 4127WAT      O12622   0.588   0.565   1.431
 4127WAT     H112623   0.625   0.656   1.410
 4127WAT     H212624   0.488   0.568   1.425
 4128WAT      O12625   9.864   7.715   1.699
 4128WAT     H112626   9.821   7.800   1.729
 4128WAT     H212627   9.844   7.700   1.602
 4129WAT      O12628   1.531   4.247   1.154
 4129WAT     H112629   1.515   4.167   1.212
 4129WAT     H212630   1.621   4.240   1.111
 4130WAT      O12631   8.443   0.450   3.867
 4130WAT     H112632   8.538   0.458   3.835
 4130WAT     H212633   8.440   0.391   3.947
 4131WAT      O12634   7.350   3.085   9.257
 4131WAT     H112635   7.359   3.053   9.163
 4131WAT     H212636   7.290   3.165   9.260
 4132WAT      O12637   2.951   7.449   3.812
 4132WAT     H112638   3.042   7.417   3.785
 4132WAT     H212639   2.914   7.508   3.740
 4133WAT      O12640   7.756   7.843   3.984
 4133WAT     H112641   7.760   7.920   4.048
 4133WAT     H212642   7.722   7.762   4.031
 4134WAT      O12643   8.051   9.750   6.019
 4134WAT     H112644   8.147   9.768   6.041
 4134WAT     H212645   8.045   9.695   5.936
 4135WAT      O12646   7.289   3.234   4.013
 4135WAT     H112647   7.324   3.324   3.989
 4135WAT     H212648   7.354   3.164   3.982
 4136WAT      O12649   2.627   7.166   7.446
 4136WAT     H112650   2.590   7.246   7.494
 4136WAT     H212651   2.682   7.112   7.510
 4137WAT      O12652   8.897   7.013   6.606
 4137WAT     H112653   8.885   7.099   6.558
 4137WAT     H212654   8.989   6.977   6.588
 4138WAT      O12655   1.593   6.422   2.727
 4138WAT     H112656   1.505   6.468   2.710
 4138WAT     H212657   1.665   6.490   2.738
 4139WAT      O12658   7.524   3.514   9.282
 4139WAT     H112659   7.618   3.486   9.298
 4139WAT     H212660   7.517   3.614   9.285
 4140WAT      O12661   6.524   5.111   7.874
 4140WAT     H112662   6.482   5.073   7.956
 4140WAT     H212663   6.493   5.205   7.861
 4141WAT      O12664   3.616   3.858   3.344
 4141WAT     H112665   3.642   3.920   3.270
 4141WAT     H212666   3.678   3.872   3.422
 4142WAT      O12667   3.545   4.923   5.636
 4142WAT     H112668   3.612   4.857   5.601
 4142WAT     H212669   3.559   4.936   5.734
 4143WAT      O12670   1.217   1.967   8.786
 4143WAT     H112671   1.299   1.996   8.735
 4143WAT     H212672   1.140   1.958   8.722
 4144WAT      O12673   5.357   4.448   5.447
 4144WAT     H112674   5.370   4.487   5.539
 4144WAT     H212675   5.382   4.351   5.448
 4145WAT      O12676   1.421   9.621   6.366
 4145WAT     H112677   1.508   9.599   6.321
 4145WAT     H212678   1.437   9.684   6.441
 4146WAT      O12679   2.662   5.798   5.822
 4146WAT     H112680   2.568   5.801   5.787
 4146WAT     H212681   2.671   5.723   5.887
 4147WAT      O12682   0.296   0.496   4.306
 4147WAT     H112683   0.307   0.554   4.226
 4147WAT     H212684   0.355   0.529   4.379
 4148WAT      O12685   6.343   7.853   4.570
 4148WAT     H112686   6.338   7.898   4.481
 4148WAT     H212687   6.436   7.862   4.607
 4149WAT      O12688   3.827   9.749   8.014
 4149WAT     H112689   3.773   9.812   8.071
 4149WAT     H212690   3.836   9.661   8.059
 4150WAT      O12691   1.775   2.642   6.178
 4150WAT     H112692   1.753   2.662   6.273
 4150WAT     H212693   1.874   2.649   6.164
 4151WAT      O12694   4.889   8.884   5.699
 4151WAT     H112695   4.893   8.911   5.796
 4151WAT     H212696   4.897   8.966   5.642
 4152WAT      O12697   4.929   3.476   6.035
 4152WAT     H112698   4.978   3.393   6.061
 4152WAT     H212699   4.881   3.461   5.949
 4153WAT      O12700   3.465   5.917   8.824
 4153WAT     H112701   3.417   5.926   8.911
 4153WAT     H212702   3.513   5.829   8.821
 4154WAT      O12703   5.488   8.619   0.707
 4154WAT     H112704   5.578   8.630   0.750
 4154WAT     H212705   5.458   8.707   0.670
 4155WAT      O12706   3.615   7.011   7.482
 4155WAT     H112707   3.670   7.039   7.561
 4155WAT     H212708   3.527   6.976   7.514
 4156WAT      O12709   5.007   8.702   5.395
 4156WAT     H112710   4.910   8.700   5.368
 4156WAT     H212711   5.060   8.748   5.324
 4157WAT      O12712   2.894   7.073   6.893
 4157WAT     H112713   2.875   7.060   6.990
 4157WAT     H212714   2.952   6.999   6.860
 4158WAT      O12715   9.747   7.612   0.708
 4158WAT     H112716   9.689   7.552   0.651
 4158WAT     H212717   9.689   7.663   0.771
 4159WAT      O12718   2.327   7.090   0.158
 4159WAT     H112719   2.370   7.030   0.091
 4159WAT     H212720   2.333   7.047   0.249
 4160WAT      O12721   6.744   1.896   0.708
 4160WAT     H112722   6.710   1.838   0.782
 4160WAT     H212723   6.834   1.862   0.679
 4161WAT      O12724   2.885   3.201   7.216
 4161WAT     H112725   2.881   3.223   7.314
 4161WAT     H212726   2.941   3.120   7.203
 4162WAT      O12727   2.677   9.251   3.510
 4162WAT     H112728   2.664   9.156   3.480
 4162WAT     H212729   2.626   9.312   3.450
 4163WAT      O12730   9.010   8.307   7.272
 4163WAT     H112731   9.080   8.285   7.340
 4163WAT     H212732   8.920   8.307   7.315
 4164WAT      O12733   1.633   0.902   6.346
 4164WAT     H112734   1.557   0.909   6.281
 4164WAT     H212735   1.683   0.817   6.330
 4165WAT      O12736   7.533   3.041   2.255
 4165WAT     H112737   7.456   3.033   2.319
 4165WAT     H212738   7.544   2.955   2.206
 4166WAT      O12739   9.018   5.588   3.606
 4166WAT     H112740   9.112   5.595   3.637
 4166WAT     H212741   8.999   5.494   3.578
 4167WAT      O12742   1.846   2.911   3.669
 4167WAT     H112743   1.842   3.010   3.675
 4167WAT     H212744   1.941   2.882   3.661
 4168WAT      O12745   9.566   1.116   0.381
 4168WAT     H112746   9.564   1.216   0.386
 4168WAT     H212747   9.479   1.079   0.414
 4169WAT      O12748   5.539   8.344   7.205
 4169WAT     H112749   5.528   8.313   7.299
 4169WAT     H212750   5.507   8.439   7.197
 4170WAT      O12751   5.661   2.036   6.552
 4170WAT     H112752   5.562   2.052   6.560
 4170WAT     H212753   5.709   2.123   6.561
 4171WAT      O12754   6.617   6.158   9.186
 4171WAT     H112755   6.706   6.115   9.174
 4171WAT     H212756   6.545   6.091   9.168
 4172WAT      O12757   1.983   5.303   7.760
 4172WAT     H112758   2.032   5.332   7.842
 4172WAT     H212759   1.913   5.371   7.737
 4173WAT      O12760   6.533   7.432   3.513
 4173WAT     H112761   6.602   7.393   3.573
 4173WAT     H212762   6.569   7.515   3.471
 4174WAT      O12763   0.596   6.402   3.011
 4174WAT     H112764   0.575   6.499   3.000
 4174WAT     H212765   0.690   6.392   3.043
 4175WAT      O12766   1.847   3.853   2.657
 4175WAT     H112767   1.813   3.760   2.672
 4175WAT     H212768   1.817   3.884   2.566
 4176WAT      O12769   3.216   7.459   0.704
 4176WAT     H112770   3.224   7.503   0.793
 4176WAT     H212771   3.256   7.368   0.708
 4177WAT      O12772   0.017   3.221   8.549
 4177WAT     H112773  -0.003   3.230   8.647
 4177WAT     H212774   0.054   3.130   8.530
 4178WAT      O12775   9.485   5.201   8.859
 4178WAT     H112776   9.436   5.286   8.838
 4178WAT     H212777   9.562   5.190   8.796
 4179WAT      O12778   0.526   1.364   6.431
 4179WAT     H112779   0.531   1.433   6.358
 4179WAT     H212780   0.514   1.410   6.519
 4180WAT      O12781   3.872   6.663   8.213
 4180WAT     H112782   3.914   6.614   8.289
 4180WAT     H212783   3.943   6.696   8.151
 4181WAT      O12784   3.932   0.566   1.240
 4181WAT     H112785   3.954   0.571   1.337
 4181WAT     H212786   3.833   0.560   1.228
 4182WAT      O12787   6.864   3.055   5.206
 4182WAT     H112788   6.883   3.100   5.119
 4182WAT     H212789   6.939   2.993   5.228
 4183WAT      O12790   9.778   9.278   7.939
 4183WAT     H112791   9.744   9.188   7.910
 4183WAT     H212792   9.821   9.324   7.861
 4184WAT      O12793   6.348   0.946   5.638
 4184WAT     H112794   6.265   0.894   5.618
 4184WAT     H212795   6.404   0.951   5.555
 4185WAT      O12796   7.904   0.208   3.888
 4185WAT     H112797   7.865   0.206   3.979
 4185WAT     H212798   7.904   0.302   3.853
 4186WAT      O12799   1.081   6.706   8.040
 4186WAT     H112800   1.052   6.788   8.089
 4186WAT     H212801   1.014   6.683   7.970
 4187WAT      O12802   0.036   6.862   1.763
 4187WAT     H112803   0.105   6.817   1.706
 4187WAT     H212804   0.043   6.828   1.857
 4188WAT      O12805   2.736   4.697   1.924
 4188WAT     H112806   2.801   4.623   1.909
 4188WAT     H212807   2.646   4.659   1.943
 4189WAT      O12808   2.404   9.073   3.949
 4189WAT     H112809   2.429   9.150   4.007
 4189WAT     H212810   2.485   9.039   3.902
 4190WAT      O12811   7.524   8.276   5.978
 4190WAT     H112812   7.583   8.300   5.901
 4190WAT     H212813   7.490   8.183   5.966
 4191WAT      O12814   7.403   9.432   5.985
 4191WAT     H112815   7.428   9.349   6.035
 4191WAT     H212816   7.304   9.433   5.969
 4192WAT      O12817   5.150   2.191   6.297
 4192WAT     H112818   5.085   2.258   6.261
 4192WAT     H212819   5.175   2.216   6.391
 4193WAT      O12820   1.134   7.800   8.568
 4193WAT     H112821   1.160   7.738   8.642
 4193WAT     H212822   1.165   7.893   8.590
 4194WAT      O12823   7.285   4.492   5.383
 4194WAT     H112824   7.294   4.549   5.301
 4194WAT     H212825   7.197   4.444   5.381
 4195WAT      O12826   5.743   4.864   9.645
 4195WAT     H112827   5.718   4.918   9.726
 4195WAT     H212828   5.840   4.877   9.626
 4196WAT      O12829   1.268   9.205   8.078
 4196WAT     H112830   1.330   9.137   8.116
 4196WAT     H212831   1.173   9.179   8.099
 4197WAT      O12832   5.693   6.242   6.318
 4197WAT     H112833   5.753   6.291   6.381
 4197WAT     H212834   5.687   6.146   6.347
 4198WAT      O12835   5.639   6.825   2.292
 4198WAT     H112836   5.609   6.751   2.352
 4198WAT     H212837   5.640   6.793   2.197
 4199WAT      O12838   3.519   9.676   1.440
 4199WAT     H112839   3.433   9.690   1.490
 4199WAT     H212840   3.501   9.630   1.354
 4200WAT      O12841   3.828   1.936   3.983
 4200WAT     H112842   3.745   1.881   3.989
 4200WAT     H212843   3.842   1.985   4.069
 4201WAT      O12844   8.029   9.195   7.735
 4201WAT     H112845   8.066   9.186   7.642
 4201WAT     H212846   7.929   9.187   7.731
 4202WAT      O12847   8.053   8.267   6.082
 4202WAT     H112848   7.972   8.310   6.121
 4202WAT     H212849   8.113   8.337   6.045
 4203WAT      O12850   2.283   1.962   0.617
 4203WAT     H112851   2.308   1.910   0.699
 4203WAT     H212852   2.339   1.931   0.541
 4204WAT      O12853   5.905   4.142   2.799
 4204WAT     H112854   5.951   4.165   2.713
 4204WAT     H212855   5.878   4.226   2.845
 4205WAT      O12856   7.839   1.671   9.238
 4205WAT     H112857   7.848   1.605   9.164
 4205WAT     H212858   7.793   1.753   9.205
 4206WAT      O12859   6.956   8.745   6.783
 4206WAT     H112860   6.904   8.777   6.862
 4206WAT     H212861   6.929   8.651   6.761
 4207WAT      O12862   7.205   2.230   1.388
 4207WAT     H112863   7.161   2.261   1.472
 4207WAT     H212864   7.156   2.266   1.309
 4208WAT      O12865   3.816   2.740   3.355
 4208WAT     H112866   3.848   2.659   3.405
 4208WAT     H212867   3.724   2.723   3.319
 4209WAT      O12868   1.664   3.739   4.345
 4209WAT     H112869   1.700   3.788   4.424
 4209WAT     H212870   1.711   3.651   4.336
 4210WAT      O12871   7.029   3.154   3.603
 4210WAT     H112872   7.036   3.177   3.700
 4210WAT     H212873   7.103   3.090   3.580
 4211WAT      O12874   1.438   0.110   8.556
 4211WAT     H112875   1.380   0.192   8.559
 4211WAT     H212876   1.454   0.085   8.461
 4212WAT      O12877   4.435   5.074   6.580
 4212WAT     H112878   4.485   5.160   6.583
 4212WAT     H212879   4.471   5.013   6.651
 4213WAT      O12880   2.614   3.321   8.015
 4213WAT     H112881   2.617   3.341   8.113
 4213WAT     H212882   2.664   3.391   7.965
 4214WAT      O12883   7.532   9.087   0.857
 4214WAT     H112884   7.526   9.185   0.872
 4214WAT     H212885   7.620   9.065   0.814
 4215WAT      O12886   3.972   5.984   6.507
 4215WAT     H112887   3.987   6.052   6.579
 4215WAT     H212888   4.061   5.947   6.478
 4216WAT      O12889   1.269   9.236   8.738
 4216WAT     H112890   1.308   9.312   8.687
 4216WAT     H212891   1.197   9.193   8.684
 4217WAT      O12892   8.921   9.699   3.241
 4217WAT     H112893   8.900   9.793   3.216
 4217WAT     H212894   8.866   9.672   3.320
 4218WAT      O12895   3.131   1.632   7.027
 4218WAT     H112896   3.088   1.668   6.944
 4218WAT     H212897   3.193   1.702   7.064
 4219WAT      O12898   0.109   6.313   2.512
 4219WAT     H112899   0.026   6.258   2.510
 4219WAT     H212900   0.091   6.399   2.560
 4220WAT      O12901   7.760   1.276   7.991
 4220WAT     H112902   7.790   1.231   8.075
 4220WAT     H212903   7.672   1.238   7.962
 4221WAT      O12904   4.416   7.183   0.589
 4221WAT     H112905   4.321   7.189   0.619
 4221WAT     H212906   4.435   7.257   0.525
 4222WAT      O12907   7.954   5.634   4.490
 4222WAT     H112908   7.869   5.678   4.515
 4222WAT     H212909   8.024   5.703   4.470
 4223WAT      O12910   5.938   1.103   0.611
 4223WAT     H112911   5.860   1.042   0.622
 4223WAT     H212912   5.974   1.095   0.518
 4224WAT      O12913   1.084   8.146   5.935
 4224WAT     H112914   1.136   8.197   5.867
 4224WAT     H212915   1.133   8.145   6.022
 4225WAT      O12916   6.479   9.107   7.957
 4225WAT     H112917   6.412   9.075   7.890
 4225WAT     H212918   6.470   9.206   7.969
 4226WAT      O12919   2.188   3.306   4.386
 4226WAT     H112920   2.255   3.238   4.355
 4226WAT     H212921   2.222   3.397   4.366
 4227WAT      O12922   9.565   8.506   8.761
 4227WAT     H112923   9.640   8.446   8.787
 4227WAT     H212924   9.561   8.583   8.824
 4228WAT      O12925   8.566   2.822   7.905
 4228WAT     H112926   8.564   2.921   7.916
 4228WAT     H212927   8.611   2.781   7.984
 4229WAT      O12928   1.311   1.549   6.325
 4229WAT     H112929   1.387   1.497   6.286
 4229WAT     H212930   1.342   1.641   6.350
 4230WAT      O12931   7.794   1.391   7.751
 4230WAT     H112932   7.744   1.478   7.754
 4230WAT     H212933   7.776   1.339   7.834
 4231WAT      O12934   8.396   5.217   2.924
 4231WAT     H112935   8.455   5.215   3.005
 4231WAT     H212936   8.334   5.139   2.926
 4232WAT      O12937   8.061   7.604   4.681
 4232WAT     H112938   8.084   7.678   4.618
 4232WAT     H212939   7.962   7.593   4.684
 4233WAT      O12940   6.942   4.186   9.673
 4233WAT     H112941   6.915   4.192   9.577
 4233WAT     H212942   6.900   4.261   9.725
 4234WAT      O12943   9.385   7.191   4.215
 4234WAT     H112944   9.468   7.242   4.192
 4234WAT     H212945   9.374   7.189   4.315
 4235WAT      O12946   0.076   3.884   4.438
 4235WAT     H112947   0.131   3.881   4.521
 4235WAT     H212948   0.041   3.976   4.424
 4236WAT      O12949   6.222   2.731   0.629
 4236WAT     H112950   6.286   2.733   0.552
 4236WAT     H212951   6.266   2.692   0.709
 4237WAT      O12952   8.427   4.914   7.779
 4237WAT     H112953   8.344   4.916   7.836
 4237WAT     H212954   8.453   5.008   7.756
 4238WAT      O12955   6.320   5.168   8.314
 4238WAT     H112956   6.305   5.109   8.393
 4238WAT     H212957   6.284   5.259   8.332
 4239WAT      O12958   0.460   3.401   9.033
 4239WAT     H112959   0.420   3.459   9.105
 4239WAT     H212960   0.544   3.360   9.067
 4240WAT      O12961   1.864   8.455   7.976
 4240WAT     H112962   1.854   8.356   7.967
 4240WAT     H212963   1.853   8.499   7.887
 4241WAT      O12964   4.738   0.566   8.605
 4241WAT     H112965   4.739   0.578   8.506
 4241WAT     H212966   4.643   0.572   8.638
 4242WAT      O12967   4.752   0.902   0.713
 4242WAT     H112968   4.827   0.853   0.758
 4242WAT     H212969   4.671   0.900   0.771
 4243WAT      O12970   0.170   5.764   6.371
 4243WAT     H112971   0.129   5.692   6.426
 4243WAT     H212972   0.131   5.853   6.397
 4244WAT      O12973   5.084   2.517   5.012
 4244WAT     H112974   5.060   2.426   5.046
 4244WAT     H212975   5.008   2.554   4.959
 4245WAT      O12976   2.831   0.577   1.981
 4245WAT     H112977   2.857   0.533   1.895
 4245WAT     H212978   2.732   0.593   1.981
 4246WAT      O12979   7.097   2.494   2.076
 4246WAT     H112980   7.073   2.490   1.979
 4246WAT     H212981   7.022   2.455   2.130
 4247WAT      O12982   3.605   8.167   0.190
 4247WAT     H112983   3.533   8.136   0.252
 4247WAT     H212984   3.654   8.088   0.153
 4248WAT      O12985   4.186   4.214   2.226
 4248WAT     H112986   4.112   4.279   2.242
 4248WAT     H212987   4.231   4.192   2.313
 4249WAT      O12988   0.751   0.720   3.917
 4249WAT     H112989   0.724   0.690   3.826
 4249WAT     H212990   0.827   0.785   3.909
 4250WAT      O12991   7.398   9.775   9.015
 4250WAT     H112992   7.468   9.844   9.028
 4250WAT     H212993   7.440   9.686   8.998
 4251WAT      O12994   9.468   6.717   5.206
 4251WAT     H112995   9.377   6.689   5.236
 4251WAT     H212996   9.460   6.796   5.145
 4252WAT      O12997   7.149   4.733   1.356
 4252WAT     H112998   7.089   4.775   1.288
 4252WAT     H212999   7.099   4.661   1.405
 4253WAT      O13000   8.956   1.556   3.399
 4253WAT     H113001   9.051   1.567   3.428
 4253WAT     H213002   8.947   1.583   3.303
 4254WAT      O13003   0.213   5.956   4.569
 4254WAT     H113004   0.230   6.003   4.656
 4254WAT     H213005   0.244   5.861   4.577
 4255WAT      O13006   3.045   8.870   1.296
 4255WAT     H113007   3.046   8.951   1.238
 4255WAT     H213008   2.973   8.808   1.265
 4256WAT      O13009   6.665   5.596   5.517
 4256WAT     H113010   6.698   5.641   5.600
 4256WAT     H213011   6.653   5.664   5.444
 4257WAT      O13012   8.585   7.383   0.670
 4257WAT     H113013   8.652   7.441   0.716
 4257WAT     H213014   8.507   7.439   0.640
 4258WAT      O13015   1.935   0.676   9.294
 4258WAT     H113016   1.948   0.599   9.356
 4258WAT     H213017   1.938   0.644   9.199
 4259WAT      O13018   7.851   3.623   1.952
 4259WAT     H113019   7.809   3.571   2.027
 4259WAT     H213020   7.944   3.649   1.977
 4260WAT      O13021   0.340   1.609   4.875
 4260WAT     H113022   0.319   1.563   4.789
 4260WAT     H213023   0.319   1.548   4.951
 4261WAT      O13024   3.415   4.759   1.772
 4261WAT     H113025   3.504   4.792   1.740
 4261WAT     H213026   3.353   4.836   1.784
 4262WAT      O13027   0.471   5.159   5.041
 4262WAT     H113028   0.438   5.236   5.096
 4262WAT     H213029   0.548   5.189   4.985
 4263WAT      O13030   7.667   6.216   1.903
 4263WAT     H113031   7.641   6.149   1.973
 4263WAT     H213032   7.623   6.304   1.923
 4264WAT      O13033   8.066   4.850   4.478
 4264WAT     H113034   8.050   4.884   4.386
 4264WAT     H213035   8.122   4.767   4.474
 4265WAT      O13036   1.310   8.904   7.030
 4265WAT     H113037   1.403   8.903   6.993
 4265WAT     H213038   1.244   8.905   6.955
 4266WAT      O13039   1.175   1.744   9.292
 4266WAT     H113040   1.191   1.814   9.223
 4266WAT     H213041   1.080   1.715   9.289
 4267WAT      O13042   8.650   5.326   9.685
 4267WAT     H113043   8.705   5.266   9.627
 4267WAT     H213044   8.689   5.418   9.683
 4268WAT      O13045   2.481   8.297   7.745
 4268WAT     H113046   2.385   8.287   7.771
 4268WAT     H213047   2.501   8.237   7.668
 4269WAT      O13048   9.528   1.639   8.545
 4269WAT     H113049   9.560   1.562   8.601
 4269WAT     H213050   9.495   1.604   8.457
 4270WAT      O13051   4.800   2.126   4.383
 4270WAT     H113052   4.835   2.219   4.393
 4270WAT     H213053   4.812   2.095   4.289
 4271WAT      O13054   8.499   3.423   1.582
 4271WAT     H113055   8.419   3.366   1.597
 4271WAT     H213056   8.505   3.493   1.653
 4272WAT      O13057   5.498   4.247   7.844
 4272WAT     H113058   5.516   4.346   7.841
 4272WAT     H213059   5.428   4.224   7.777
 4273WAT      O13060   3.215   2.310   6.103
 4273WAT     H113061   3.311   2.300   6.129
 4273WAT     H213062   3.165   2.227   6.129
 4274WAT      O13063   2.457   4.203   5.398
 4274WAT     H113064   2.400   4.268   5.348
 4274WAT     H213065   2.500   4.248   5.475
 4275WAT      O13066   9.651   2.974   3.806
 4275WAT     H113067   9.685   3.045   3.867
 4275WAT     H213068   9.569   2.932   3.846
 4276WAT      O13069   4.728   3.913   8.978
 4276WAT     H113070   4.641   3.907   9.027
 4276WAT     H213071   4.795   3.961   9.035
 4277WAT      O13072   9.750   6.589   2.937
 4277WAT     H113073   9.717   6.624   2.850
 4277WAT     H213074   9.673   6.558   2.993
 4278WAT      O13075   5.748   0.550   9.030
 4278WAT     H113076   5.705   0.512   8.948
 4278WAT     H213077   5.779   0.643   9.011
 4279WAT      O13078   9.397   7.575   5.329
 4279WAT     H113079   9.423   7.606   5.238
 4279WAT     H213080   9.358   7.483   5.323
 4280WAT      O13081   0.136   2.307   1.747
 4280WAT     H113082   0.184   2.277   1.829
 4280WAT     H213083   0.110   2.403   1.756
 4281WAT      O13084   4.805   4.822   6.757
 4281WAT     H113085   4.801   4.757   6.681
 4281WAT     H213086   4.847   4.907   6.727
 4282WAT      O13087   7.143   2.668   5.811
 4282WAT     H113088   7.160   2.748   5.869
 4282WAT     H213089   7.063   2.684   5.754
 4283WAT      O13090   6.562   6.416   9.279
 4283WAT     H113091   6.569   6.324   9.240
 4283WAT     H213092   6.559   6.410   9.379
 4284WAT      O13093   2.986   5.083   7.846
 4284WAT     H113094   3.028   4.994   7.863
 4284WAT     H213095   2.965   5.091   7.748
 4285WAT      O13096   2.182   7.553   7.658
 4285WAT     H113097   2.106   7.617   7.654
 4285WAT     H213098   2.268   7.603   7.666
 4286WAT      O13099   0.175   4.426   1.581
 4286WAT     H113100   0.220   4.361   1.519
 4286WAT     H213101   0.218   4.516   1.572
 4287WAT      O13102   7.519   8.413   3.754
 4287WAT     H113103   7.596   8.439   3.811
 4287WAT     H213104   7.550   8.353   3.680
 4288WAT      O13105   4.511   4.886   5.955
 4288WAT     H113106   4.529   4.886   5.857
 4288WAT     H213107   4.563   4.813   5.999
 4289WAT      O13108   0.625   0.780   2.910
 4289WAT     H113109   0.640   0.696   2.962
 4289WAT     H213110   0.606   0.757   2.814
 4290WAT      O13111   0.199   6.843   1.168
 4290WAT     H113112   0.177   6.855   1.071
 4290WAT     H213113   0.242   6.927   1.202
 4291WAT      O13114   8.816   2.774   7.643
 4291WAT     H113115   8.736   2.722   7.611
 4291WAT     H213116   8.856   2.728   7.722
 4292WAT      O13117   8.542   6.962   5.298
 4292WAT     H113118   8.461   6.909   5.323
 4292WAT     H213119   8.545   7.045   5.353
 4293WAT      O13120   8.957   4.144   3.575
 4293WAT     H113121   8.887   4.106   3.515
 4293WAT     H213122   8.973   4.082   3.651
 4294WAT      O13123   2.085   7.762   9.065
 4294WAT     H113124   1.993   7.789   9.037
 4294WAT     H213125   2.152   7.829   9.032
 4295WAT      O13126   6.315   3.242   0.909
 4295WAT     H113127   6.333   3.146   0.886
 4295WAT     H213128   6.347   3.301   0.835
 4296WAT      O13129   4.500   4.588   0.647
 4296WAT     H113130   4.545   4.632   0.569
 4296WAT     H213131   4.402   4.609   0.645
 4297WAT      O13132   5.748   0.371   7.812
 4297WAT     H113133   5.831   0.354   7.866
 4297WAT     H213134   5.688   0.291   7.817
 4298WAT      O13135   8.600   9.544   1.140
 4298WAT     H113136   8.662   9.582   1.209
 4298WAT     H213137   8.642   9.464   1.098
 4299WAT      O13138   8.980   9.442   9.505
 4299WAT     H113139   9.072   9.432   9.543
 4299WAT     H213140   8.921   9.369   9.541
 4300WAT      O13141   1.185   3.085   5.890
 4300WAT     H113142   1.193   3.162   5.953
 4300WAT     H213143   1.102   3.096   5.835
 4301WAT      O13144   6.866   9.763   4.735
 4301WAT     H113145   6.810   9.842   4.710
 4301WAT     H213146   6.936   9.747   4.665
 4302WAT      O13147   4.345   4.658   1.317
 4302WAT     H113148   4.246   4.651   1.333
 4302WAT     H213149   4.362   4.713   1.235
 4303WAT      O13150   6.490   2.248   9.615
 4303WAT     H113151   6.515   2.203   9.701
 4303WAT     H213152   6.403   2.211   9.583
 4304WAT      O13153   8.776   7.565   0.776
 4304WAT     H113154   8.872   7.548   0.798
 4304WAT     H213155   8.770   7.640   0.710
 4305WAT      O13156   8.774   7.489   5.507
 4305WAT     H113157   8.811   7.571   5.552
 4305WAT     H213158   8.759   7.508   5.411
 4306WAT      O13159   2.182   1.565   4.960
 4306WAT     H113160   2.255   1.543   4.895
 4306WAT     H213161   2.094   1.534   4.923
 4307WAT      O13162   6.041   1.537   0.656
 4307WAT     H113163   5.968   1.518   0.721
 4307WAT     H213164   6.044   1.466   0.586
 4308WAT      O13165   0.268   7.636   6.886
 4308WAT     H113166   0.198   7.707   6.894
 4308WAT     H213167   0.348   7.664   6.941
 4309WAT      O13168   4.423   8.611   0.135
 4309WAT     H113169   4.460   8.580   0.047
 4309WAT     H213170   4.447   8.707   0.149
 4310WAT      O13171   3.837   4.853   8.492
 4310WAT     H113172   3.857   4.870   8.588
 4310WAT     H213173   3.755   4.796   8.484
 4311WAT      O13174   6.628   7.231   8.356
 4311WAT     H113175   6.550   7.292   8.370
 4311WAT     H213176   6.618   7.151   8.415
 4312WAT      O13177   8.810   1.107   7.603
 4312WAT     H113178   8.848   1.153   7.523
 4312WAT     H213179   8.803   1.009   7.585
 4313WAT      O13180   0.885   0.694   2.475
 4313WAT     H113181   0.915   0.755   2.548
 4313WAT     H213182   0.785   0.699   2.466
 4314WAT      O13183   6.140   6.886   3.732
 4314WAT     H113184   6.096   6.948   3.796
 4314WAT     H213185   6.084   6.878   3.649
 4315WAT      O13186   2.459   0.255   4.031
 4315WAT     H113187   2.447   0.353   4.016
 4315WAT     H213188   2.438   0.205   3.947
 4316WAT      O13189   7.890   1.488   3.108
 4316WAT     H113190   7.983   1.515   3.084
 4316WAT     H213191   7.863   1.533   3.193
 4317WAT      O13192   0.515   4.283   1.408
 4317WAT     H113193   0.501   4.381   1.393
 4317WAT     H213194   0.507   4.235   1.320
 4318WAT      O13195   4.032   3.305   7.738
 4318WAT     H113196   3.948   3.251   7.742
 4318WAT     H213197   4.050   3.345   7.828
 4319WAT      O13198   7.647   4.998   2.065
 4319WAT     H113199   7.693   4.997   2.155
 4319WAT     H213200   7.615   4.906   2.044
 4320WAT      O13201   9.060   4.474   1.317
 4320WAT     H113202   8.966   4.479   1.349
 4320WAT     H213203   9.080   4.554   1.260
 4321WAT      O13204   3.058   9.376   6.779
 4321WAT     H113205   3.133   9.322   6.742
 4321WAT     H213206   3.089   9.469   6.798
 4322WAT      O13207   3.688   5.230   5.767
 4322WAT     H113208   3.628   5.152   5.783
 4322WAT     H213209   3.773   5.217   5.818
 4323WAT      O13210   2.809   0.216   5.376
 4323WAT     H113211   2.735   0.283   5.382
 4323WAT     H213212   2.771   0.123   5.377
 4324WAT      O13213   2.565   1.901   9.435
 4324WAT     H113214   2.580   1.846   9.353
 4324WAT     H213215   2.652   1.913   9.483
 4325WAT      O13216   4.862   6.224   3.975
 4325WAT     H113217   4.902   6.164   4.044
 4325WAT     H213218   4.935   6.279   3.934
 4326WAT      O13219   6.795   1.446   3.376
 4326WAT     H113220   6.808   1.417   3.281
 4326WAT     H213221   6.732   1.383   3.422
 4327WAT      O13222   4.076   8.626   7.620
 4327WAT     H113223   4.108   8.687   7.693
 4327WAT     H213224   4.030   8.680   7.550
 4328WAT      O13225   8.924   3.765   5.259
 4328WAT     H113226   8.829   3.739   5.276
 4328WAT     H213227   8.949   3.842   5.319
 4329WAT      O13228   1.800   4.783   0.035
 4329WAT     H113229   1.856   4.743  -0.037
 4329WAT     H213230   1.706   4.750   0.026
 4330WAT      O13231   1.947   5.171   2.181
 4330WAT     H113232   1.929   5.147   2.085
 4330WAT     H213233   2.022   5.115   2.216
 4331WAT      O13234   1.694   5.582   0.063
 4331WAT     H113235   1.645   5.625   0.139
 4331WAT     H213236   1.633   5.517   0.018
 4332WAT      O13237   9.044   6.695   7.203
 4332WAT     H113238   9.001   6.783   7.224
 4332WAT     H213239   8.992   6.648   7.132
 4333WAT      O13240   6.697   3.235   5.995
 4333WAT     H113241   6.658   3.176   6.065
 4333WAT     H213242   6.626   3.263   5.931
 4334WAT      O13243   8.313   1.840   2.348
 4334WAT     H113244   8.264   1.923   2.320
 4334WAT     H213245   8.250   1.779   2.397
 4335WAT      O13246   1.211   3.041   0.897
 4335WAT     H113247   1.184   3.136   0.908
 4335WAT     H213248   1.275   3.016   0.970
 4336WAT      O13249   8.103   3.477   5.708
 4336WAT     H113250   8.076   3.412   5.637
 4336WAT     H213251   8.132   3.563   5.665
 4337WAT      O13252   4.678   1.633   1.647
 4337WAT     H113253   4.586   1.672   1.640
 4337WAT     H213254   4.698   1.611   1.743
 4338WAT      O13255   7.257   7.979   9.390
 4338WAT     H113256   7.301   8.063   9.420
 4338WAT     H213257   7.273   7.907   9.457
 4339WAT      O13258   8.070   3.367   5.378
 4339WAT     H113259   8.062   3.285   5.322
 4339WAT     H213260   8.164   3.377   5.410
 4340WAT      O13261   5.943   8.624   8.774
 4340WAT     H113262   6.021   8.637   8.712
 4340WAT     H213263   5.971   8.642   8.868
 4341WAT      O13264   9.771   6.221   9.463
 4341WAT     H113265   9.842   6.242   9.395
 4341WAT     H213266   9.812   6.218   9.554
 4342WAT      O13267   5.669   1.391   9.393
 4342WAT     H113268   5.647   1.301   9.429
 4342WAT     H213269   5.624   1.404   9.304
 4343WAT      O13270   2.775   5.952   0.752
 4343WAT     H113271   2.840   6.024   0.728
 4343WAT     H213272   2.734   5.915   0.669
 4344WAT      O13273   6.311   3.297   6.126
 4344WAT     H113274   6.393   3.350   6.103
 4344WAT     H213275   6.230   3.354   6.114
 4345WAT      O13276   9.522   7.323   9.258
 4345WAT     H113277   9.515   7.384   9.179
 4345WAT     H213278   9.504   7.375   9.342
 4346WAT      O13279   1.678   3.443   6.269
 4346WAT     H113280   1.648   3.520   6.213
 4346WAT     H213281   1.695   3.363   6.211
 4347WAT      O13282   8.197   4.201   3.883
 4347WAT     H113283   8.135   4.269   3.923
 4347WAT     H213284   8.292   4.228   3.900
 4348WAT      O13285   5.473   2.668   6.914
 4348WAT     H113286   5.569   2.656   6.940
 4348WAT     H213287   5.468   2.693   6.817
 4349WAT      O13288   5.331   0.689   1.270
 4349WAT     H113289   5.248   0.688   1.215
 4349WAT     H213290   5.410   0.668   1.212
 4350WAT      O13291   8.625   6.720   3.373
 4350WAT     H113292   8.680   6.661   3.432
 4350WAT     H213293   8.685   6.783   3.323
 4351WAT      O13294   5.356   5.769   9.739
 4351WAT     H113295   5.307   5.750   9.654
 4351WAT     H213296   5.310   5.842   9.789
 4352WAT      O13297   5.821   5.264   1.319
 4352WAT     H113298   5.784   5.268   1.412
 4352WAT     H213299   5.773   5.329   1.261
 4353WAT      O13300   7.596   0.288   5.955
 4353WAT     H113301   7.525   0.294   5.885
 4353WAT     H213302   7.667   0.224   5.924
 4354WAT      O13303   4.733   7.585   0.497
 4354WAT     H113304   4.826   7.591   0.534
 4354WAT     H213305   4.716   7.662   0.436
 4355WAT      O13306   3.609   9.810   6.131
 4355WAT     H113307   3.685   9.876   6.132
 4355WAT     H213308   3.522   9.860   6.125
 4356WAT      O13309   5.348   1.666   1.345
 4356WAT     H113310   5.277   1.724   1.384
 4356WAT     H213311   5.331   1.653   1.247
 4357WAT      O13312   3.028   4.760   6.591
 4357WAT     H113313   3.012   4.779   6.494
 4357WAT     H213314   2.951   4.794   6.645
 4358WAT      O13315   2.838   8.524   1.427
 4358WAT     H113316   2.812   8.457   1.356
 4358WAT     H213317   2.937   8.535   1.427
 4359WAT      O13318   9.017   5.757   8.095
 4359WAT     H113319   8.996   5.739   8.191
 4359WAT     H213320   9.028   5.856   8.082
 4360WAT      O13321   9.888   3.456   0.474
 4360WAT     H113322   9.817   3.506   0.425
 4360WAT     H213323   9.848   3.408   0.553
 4361WAT      O13324   1.878   7.048   0.180
 4361WAT     H113325   1.887   7.134   0.230
 4361WAT     H213326   1.926   7.055   0.092
 4362WAT      O13327   0.449   1.150   7.307
 4362WAT     H113328   0.483   1.244   7.303
 4362WAT     H213329   0.431   1.118   7.214
 4363WAT      O13330   5.295   4.659   9.621
 4363WAT     H113331   5.200   4.633   9.607
 4363WAT     H213332   5.351   4.623   9.546
 4364WAT      O13333   3.299   6.751   8.649
 4364WAT     H113334   3.295   6.681   8.720
 4364WAT     H213335   3.356   6.720   8.573
 4365WAT      O13336   6.467   3.808   8.028
 4365WAT     H113337   6.419   3.793   8.114
 4365WAT     H213338   6.417   3.875   7.973
 4366WAT      O13339   8.808   4.043   0.095
 4366WAT     H113340   8.834   4.115   0.159
 4366WAT     H213341   8.889   4.012   0.045
 4367WAT      O13342   0.609   0.339   6.781
 4367WAT     H113343   0.656   0.293   6.856
 4367WAT     H213344   0.527   0.384   6.816
 4368WAT      O13345   1.542   0.272   3.313
 4368WAT     H113346   1.642   0.267   3.303
 4368WAT     H213347   1.508   0.353   3.265
 4369WAT      O13348   4.787   3.757   4.844
 4369WAT     H113349   4.770   3.710   4.931
 4369WAT     H213350   4.708   3.747   4.784
 4370WAT      O13351   8.139   8.732   1.609
 4370WAT     H113352   8.157   8.776   1.521
 4370WAT     H213353   8.221   8.735   1.666
 4371WAT      O13354   9.346   9.622   6.002
 4371WAT     H113355   9.392   9.665   6.079
 4371WAT     H213356   9.263   9.672   5.980
 4372WAT      O13357   8.878   0.842   0.361
 4372WAT     H113358   8.807   0.899   0.320
 4372WAT     H213359   8.859   0.746   0.343
 4373WAT      O13360   7.489   2.344   8.097
 4373WAT     H113361   7.494   2.258   8.046
 4373WAT     H213362   7.581   2.372   8.125
 4374WAT      O13363   9.863   3.323   0.804
 4374WAT     H113364   9.863   3.421   0.824
 4374WAT     H213365   9.915   3.274   0.874
 4375WAT      O13366   1.157   4.226   2.627
 4375WAT     H113367   1.079   4.284   2.603
 4375WAT     H213368   1.124   4.142   2.669
 4376WAT      O13369   4.503   8.741   9.155
 4376WAT     H113370   4.501   8.715   9.252
 4376WAT     H213371   4.534   8.663   9.100
 4377WAT      O13372   3.093   4.142   3.457
 4377WAT     H113373   3.128   4.214   3.396
 4377WAT     H213374   3.108   4.053   3.416
 4378WAT      O13375   7.976   4.352   1.205
 4378WAT     H113376   7.965   4.428   1.142
 4378WAT     H213377   7.984   4.267   1.153
 4379WAT      O13378   2.894   9.461   8.151
 4379WAT     H113379   2.817   9.405   8.181
 4379WAT     H213380   2.980   9.415   8.172
 4380WAT      O13381   7.278   6.620   0.771
 4380WAT     H113382   7.256   6.533   0.816
 4380WAT     H213383   7.249   6.695   0.830
 4381WAT      O13384   2.973   8.445   2.004
 4381WAT     H113385   2.923   8.430   1.918
 4381WAT     H213386   2.914   8.422   2.081
 4382WAT      O13387   2.940   3.600   9.873
 4382WAT     H113388   3.028   3.604   9.825
 4382WAT     H213389   2.950   3.639   9.965
 4383WAT      O13390   2.435   8.099   3.653
 4383WAT     H113391   2.492   8.168   3.699
 4383WAT     H213392   2.493   8.036   3.602
 4384WAT      O13393   7.267   9.584   7.854
 4384WAT     H113394   7.234   9.490   7.865
 4384WAT     H213395   7.366   9.586   7.868
 4385WAT      O13396   5.606   5.451   3.013
 4385WAT     H113397   5.555   5.366   3.004
 4385WAT     H213398   5.704   5.432   3.003
 4386WAT      O13399   3.270   6.787   1.090
 4386WAT     H113400   3.298   6.753   1.000
 4386WAT     H213401   3.219   6.872   1.079
 4387WAT      O13402   1.553   8.495   1.410
 4387WAT     H113403   1.507   8.579   1.383
 4387WAT     H213404   1.645   8.493   1.371
 4388WAT      O13405   3.063   6.986   9.404
 4388WAT     H113406   3.085   6.985   9.306
 4388WAT     H213407   2.966   6.967   9.416
 4389WAT      O13408   7.579   3.925   8.110
 4389WAT     H113409   7.567   3.929   8.011
 4389WAT     H213410   7.491   3.937   8.155
 4390WAT      O13411   9.498   8.906   7.358
 4390WAT     H113412   9.481   8.826   7.300
 4390WAT     H213413   9.438   8.902   7.438
 4391WAT      O13414   1.851   1.376   2.429
 4391WAT     H113415   1.929   1.433   2.402
 4391WAT     H213416   1.859   1.354   2.526
 4392WAT      O13417   6.678   9.299   2.036
 4392WAT     H113418   6.679   9.256   1.946
 4392WAT     H213419   6.749   9.257   2.093
 4393WAT      O13420   4.412   0.676   0.339
 4393WAT     H113421   4.479   0.730   0.390
 4393WAT     H213422   4.322   0.718   0.348
 4394WAT      O13423   2.497   2.346   2.719
 4394WAT     H113424   2.564   2.287   2.764
 4394WAT     H213425   2.426   2.372   2.784
 4395WAT      O13426   6.934   4.406   0.965
 4395WAT     H113427   6.967   4.319   0.930
 4395WAT     H213428   6.971   4.421   1.057
 4396WAT      O13429   4.201   6.733   1.698
 4396WAT     H113430   4.229   6.802   1.765
 4396WAT     H213431   4.186   6.645   1.745
 4397WAT      O13432   4.345   1.734   0.903
 4397WAT     H113433   4.270   1.787   0.944
 4397WAT     H213434   4.432   1.767   0.938
 4398WAT      O13435   9.089   8.797   6.636
 4398WAT     H113436   9.161   8.749   6.586
 4398WAT     H213437   9.001   8.753   6.619
 4399WAT      O13438   6.622   2.358   9.340
 4399WAT     H113439   6.699   2.296   9.356
 4399WAT     H213440   6.574   2.374   9.426
 4400WAT      O13441   3.888   0.808   4.341
 4400WAT     H113442   3.849   0.719   4.317
 4400WAT     H213443   3.816   0.877   4.340
 4401WAT      O13444   0.202   7.833   4.943
 4401WAT     H113445   0.225   7.857   4.849
 4401WAT     H213446   0.269   7.872   5.005
 4402WAT      O13447   0.975   1.060   9.172
 4402WAT     H113448   0.936   1.093   9.086
 4402WAT     H213449   1.049   0.995   9.152
 4403WAT      O13450   2.057   2.525   4.130
 4403WAT     H113451   1.967   2.484   4.113
 4403WAT     H213452   2.072   2.600   4.065
 4404WAT      O13453   2.667   7.816   5.425
 4404WAT     H113454   2.612   7.784   5.348
 4404WAT     H213455   2.652   7.914   5.438
 4405WAT      O13456   2.754   5.879   6.267
 4405WAT     H113457   2.776   5.793   6.222
 4405WAT     H213458   2.711   5.861   6.355
 4406WAT      O13459   6.200   5.521   6.904
 4406WAT     H113460   6.121   5.577   6.932
 4406WAT     H213461   6.174   5.425   6.901
 4407WAT      O13462   4.421   9.637   0.373
 4407WAT     H113463   4.383   9.597   0.290
 4407WAT     H213464   4.415   9.572   0.448
 4408WAT      O13465   3.571   0.955   1.783
 4408WAT     H113466   3.628   0.885   1.826
 4408WAT     H213467   3.616   1.044   1.789
 4409WAT      O13468   7.386   5.927   6.471
 4409WAT     H113469   7.309   5.906   6.532
 4409WAT     H213470   7.471   5.901   6.516
 4410WAT      O13471   3.018   6.916   6.238
 4410WAT     H113472   3.101   6.906   6.292
 4410WAT     H213473   2.999   6.830   6.191
 4411WAT      O13474   8.383   5.420   1.229
 4411WAT     H113475   8.356   5.496   1.289
 4411WAT     H213476   8.480   5.401   1.241
 4412WAT      O13477   8.681   8.584   2.999
 4412WAT     H113478   8.668   8.551   2.906
 4412WAT     H213479   8.755   8.651   3.001
 4413WAT      O13480   5.017   4.354   0.575
 4413WAT     H113481   4.963   4.271   0.563
 4413WAT     H213482   5.002   4.390   0.668
 4414WAT      O13483   6.340   2.227   9.088
 4414WAT     H113484   6.376   2.321   9.087
 4414WAT     H213485   6.250   2.227   9.131
 4415WAT      O13486   0.027   1.755   7.511
 4415WAT     H113487   0.078   1.814   7.574
 4415WAT     H213488   0.028   1.795   7.419
 4416WAT      O13489   8.518   7.707   9.760
 4416WAT     H113490   8.439   7.702   9.699
 4416WAT     H213491   8.487   7.705   9.855
 4417WAT      O13492   3.875   5.124   4.838
 4417WAT     H113493   3.914   5.205   4.882
 4417WAT     H213494   3.823   5.072   4.904
 4418WAT      O13495   6.630   9.314   8.130
 4418WAT     H113496   6.595   9.369   8.054
 4418WAT     H213497   6.716   9.351   8.162
 4419WAT      O13498   3.365   2.713   9.147
 4419WAT     H113499   3.441   2.714   9.081
 4419WAT     H213500   3.394   2.664   9.229
 4420WAT      O13501   5.526   1.740   7.379
 4420WAT     H113502   5.556   1.646   7.399
 4420WAT     H213503   5.488   1.780   7.462
 4421WAT      O13504   0.420   3.743   1.940
 4421WAT     H113505   0.355   3.805   1.896
 4421WAT     H213506   0.392   3.648   1.924
 4422WAT      O13507   2.227   6.050   4.176
 4422WAT     H113508   2.128   6.057   4.184
 4422WAT     H213509   2.268   6.044   4.267
 4423WAT      O13510   2.202   0.668   6.349
 4423WAT     H113511   2.268   0.618   6.293
 4423WAT     H213512   2.114   0.671   6.301
 4424WAT      O13513   5.259   8.535   0.538
 4424WAT     H113514   5.340   8.558   0.590
 4424WAT     H213515   5.249   8.435   0.533
 4425WAT      O13516   2.363   8.581   2.610
 4425WAT     H113517   2.405   8.518   2.545
 4425WAT     H213518   2.332   8.663   2.560
 4426WAT      O13519   5.065   4.378   0.895
 4426WAT     H113520   5.044   4.475   0.885
 4426WAT     H213521   4.999   4.336   0.957
 4427WAT      O13522   3.984   3.284   4.558
 4427WAT     H113523   4.043   3.342   4.502
 4427WAT     H213524   3.962   3.331   4.643
 4428WAT      O13525   8.192   5.700   4.169
 4428WAT     H113526   8.101   5.690   4.211
 4428WAT     H213527   8.242   5.773   4.215
 4429WAT      O13528   8.093   3.926   1.347
 4429WAT     H113529   8.098   3.849   1.284
 4429WAT     H213530   8.066   3.893   1.438
 4430WAT      O13531   2.963   3.243   0.358
 4430WAT     H113532   3.034   3.196   0.305
 4430WAT     H213533   2.874   3.224   0.318
 4431WAT      O13534   3.445   0.805   2.693
 4431WAT     H113535   3.454   0.833   2.597
 4431WAT     H213536   3.381   0.865   2.740
 4432WAT      O13537   5.210   9.652   6.306
 4432WAT     H113538   5.233   9.614   6.216
 4432WAT     H213539   5.293   9.658   6.361
 4433WAT      O13540   3.168   3.853   9.865
 4433WAT     H113541   3.193   3.771   9.813
 4433WAT     H213542   3.072   3.876   9.847
 4434WAT      O13543   4.357   2.536   4.951
 4434WAT     H113544   4.276   2.592   4.971
 4434WAT     H213545   4.345   2.445   4.992
 4435WAT      O13546   5.024   3.281   5.161
 4435WAT     H113547   5.010   3.236   5.073
 4435WAT     H213548   4.947   3.342   5.180
 4436WAT      O13549   0.912   5.684   0.215
 4436WAT     H113550   0.897   5.597   0.261
 4436WAT     H213551   0.846   5.694   0.140
 4437WAT      O13552   4.781   2.667   5.608
 4437WAT     H113553   4.850   2.710   5.666
 4437WAT     H213554   4.739   2.737   5.550
 4438WAT      O13555   6.511   2.134   6.840
 4438WAT     H113556   6.554   2.081   6.912
 4438WAT     H213557   6.559   2.221   6.829
 4439WAT      O13558   1.771   3.879   9.764
 4439WAT     H113559   1.842   3.830   9.713
 4439WAT     H213560   1.768   3.974   9.735
 4440WAT      O13561   9.499   5.073   0.991
 4440WAT     H113562   9.553   5.023   1.059
 4440WAT     H213563   9.528   5.169   0.989
 4441WAT      O13564   5.290   8.519   3.013
 4441WAT     H113565   5.236   8.562   2.941
 4441WAT     H213566   5.235   8.513   3.097
 4442WAT      O13567   4.120   6.716   9.259
 4442WAT     H113568   4.197   6.679   9.207
 4442WAT     H213569   4.111   6.666   9.345
 4443WAT      O13570   0.104   6.742   5.985
 4443WAT     H113571   0.177   6.689   5.941
 4443WAT     H213572   0.142   6.793   6.062
 4444WAT      O13573   7.295   2.166   9.544
 4444WAT     H113574   7.292   2.097   9.472
 4444WAT     H213575   7.330   2.124   9.628
 4445WAT      O13576   0.582   3.648   0.480
 4445WAT     H113577   0.548   3.733   0.440
 4445WAT     H213578   0.670   3.624   0.438
 4446WAT      O13579   4.882   5.106   8.838
 4446WAT     H113580   4.929   5.194   8.845
 4446WAT     H213581   4.852   5.077   8.929
 4447WAT      O13582   1.231   0.511   7.488
 4447WAT     H113583   1.244   0.608   7.507
 4447WAT     H213584   1.283   0.486   7.406
 4448WAT      O13585   4.345   4.727   7.872
 4448WAT     H113586   4.320   4.668   7.796
 4448WAT     H213587   4.439   4.709   7.900
 4449WAT      O13588   6.047   2.477   5.554
 4449WAT     H113589   6.061   2.398   5.615
 4449WAT     H213590   6.097   2.461   5.469
 4450WAT      O13591   4.733   8.955   3.713
 4450WAT     H113592   4.803   8.991   3.651
 4450WAT     H213593   4.648   9.005   3.701
 4451WAT      O13594   4.755   1.426   0.752
 4451WAT     H113595   4.715   1.503   0.702
 4451WAT     H213596   4.731   1.434   0.849
 4452WAT      O13597   6.685   7.953   4.519
 4452WAT     H113598   6.669   7.989   4.426
 4452WAT     H213599   6.783   7.944   4.535
 4453WAT      O13600   6.015   0.981   8.579
 4453WAT     H113601   6.115   0.976   8.570
 4453WAT     H213602   5.990   1.045   8.651
 4454WAT      O13603   3.338   0.149   8.902
 4454WAT     H113604   3.425   0.118   8.864
 4454WAT     H213605   3.328   0.248   8.887
 4455WAT      O13606   7.669   0.497   1.143
 4455WAT     H113607   7.590   0.436   1.141
 4455WAT     H213608   7.638   0.590   1.163
 4456WAT      O13609   6.401   2.512   6.285
 4456WAT     H113610   6.400   2.482   6.189
 4456WAT     H213611   6.485   2.481   6.329
 4457WAT      O13612   2.647   8.906   2.847
 4457WAT     H113613   2.621   8.998   2.874
 4457WAT     H213614   2.582   8.840   2.887
 4458WAT      O13615   2.251   9.032   0.862
 4458WAT     H113616   2.173   9.025   0.799
 4458WAT     H213617   2.232   9.101   0.931
 4459WAT      O13618   7.408   0.357   3.058
 4459WAT     H113619   7.401   0.277   2.997
 4459WAT     H213620   7.499   0.360   3.099
 4460WAT      O13621   5.852   4.963   2.819
 4460WAT     H113622   5.787   4.920   2.882
 4460WAT     H213623   5.926   5.005   2.872
 4461WAT      O13624   1.731   7.243   9.563
 4461WAT     H113625   1.650   7.300   9.551
 4461WAT     H213626   1.723   7.189   9.647
 4462WAT      O13627   6.295   5.198   5.394
 4462WAT     H113628   6.273   5.295   5.401
 4462WAT     H213629   6.381   5.186   5.344
 4463WAT      O13630   4.578   6.220   3.569
 4463WAT     H113631   4.625   6.193   3.485
 4463WAT     H213632   4.492   6.265   3.546
 4464WAT      O13633   9.693   4.768   2.345
 4464WAT     H113634   9.704   4.768   2.444
 4464WAT     H213635   9.605   4.810   2.321
 4465WAT      O13636   3.996   0.349   0.389
 4465WAT     H113637   3.936   0.324   0.313
 4465WAT     H213638   3.942   0.390   0.463
 4466WAT      O13639   5.205   3.982   0.807
 4466WAT     H113640   5.220   3.952   0.901
 4466WAT     H213641   5.205   4.082   0.804
 4467WAT      O13642   9.380   0.708   6.923
 4467WAT     H113643   9.425   0.622   6.900
 4467WAT     H213644   9.403   0.733   7.017
 4468WAT      O13645   7.789   3.456   9.331
 4468WAT     H113646   7.867   3.517   9.347
 4468WAT     H213647   7.819   3.377   9.276
 4469WAT      O13648   3.933   8.329   7.331
 4469WAT     H113649   3.953   8.310   7.235
 4469WAT     H213650   4.017   8.352   7.379
 4470WAT      O13651   3.897   7.819   2.071
 4470WAT     H113652   3.969   7.885   2.052
 4470WAT     H213653   3.808   7.860   2.054
 4471WAT      O13654   5.988   8.711   9.047
 4471WAT     H113655   6.023   8.800   9.073
 4471WAT     H213656   5.894   8.701   9.082
 4472WAT      O13657   1.662   4.622   1.775
 4472WAT     H113658   1.577   4.660   1.738
 4472WAT     H213659   1.711   4.692   1.827
 4473WAT      O13660   9.242   9.733   3.020
 4473WAT     H113661   9.150   9.720   2.982
 4473WAT     H213662   9.247   9.693   3.111
 4474WAT      O13663   9.046   5.332   3.888
 4474WAT     H113664   9.024   5.293   3.978
 4474WAT     H213665   9.108   5.271   3.840
 4475WAT      O13666   2.358   5.408   1.822
 4475WAT     H113667   2.407   5.437   1.904
 4475WAT     H213668   2.273   5.461   1.813
 4476WAT      O13669   6.480   2.104   3.769
 4476WAT     H113670   6.553   2.086   3.703
 4476WAT     H213671   6.425   2.181   3.738
 4477WAT      O13672   2.811   8.892   9.673
 4477WAT     H113673   2.789   8.928   9.582
 4477WAT     H213674   2.867   8.959   9.722
 4478WAT      O13675   9.542   2.603   6.115
 4478WAT     H113676   9.552   2.503   6.118
 4478WAT     H213677   9.600   2.641   6.044
 4479WAT      O13678   8.016   5.006   7.044
 4479WAT     H113679   8.095   4.976   6.989
 4479WAT     H213680   8.013   5.106   7.044
 4480WAT      O13681   3.905   1.876   7.631
 4480WAT     H113682   3.953   1.789   7.641
 4480WAT     H213683   3.972   1.948   7.612
 4481WAT      O13684   5.907   3.999   6.338
 4481WAT     H113685   5.815   4.039   6.343
 4481WAT     H213686   5.910   3.933   6.263
 4482WAT      O13687   9.564   8.161   5.513
 4482WAT     H113688   9.653   8.206   5.506
 4482WAT     H213689   9.491   8.230   5.511
 4483WAT      O13690   8.937   9.164   9.570
 4483WAT     H113691   8.873   9.087   9.565
 4483WAT     H213692   8.999   9.161   9.491
 4484WAT      O13693   6.191   3.619   8.182
 4484WAT     H113694   6.169   3.715   8.167
 4484WAT     H213695   6.150   3.588   8.267
 4485WAT      O13696   1.279   2.088   7.901
 4485WAT     H113697   1.376   2.096   7.878
 4485WAT     H213698   1.251   1.992   7.896
 4486WAT      O13699   4.326   5.752   8.975
 4486WAT     H113700   4.293   5.724   8.885
 4486WAT     H213701   4.332   5.672   9.035
 4487WAT      O13702   9.668   4.354   5.391
 4487WAT     H113703   9.760   4.349   5.353
 4487WAT     H213704   9.660   4.436   5.449
 4488WAT      O13705   1.321   6.375   4.770
 4488WAT     H113706   1.414   6.354   4.799
 4488WAT     H213707   1.304   6.332   4.681
 4489WAT      O13708   4.730   4.251   6.425
 4489WAT     H113709   4.668   4.178   6.457
 4489WAT     H213710   4.806   4.260   6.490
 4490WAT      O13711   5.240   5.230   9.477
 4490WAT     H113712   5.173   5.290   9.521
 4490WAT     H213713   5.301   5.191   9.546
 4491WAT      O13714   1.930   3.059   0.023
 4491WAT     H113715   1.918   3.048   0.122
 4491WAT     H213716   1.869   2.997  -0.026
 4492WAT      O13717   3.722   7.903   4.290
 4492WAT     H113718   3.627   7.924   4.267
 4492WAT     H213719   3.782   7.933   4.215
 4493WAT      O13720   2.366   2.475   2.312
 4493WAT     H113721   2.406   2.562   2.281
 4493WAT     H213722   2.431   2.428   2.372
 4494WAT      O13723   3.136   8.629   1.762
 4494WAT     H113724   3.061   8.581   1.807
 4494WAT     H213725   3.109   8.724   1.746
 4495WAT      O13726   3.975   8.005   5.069
 4495WAT     H113727   4.039   8.078   5.046
 4495WAT     H213728   3.882   8.035   5.048
 4496WAT      O13729   7.786   8.186   8.693
 4496WAT     H113730   7.783   8.250   8.770
 4496WAT     H213731   7.831   8.101   8.722
 4497WAT      O13732   5.981   7.482   7.041
 4497WAT     H113733   5.954   7.405   6.983
 4497WAT     H213734   6.080   7.495   7.036
 4498WAT      O13735   1.390   7.568   3.656
 4498WAT     H113736   1.487   7.575   3.680
 4498WAT     H213737   1.348   7.495   3.708
 4499WAT      O13738   7.404   1.200   4.232
 4499WAT     H113739   7.452   1.244   4.156
 4499WAT     H213740   7.428   1.245   4.318
 4500WAT      O13741   5.104   3.187   1.341
 4500WAT     H113742   5.163   3.268   1.348
 4500WAT     H213743   5.159   3.105   1.349
 4501WAT      O13744   5.431   0.933   2.543
 4501WAT     H113745   5.514   0.929   2.599
 4501WAT     H213746   5.456   0.939   2.446
 4502WAT      O13747   0.658   8.881   3.093
 4502WAT     H113748   0.636   8.972   3.128
 4502WAT     H213749   0.582   8.847   3.039
 4503WAT      O13750   9.786   6.952   0.731
 4503WAT     H113751   9.851   6.876   0.732
 4503WAT     H213752   9.746   6.963   0.822
 4504WAT      O13753   8.545   9.689   4.220
 4504WAT     H113754   8.492   9.621   4.271
 4504WAT     H213755   8.640   9.687   4.251
 4505WAT      O13756   1.348   7.900   8.091
 4505WAT     H113757   1.338   7.888   8.190
 4505WAT     H213758   1.292   7.977   8.062
 4506WAT      O13759   8.723   3.621   9.671
 4506WAT     H113760   8.794   3.552   9.654
 4506WAT     H213761   8.744   3.670   9.756
 4507WAT      O13762   5.439   2.500   9.493
 4507WAT     H113763   5.439   2.586   9.544
 4507WAT     H213764   5.400   2.516   9.402
 4508WAT      O13765   6.930   7.164   5.010
 4508WAT     H113766   7.026   7.187   5.026
 4508WAT     H213767   6.910   7.170   4.913
 4509WAT      O13768   5.475   7.440   5.284
 4509WAT     H113769   5.505   7.501   5.358
 4509WAT     H213770   5.384   7.468   5.253
 4510WAT      O13771   3.501   1.497   6.116
 4510WAT     H113772   3.407   1.508   6.083
 4510WAT     H213773   3.540   1.587   6.134
 4511WAT      O13774   4.723   7.492   7.980
 4511WAT     H113775   4.719   7.479   7.881
 4511WAT     H213776   4.764   7.582   8.000
 4512WAT      O13777   6.390   6.586   1.108
 4512WAT     H113778   6.332   6.666   1.127
 4512WAT     H213779   6.404   6.579   1.009
 4513WAT      O13780   6.941   3.324   1.451
 4513WAT     H113781   6.971   3.396   1.514
 4513WAT     H213782   6.843   3.309   1.461
 4514WAT      O13783   7.316   0.446   2.544
 4514WAT     H113784   7.269   0.453   2.632
 4514WAT     H213785   7.250   0.423   2.472
 4515WAT      O13786   3.276   1.038   3.579
 4515WAT     H113787   3.273   0.940   3.598
 4515WAT     H213788   3.220   1.087   3.646
 4516WAT      O13789   7.257   9.390   6.454
 4516WAT     H113790   7.210   9.332   6.388
 4516WAT     H213791   7.299   9.467   6.407
 4517WAT      O13792   1.182   5.864   7.446
 4517WAT     H113793   1.141   5.775   7.426
 4517WAT     H213794   1.237   5.858   7.529
 4518WAT      O13795   0.690   9.403   5.852
 4518WAT     H113796   0.601   9.361   5.871
 4518WAT     H213797   0.733   9.430   5.938
 4519WAT      O13798   0.708   6.026   8.230
 4519WAT     H113799   0.637   6.028   8.300
 4519WAT     H213800   0.685   5.959   8.160
 4520WAT      O13801   9.675   7.475   3.971
 4520WAT     H113802   9.604   7.539   4.002
 4520WAT     H213803   9.765   7.514   3.992
 4521WAT      O13804   2.557   0.610   2.015
 4521WAT     H113805   2.520   0.641   2.102
 4521WAT     H213806   2.485   0.568   1.960
 4522WAT      O13807   6.969   6.837   0.460
 4522WAT     H113808   6.992   6.786   0.377
 4522WAT     H213809   6.906   6.911   0.437
 4523WAT      O13810   2.588   8.704   1.072
 4523WAT     H113811   2.536   8.641   1.129
 4523WAT     H213812   2.532   8.785   1.053
 4524WAT      O13813   3.324   5.768   0.216
 4524WAT     H113814   3.405   5.749   0.272
 4524WAT     H213815   3.251   5.806   0.273
 4525WAT      O13816   2.843   4.222   5.428
 4525WAT     H113817   2.836   4.124   5.407
 4525WAT     H213818   2.771   4.248   5.492
 4526WAT      O13819   2.679   1.734   2.466
 4526WAT     H113820   2.737   1.803   2.424
 4526WAT     H213821   2.646   1.766   2.554
 4527WAT      O13822   7.551   1.875   1.244
 4527WAT     H113823   7.530   1.969   1.269
 4527WAT     H213824   7.610   1.874   1.163
 4528WAT      O13825   3.567   0.691   1.386
 4528WAT     H113826   3.595   0.663   1.294
 4528WAT     H213827   3.606   0.629   1.454
 4529WAT      O13828   7.934   8.822   1.818
 4529WAT     H113829   7.927   8.800   1.916
 4529WAT     H213830   8.029   8.811   1.789
 4530WAT      O13831   4.225   8.432   9.879
 4530WAT     H113832   4.310   8.456   9.925
 4530WAT     H213833   4.164   8.386   9.944
 4531WAT      O13834   7.176   3.718   4.229
 4531WAT     H113835   7.271   3.705   4.256
 4531WAT     H213836   7.119   3.647   4.271
 4532WAT      O13837   0.113   3.224   1.849
 4532WAT     H113838   0.040   3.263   1.906
 4532WAT     H213839   0.153   3.145   1.894
 4533WAT      O13840   5.318   1.042   4.237
 4533WAT     H113841   5.359   1.124   4.277
 4533WAT     H213842   5.223   1.061   4.210
 4534WAT      O13843   7.650   1.858   7.571
 4534WAT     H113844   7.552   1.864   7.591
 4534WAT     H213845   7.663   1.856   7.471
 4535WAT      O13846   3.663   6.293   3.310
 4535WAT     H113847   3.730   6.241   3.363
 4535WAT     H213848   3.646   6.381   3.355
 4536WAT      O13849   7.810   9.097   1.780
 4536WAT     H113850   7.717   9.133   1.774
 4536WAT     H213851   7.811   9.017   1.839
 4537WAT      O13852   1.289   0.456   5.334
 4537WAT     H113853   1.332   0.365   5.324
 4537WAT     H213854   1.328   0.503   5.413
 4538WAT      O13855   2.792   0.071   3.148
 4538WAT     H113856   2.863   0.003   3.169
 4538WAT     H213857   2.793   0.143   3.218
 4539WAT      O13858   2.868   4.147   2.330
 4539WAT     H113859   2.901   4.053   2.337
 4539WAT     H213860   2.783   4.150   2.279
 4540WAT      O13861   3.106   8.534   8.455
 4540WAT     H113862   3.126   8.547   8.552
 4540WAT     H213863   3.092   8.623   8.412
 4541WAT      O13864   6.121   8.557   6.285
 4541WAT     H113865   6.043   8.581   6.343
 4541WAT     H213866   6.097   8.478   6.228
 4542WAT      O13867   6.935   1.839   9.476
 4542WAT     H113868   6.908   1.879   9.563
 4542WAT     H213869   6.881   1.879   9.402
 4543WAT      O13870   5.140   2.026   4.193
 4543WAT     H113871   5.134   1.934   4.232
 4543WAT     H213872   5.048   2.060   4.174
 4544WAT      O13873   0.623   5.930   0.518
 4544WAT     H113874   0.665   5.943   0.428
 4544WAT     H213875   0.528   5.961   0.516
 4545WAT      O13876   0.286   6.369   4.774
 4545WAT     H113877   0.195   6.366   4.816
 4545WAT     H213878   0.354   6.334   4.838
 4546WAT      O13879   0.949   2.821   4.685
 4546WAT     H113880   0.899   2.778   4.609
 4546WAT     H213881   0.991   2.906   4.654
 4547WAT      O13882   8.814   6.379   0.825
 4547WAT     H113883   8.881   6.311   0.796
 4547WAT     H213884   8.787   6.435   0.747
 4548WAT      O13885   6.871   2.621   3.098
 4548WAT     H113886   6.963   2.615   3.135
 4548WAT     H213887   6.830   2.709   3.123
 4549WAT      O13888   2.257   2.563   3.866
 4549WAT     H113889   2.293   2.653   3.890
 4549WAT     H213890   2.249   2.507   3.948
 4550WAT      O13891   1.690   7.053   4.326
 4550WAT     H113892   1.702   7.024   4.231
 4550WAT     H213893   1.641   6.982   4.377
 4551WAT      O13894   6.009   4.585   1.802
 4551WAT     H113895   6.051   4.514   1.746
 4551WAT     H213896   5.988   4.548   1.893
 4552WAT      O13897   7.213   6.908   5.263
 4552WAT     H113898   7.127   6.946   5.229
 4552WAT     H213899   7.198   6.864   5.351
 4553WAT      O13900   9.770   8.479   7.420
 4553WAT     H113901   9.869   8.485   7.405
 4553WAT     H213902   9.722   8.499   7.335
 4554WAT      O13903   6.624   2.326   7.259
 4554WAT     H113904   6.532   2.313   7.223
 4554WAT     H213905   6.682   2.249   7.231
 4555WAT      O13906   9.581   1.084   5.241
 4555WAT     H113907   9.654   1.022   5.213
 4555WAT     H213908   9.538   1.123   5.160
 4556WAT      O13909   7.171   1.058   0.128
 4556WAT     H113910   7.135   1.138   0.080
 4556WAT     H213911   7.223   1.088   0.208
 4557WAT      O13912   8.026   8.178   3.447
 4557WAT     H113913   8.098   8.116   3.416
 4557WAT     H213914   7.970   8.133   3.516
 4558WAT      O13915   0.021   3.668   4.963
 4558WAT     H113916  -0.023   3.723   4.892
 4558WAT     H213917   0.102   3.716   4.995
 4559WAT      O13918   2.846   3.289   7.489
 4559WAT     H113919   2.878   3.294   7.583
 4559WAT     H213920   2.848   3.380   7.448
 4560WAT      O13921   7.818   8.577   4.182
 4560WAT     H113922   7.840   8.673   4.160
 4560WAT     H213923   7.902   8.529   4.207
 4561WAT      O13924   3.212   2.680   8.826
 4561WAT     H113925   3.244   2.714   8.914
 4561WAT     H213926   3.128   2.627   8.839
 4562WAT      O13927   6.317   9.435   7.659
 4562WAT     H113928   6.257   9.510   7.634
 4562WAT     H213929   6.276   9.381   7.732
 4563WAT      O13930   9.757   3.162   5.923
 4563WAT     H113931   9.815   3.231   5.879
 4563WAT     H213932   9.776   3.072   5.883
 4564WAT      O13933   6.894   4.037   7.772
 4564WAT     H113934   6.891   4.133   7.747
 4564WAT     H213935   6.801   4.003   7.787
 4565WAT      O13936   0.135   8.405   3.950
 4565WAT     H113937   0.107   8.460   4.028
 4565WAT     H213938   0.174   8.464   3.879
 4566WAT      O13939   1.841   1.934   8.323
 4566WAT     H113940   1.873   1.997   8.394
 4566WAT     H213941   1.859   1.974   8.233
 4567WAT      O13942   5.871   3.125   3.296
 4567WAT     H113943   5.930   3.090   3.224
 4567WAT     H213944   5.899   3.088   3.384
 4568WAT      O13945   5.241   8.817   2.119
 4568WAT     H113946   5.146   8.815   2.089
 4568WAT     H213947   5.272   8.912   2.123
 4569WAT      O13948   3.297   7.433   7.830
 4569WAT     H113949   3.331   7.466   7.742
 4569WAT     H213950   3.203   7.399   7.818
 4570WAT      O13951   2.720   2.592   2.355
 4570WAT     H113952   2.644   2.562   2.413
 4570WAT     H213953   2.684   2.626   2.268
 4571WAT      O13954   2.053   6.869   7.717
 4571WAT     H113955   2.150   6.860   7.699
 4571WAT     H213956   2.039   6.891   7.814
 4572WAT      O13957   5.696   4.002   3.071
 4572WAT     H113958   5.716   4.080   3.131
 4572WAT     H213959   5.779   3.978   3.019
 4573WAT      O13960   6.111   6.697   4.955
 4573WAT     H113961   6.135   6.701   5.052
 4573WAT     H213962   6.043   6.625   4.940
 4574WAT      O13963   4.640   7.274   7.446
 4574WAT     H113964   4.687   7.186   7.451
 4574WAT     H213965   4.666   7.321   7.362
 4575WAT      O13966   6.937   4.782   4.776
 4575WAT     H113967   6.916   4.784   4.679
 4575WAT     H213968   7.033   4.806   4.790
 4576WAT      O13969   3.056   1.772   5.165
 4576WAT     H113970   3.062   1.841   5.093
 4576WAT     H213971   2.976   1.715   5.150
 4577WAT      O13972   2.278   9.821   5.670
 4577WAT     H113973   2.272   9.815   5.570
 4577WAT     H213974   2.348   9.887   5.695
 4578WAT      O13975   9.230   5.202   5.481
 4578WAT     H113976   9.304   5.143   5.449
 4578WAT     H213977   9.241   5.294   5.442
 4579WAT      O13978   1.156   2.924   2.727
 4579WAT     H113979   1.123   2.850   2.668
 4579WAT     H213980   1.228   2.888   2.787
 4580WAT      O13981   8.508   6.901   2.786
 4580WAT     H113982   8.482   6.842   2.710
 4580WAT     H213983   8.520   6.846   2.869
 4581WAT      O13984   2.095   2.512   4.843
 4581WAT     H113985   2.071   2.559   4.758
 4581WAT     H213986   2.168   2.563   4.890
 4582WAT      O13987   9.246   9.003   4.481
 4582WAT     H113988   9.212   8.956   4.563
 4582WAT     H213989   9.301   9.082   4.509
 4583WAT      O13990   9.136   2.763   7.471
 4583WAT     H113991   9.204   2.751   7.399
 4583WAT     H213992   9.176   2.815   7.547
 4584WAT      O13993   8.657   7.356   9.406
 4584WAT     H113994   8.681   7.260   9.413
 4584WAT     H213995   8.635   7.392   9.496
 4585WAT      O13996   4.357   1.890   7.405
 4585WAT     H113997   4.363   1.794   7.376
 4585WAT     H213998   4.386   1.949   7.330
 4586WAT      O13999   4.750   9.075   7.932
 4586WAT     H114000   4.677   9.128   7.889
 4586WAT     H214001   4.816   9.137   7.974
 4587WAT      O14002   1.616   8.712   7.783
 4587WAT     H114003   1.585   8.718   7.688
 4587WAT     H214004   1.548   8.755   7.843
 4588WAT      O14005   1.021   8.075   6.696
 4588WAT     H114006   1.076   7.992   6.685
 4588WAT     H214007   1.032   8.111   6.789
 4589WAT      O14008   2.987   4.288   8.052
 4589WAT     H114009   3.006   4.271   8.148
 4589WAT     H214010   3.030   4.218   7.996
 4590WAT      O14011   4.311   7.176   7.225
 4590WAT     H114012   4.294   7.077   7.231
 4590WAT     H214013   4.249   7.217   7.158
 4591WAT      O14014   2.153   3.707   8.300
 4591WAT     H114015   2.137   3.609   8.288
 4591WAT     H214016   2.086   3.744   8.364
 4592WAT      O14017   3.292   2.305   1.788
 4592WAT     H114018   3.274   2.401   1.806
 4592WAT     H214019   3.266   2.250   1.868
 4593WAT      O14020   7.942   3.154   5.189
 4593WAT     H114021   7.855   3.153   5.239
 4593WAT     H214022   7.978   3.061   5.184
 4594WAT      O14023   8.922   3.783   4.456
 4594WAT     H114024   8.886   3.771   4.363
 4594WAT     H214025   9.018   3.811   4.451
 4595WAT      O14026   6.424   9.369   5.744
 4595WAT     H114027   6.469   9.448   5.784
 4595WAT     H214028   6.455   9.286   5.791
 4596WAT      O14029   9.862   4.075   5.202
 4596WAT     H114030   9.855   4.145   5.131
 4596WAT     H214031   9.774   4.027   5.211
 4597WAT      O14032   1.725   3.432   5.364
 4597WAT     H114033   1.757   3.437   5.269
 4597WAT     H214034   1.656   3.360   5.372
 4598WAT      O14035   4.898   8.649   6.007
 4598WAT     H114036   4.886   8.749   6.007
 4598WAT     H214037   4.882   8.613   6.098
 4599WAT      O14038   0.705   1.876   6.065
 4599WAT     H114039   0.721   1.957   6.009
 4599WAT     H214040   0.777   1.868   6.133
 4600WAT      O14041   1.157   9.009   3.251
 4600WAT     H114042   1.081   9.031   3.190
 4600WAT     H214043   1.221   8.948   3.205
 4601WAT      O14044   6.567   8.110   7.060
 4601WAT     H114045   6.489   8.167   7.036
 4601WAT     H214046   6.536   8.018   7.082
 4602WAT      O14047   7.298   7.264   6.592
 4602WAT     H114048   7.235   7.341   6.598
 4602WAT     H214049   7.379   7.292   6.539
 4603WAT      O14050   0.498   1.979   1.073
 4603WAT     H114051   0.597   1.983   1.086
 4603WAT     H214052   0.464   2.067   1.040
 4604WAT      O14053   6.641   6.129   2.966
 4604WAT     H114054   6.604   6.042   2.934
 4604WAT     H214055   6.572   6.200   2.953
 4605WAT      O14056   9.863   8.684   7.864
 4605WAT     H114057   9.804   8.682   7.783
 4605WAT     H214058   9.809   8.714   7.943
 4606WAT      O14059   9.127   2.896   4.379
 4606WAT     H114060   9.187   2.931   4.451
 4606WAT     H214061   9.162   2.809   4.345
 4607WAT      O14062   7.136   6.995   7.289
 4607WAT     H114063   7.177   7.052   7.218
 4607WAT     H214064   7.097   6.913   7.247
 4608WAT      O14065   2.265   7.662   5.057
 4608WAT     H114066   2.173   7.626   5.073
 4608WAT     H214067   2.285   7.661   4.960
 4609WAT      O14068   5.022   7.389   9.149
 4609WAT     H114069   4.986   7.477   9.179
 4609WAT     H214070   4.988   7.316   9.208
 4610WAT      O14071   0.798   4.006   6.885
 4610WAT     H114072   0.884   4.013   6.937
 4610WAT     H214073   0.811   3.942   6.809
 4611WAT      O14074   8.189   9.001   7.162
 4611WAT     H114075   8.148   9.010   7.071
 4611WAT     H214076   8.262   8.933   7.159
 4612WAT      O14077   1.831   5.846   1.267
 4612WAT     H114078   1.874   5.879   1.183
 4612WAT     H214079   1.811   5.923   1.328
 4613WAT      O14080   2.810   4.165   3.108
 4613WAT     H114081   2.816   4.256   3.148
 4613WAT     H214082   2.715   4.143   3.088
 4614WAT      O14083   1.199   4.280   5.276
 4614WAT     H114084   1.176   4.304   5.182
 4614WAT     H214085   1.210   4.364   5.330
 4615WAT      O14086   1.436   4.360   0.774
 4615WAT     H114087   1.404   4.362   0.869
 4615WAT     H214088   1.362   4.389   0.713
 4616WAT      O14089   7.829   8.233   4.018
 4616WAT     H114090   7.814   8.179   4.102
 4616WAT     H214091   7.863   8.172   3.946
 4617WAT      O14092   9.675   2.605   4.743
 4617WAT     H114093   9.577   2.593   4.725
 4617WAT     H214094   9.705   2.538   4.811
 4618WAT      O14095   0.058   3.135   3.812
 4618WAT     H114096   0.137   3.088   3.852
 4618WAT     H214097   0.057   3.119   3.714
 4619WAT      O14098   0.884   9.015   7.106
 4619WAT     H114099   0.887   8.916   7.094
 4619WAT     H214100   0.974   9.048   7.134
 4620WAT      O14101   5.399   1.193   6.830
 4620WAT     H114102   5.403   1.246   6.916
 4620WAT     H214103   5.373   1.099   6.850
 4621WAT      O14104   1.244   0.742   9.448
 4621WAT     H114105   1.271   0.682   9.524
 4621WAT     H214106   1.322   0.756   9.387
 4622WAT      O14107   5.098   1.190   5.229
 4622WAT     H114108   5.096   1.172   5.328
 4622WAT     H214109   5.012   1.232   5.201
 4623WAT      O14110   2.363   4.556   9.628
 4623WAT     H114111   2.321   4.500   9.700
 4623WAT     H214112   2.433   4.503   9.580
 4624WAT      O14113   1.917   8.513   4.118
 4624WAT     H114114   1.935   8.592   4.059
 4624WAT     H214115   1.876   8.544   4.203
 4625WAT      O14116   9.701   4.492   6.468
 4625WAT     H114117   9.727   4.567   6.407
 4625WAT     H214118   9.606   4.467   6.453
 4626WAT      O14119   8.960   0.804   5.382
 4626WAT     H114120   9.042   0.859   5.366
 4626WAT     H214121   8.899   0.812   5.303
 4627WAT      O14122   1.016   6.306   7.391
 4627WAT     H114123   0.996   6.377   7.324
 4627WAT     H214124   1.025   6.218   7.346
 4628WAT      O14125   3.319   0.162   0.930
 4628WAT     H114126   3.418   0.159   0.923
 4628WAT     H214127   3.291   0.148   1.025
 4629WAT      O14128   6.789   0.600   6.460
 4629WAT     H114129   6.867   0.574   6.516
 4629WAT     H214130   6.804   0.570   6.366
 4630WAT      O14131   6.200   3.203   9.841
 4630WAT     H114132   6.190   3.292   9.797
 4630WAT     H214133   6.185   3.211   9.939
 4631WAT      O14134   6.252   2.385   8.375
 4631WAT     H114135   6.236   2.302   8.321
 4631WAT     H214136   6.264   2.360   8.471
 4632WAT      O14137   5.370   1.816   0.043
 4632WAT     H114138   5.319   1.747   0.093
 4632WAT     H214139   5.366   1.903   0.092
 4633WAT      O14140   2.089   9.845   8.799
 4633WAT     H114141   2.021   9.810   8.734
 4633WAT     H214142   2.095   9.784   8.878
 4634WAT      O14143   9.124   4.915   5.230
 4634WAT     H114144   9.044   4.856   5.223
 4634WAT     H214145   9.170   4.899   5.317
 4635WAT      O14146   4.538   4.905   8.655
 4635WAT     H114147   4.569   4.999   8.669
 4635WAT     H214148   4.600   4.857   8.594
 4636WAT      O14149   9.324   6.669   3.742
 4636WAT     H114150   9.289   6.580   3.771
 4636WAT     H214151   9.286   6.694   3.653
 4637WAT      O14152   3.258   9.555   4.255
 4637WAT     H114153   3.356   9.539   4.245
 4637WAT     H214154   3.231   9.538   4.350
 4638WAT      O14155   1.907   3.077   4.311
 4638WAT     H114156   1.939   3.166   4.279
 4638WAT     H214157   1.968   3.005   4.278
 4639WAT      O14158   7.262   2.526   7.236
 4639WAT     H114159   7.341   2.550   7.180
 4639WAT     H214160   7.183   2.582   7.209
 4640WAT      O14161   5.296   6.102   9.347
 4640WAT     H114162   5.337   6.132   9.433
 4640WAT     H214163   5.368   6.078   9.282
 4641WAT      O14164   2.910   0.621   4.608
 4641WAT     H114165   2.869   0.619   4.517
 4641WAT     H214166   3.010   0.623   4.600
 4642WAT      O14167   2.782   2.049   3.615
 4642WAT     H114168   2.691   2.052   3.656
 4642WAT     H214169   2.828   1.963   3.641
 4643WAT      O14170   1.179   7.727   3.089
 4643WAT     H114171   1.251   7.737   3.157
 4643WAT     H214172   1.095   7.695   3.133
 4644WAT      O14173   5.255   6.451   0.900
 4644WAT     H114174   5.235   6.381   0.969
 4644WAT     H214175   5.353   6.447   0.877
 4645WAT      O14176   8.006   3.278   8.481
 4645WAT     H114177   7.929   3.214   8.477
 4645WAT     H214178   8.025   3.301   8.577
 4646WAT      O14179   5.898   7.065   2.482
 4646WAT     H114180   5.821   7.122   2.510
 4646WAT     H214181   5.984   7.110   2.507
 4647WAT      O14182   4.635   0.635   1.887
 4647WAT     H114183   4.537   0.627   1.899
 4647WAT     H214184   4.676   0.681   1.965
 4648WAT      O14185   3.510   0.492   2.022
 4648WAT     H114186   3.473   0.428   1.954
 4648WAT     H214187   3.435   0.532   2.074
 4649WAT      O14188   8.708   5.488   4.776
 4649WAT     H114189   8.782   5.547   4.811
 4649WAT     H214190   8.748   5.405   4.738
 4650WAT      O14191   8.150   8.085   2.689
 4650WAT     H114192   8.191   8.107   2.778
 4650WAT     H214193   8.145   7.986   2.678
 4651WAT      O14194   9.075   0.918   3.846
 4651WAT     H114195   9.166   0.955   3.826
 4651WAT     H214196   9.023   0.908   3.761
 4652WAT      O14197   3.604   5.177   6.701
 4652WAT     H114198   3.540   5.239   6.747
 4652WAT     H214199   3.666   5.137   6.769
 4653WAT      O14200   9.709   2.576   8.749
 4653WAT     H114201   9.629   2.520   8.728
 4653WAT     H214202   9.701   2.614   8.841
 4654WAT      O14203   0.472   1.431   7.589
 4654WAT     H114204   0.497   1.475   7.676
 4654WAT     H214205   0.440   1.338   7.607
 4655WAT      O14206   0.883   1.841   2.666
 4655WAT     H114207   0.792   1.812   2.697
 4655WAT     H214208   0.951   1.777   2.699
 4656WAT      O14209   5.032   7.369   6.018
 4656WAT     H114210   5.020   7.464   5.986
 4656WAT     H214211   4.943   7.323   6.017
 4657WAT      O14212   2.234   6.446   4.425
 4657WAT     H114213   2.275   6.362   4.390
 4657WAT     H214214   2.241   6.447   4.525
 4658WAT      O14215   3.398   2.726   7.272
 4658WAT     H114216   3.456   2.805   7.252
 4658WAT     H214217   3.457   2.648   7.297
 4659WAT      O14218   2.745   6.937   6.682
 4659WAT     H114219   2.758   6.998   6.760
 4659WAT     H214220   2.824   6.877   6.674
 4660WAT      O14221   0.605   6.275   5.935
 4660WAT     H114222   0.677   6.342   5.953
 4660WAT     H214223   0.530   6.289   5.999
 4661WAT      O14224   7.830   6.834   2.832
 4661WAT     H114225   7.753   6.869   2.885
 4661WAT     H214226   7.823   6.735   2.823
 4662WAT      O14227   4.164   5.875   0.458
 4662WAT     H114228   4.224   5.804   0.420
 4662WAT     H214229   4.108   5.914   0.384
 4663WAT      O14230   1.914   2.025   7.696
 4663WAT     H114231   1.980   2.093   7.666
 4663WAT     H214232   1.842   2.015   7.628
 4664WAT      O14233   9.280   8.986   3.810
 4664WAT     H114234   9.218   9.064   3.807
 4664WAT     H214235   9.230   8.905   3.841
 4665WAT      O14236   6.500   1.336   5.274
 4665WAT     H114237   6.600   1.332   5.261
 4665WAT     H214238   6.468   1.248   5.309
 4666WAT      O14239   9.665   2.166   6.589
 4666WAT     H114240   9.695   2.102   6.519
 4666WAT     H214241   9.565   2.173   6.588
 4667WAT      O14242   9.151   3.704   2.425
 4667WAT     H114243   9.246   3.735   2.425
 4667WAT     H214244   9.137   3.639   2.351
 4668WAT      O14245   4.042   5.258   8.553
 4668WAT     H114246   3.988   5.219   8.628
 4668WAT     H214247   4.081   5.184   8.498
 4669WAT      O14248   3.687   5.250   6.445
 4669WAT     H114249   3.778   5.209   6.440
 4669WAT     H214250   3.643   5.224   6.531
 4670WAT      O14251   6.229   3.267   3.351
 4670WAT     H114252   6.282   3.183   3.345
 4670WAT     H214253   6.282   3.337   3.400
 4671WAT      O14254   5.264   9.275   7.816
 4671WAT     H114255   5.224   9.220   7.742
 4671WAT     H214256   5.319   9.216   7.875
 4672WAT      O14257   2.587   2.617   7.202
 4672WAT     H114258   2.676   2.662   7.201
 4672WAT     H214259   2.597   2.522   7.173
 4673WAT      O14260   3.958   5.834   2.397
 4673WAT     H114261   3.990   5.811   2.306
 4673WAT     H214262   3.926   5.929   2.399
 4674WAT      O14263   8.005   1.184   7.570
 4674WAT     H114264   8.053   1.143   7.648
 4674WAT     H214265   8.034   1.280   7.560
 4675WAT      O14266   6.359   9.796   7.195
 4675WAT     H114267   6.371   9.891   7.169
 4675WAT     H214268   6.262   9.771   7.187
 4676WAT      O14269   1.142   2.246   0.573
 4676WAT     H114270   1.178   2.155   0.589
 4676WAT     H214271   1.217   2.311   0.567
 4677WAT      O14272   2.929   5.172   3.706
 4677WAT     H114273   2.901   5.157   3.801
 4677WAT     H214274   2.987   5.096   3.676
 4678WAT      O14275   5.430   3.302   8.733
 4678WAT     H114276   5.452   3.310   8.636
 4678WAT     H214277   5.379   3.383   8.762
 4679WAT      O14278   5.041   5.274   4.151
 4679WAT     H114279   5.117   5.278   4.215
 4679WAT     H214280   5.075   5.252   4.060
 4680WAT      O14281   4.152   8.165   0.347
 4680WAT     H114282   4.123   8.233   0.280
 4680WAT     H214283   4.201   8.091   0.300
 4681WAT      O14284   3.708   7.442   7.194
 4681WAT     H114285   3.613   7.409   7.196
 4681WAT     H214286   3.725   7.490   7.108
 4682WAT      O14287   9.362   8.943   7.607
 4682WAT     H114288   9.421   9.010   7.651
 4682WAT     H214289   9.333   8.875   7.675
 4683WAT      O14290   6.410   4.757   4.461
 4683WAT     H114291   6.401   4.856   4.462
 4683WAT     H214292   6.471   4.729   4.387
 4684WAT      O14293   1.078   0.700   4.493
 4684WAT     H114294   1.021   0.662   4.420
 4684WAT     H214295   1.095   0.629   4.561
 4685WAT      O14296   5.178   3.461   7.369
 4685WAT     H114297   5.273   3.445   7.341
 4685WAT     H214298   5.177   3.506   7.458
 4686WAT      O14299   5.636   6.498   6.208
 4686WAT     H114300   5.726   6.544   6.208
 4686WAT     H214301   5.644   6.410   6.253
 4687WAT      O14302   9.327   6.151   9.292
 4687WAT     H114303   9.351   6.234   9.241
 4687WAT     H214304   9.411   6.107   9.324
 4688WAT      O14305   1.826   5.971   4.184
 4688WAT     H114306   1.781   5.887   4.213
 4688WAT     H214307   1.842   6.029   4.264
 4689WAT      O14308   8.837   7.203   7.407
 4689WAT     H114309   8.737   7.210   7.397
 4689WAT     H214310   8.858   7.143   7.484
 4690WAT      O14311   3.711   1.865   3.149
 4690WAT     H114312   3.704   1.899   3.056
 4690WAT     H214313   3.741   1.939   3.210
 4691WAT      O14314   4.435   2.932   9.015
 4691WAT     H114315   4.450   2.986   9.098
 4691WAT     H214316   4.355   2.873   9.028
 4692WAT      O14317   0.822   8.194   2.391
 4692WAT     H114318   0.870   8.216   2.306
 4692WAT     H214319   0.733   8.240   2.392
 4693WAT      O14320   8.109   0.529   9.473
 4693WAT     H114321   8.136   0.625   9.475
 4693WAT     H214322   8.027   0.519   9.417
 4694WAT      O14323   8.614   2.642   0.235
 4694WAT     H114324   8.707   2.607   0.229
 4694WAT     H214325   8.563   2.615   0.153
 4695WAT      O14326   1.105   5.813   2.667
 4695WAT     H114327   1.159   5.763   2.599
 4695WAT     H214328   1.165   5.863   2.729
 4696WAT      O14329   6.814   4.562   7.241
 4696WAT     H114330   6.742   4.550   7.173
 4696WAT     H214331   6.831   4.659   7.256
 4697WAT      O14332   8.058   3.549   8.881
 4697WAT     H114333   7.996   3.573   8.955
 4697WAT     H214334   8.147   3.524   8.918
 4698WAT      O14335   3.386   3.377   1.056
 4698WAT     H114336   3.423   3.469   1.070
 4698WAT     H214337   3.308   3.382   0.994
 4699WAT      O14338   0.448   8.597   0.686
 4699WAT     H114339   0.387   8.527   0.647
 4699WAT     H214340   0.396   8.655   0.749
 4700WAT      O14341   4.307   2.167   2.464
 4700WAT     H114342   4.356   2.173   2.551
 4700WAT     H214343   4.289   2.259   2.429
 4701WAT      O14344   4.643   2.334   3.868
 4701WAT     H114345   4.646   2.344   3.967
 4701WAT     H214346   4.643   2.425   3.825
 4702WAT      O14347   5.623   5.446   0.096
 4702WAT     H114348   5.669   5.358   0.104
 4702WAT     H214349   5.571   5.449   0.011
 4703WAT      O14350   3.727   9.311   7.325
 4703WAT     H114351   3.661   9.237   7.311
 4703WAT     H214352   3.694   9.393   7.278
 4704WAT      O14353   5.132   6.083   3.786
 4704WAT     H114354   5.175   6.007   3.835
 4704WAT     H214355   5.043   6.054   3.752
 4705WAT      O14356   3.979   2.477   2.445
 4705WAT     H114357   4.070   2.441   2.424
 4705WAT     H214358   3.936   2.421   2.516
 4706WAT      O14359   7.919   5.411   8.050
 4706WAT     H114360   7.889   5.319   8.025
 4706WAT     H214361   7.936   5.464   7.967
 4707WAT      O14362   0.754   1.818   8.732
 4707WAT     H114363   0.683   1.879   8.767
 4707WAT     H214364   0.727   1.723   8.746
 4708WAT      O14365   1.198   6.790   8.875
 4708WAT     H114366   1.188   6.836   8.963
 4708WAT     H214367   1.130   6.716   8.868
 4709WAT      O14368   5.028   6.468   2.593
 4709WAT     H114369   5.120   6.450   2.557
 4709WAT     H214370   4.966   6.395   2.565
 4710WAT      O14371   5.013   0.442   3.915
 4710WAT     H114372   4.960   0.501   3.976
 4710WAT     H214373   5.047   0.496   3.838
 4711WAT      O14374   3.394   5.855   3.346
 4711WAT     H114375   3.342   5.909   3.280
 4711WAT     H214376   3.426   5.771   3.303
 4712WAT      O14377   0.451   9.288   8.272
 4712WAT     H114378   0.455   9.190   8.289
 4712WAT     H214379   0.509   9.311   8.194
 4713WAT      O14380   9.601   9.610   5.512
 4713WAT     H114381   9.524   9.623   5.574
 4713WAT     H214382   9.686   9.614   5.564
 4714WAT      O14383   1.289   0.074   9.202
 4714WAT     H114384   1.362   0.140   9.216
 4714WAT     H214385   1.230   0.105   9.127
 4715WAT      O14386   4.949   2.538   4.162
 4715WAT     H114387   4.944   2.581   4.072
 4715WAT     H214388   4.997   2.598   4.226
 4716WAT      O14389   5.648   3.603   6.702
 4716WAT     H114390   5.680   3.509   6.692
 4716WAT     H214391   5.548   3.606   6.694
 4717WAT      O14392   2.159   6.179   6.784
 4717WAT     H114393   2.114   6.266   6.802
 4717WAT     H214394   2.217   6.187   6.703
 4718WAT      O14395   2.208   1.906   2.928
 4718WAT     H114396   2.260   1.909   2.843
 4718WAT     H214397   2.118   1.947   2.913
 4719WAT      O14398   7.349   7.514   6.791
 4719WAT     H114399   7.302   7.496   6.877
 4719WAT     H214400   7.350   7.613   6.773
 4720WAT      O14401   0.271   0.093   0.409
 4720WAT     H114402   0.171   0.102   0.412
 4720WAT     H214403   0.297   0.002   0.442
 4721WAT      O14404   4.185   0.353   3.146
 4721WAT     H114405   4.278   0.349   3.111
 4721WAT     H214406   4.164   0.446   3.175
 4722WAT      O14407   4.342   8.138   3.090
 4722WAT     H114408   4.274   8.072   3.060
 4722WAT     H214409   4.424   8.089   3.121
 4723WAT      O14410   5.976   3.018   8.551
 4723WAT     H114411   6.043   2.953   8.585
 4723WAT     H214412   5.967   3.094   8.616
 4724WAT      O14413   4.234   2.904   1.688
 4724WAT     H114414   4.227   2.862   1.598
 4724WAT     H214415   4.232   3.004   1.679
 4725WAT      O14416   2.753   1.893   8.489
 4725WAT     H114417   2.778   1.818   8.427
 4725WAT     H214418   2.654   1.907   8.487
 4726WAT      O14419   7.284   2.768   0.193
 4726WAT     H114420   7.263   2.828   0.270
 4726WAT     H214421   7.219   2.785   0.118
 4727WAT      O14422   0.716   0.402   4.292
 4727WAT     H114423   0.685   0.325   4.237
 4727WAT     H214424   0.755   0.472   4.232
 4728WAT      O14425   4.691   1.488   1.019
 4728WAT     H114426   4.733   1.410   1.065
 4728WAT     H214427   4.592   1.483   1.027
 4729WAT      O14428   6.629   9.795   0.796
 4729WAT     H114429   6.678   9.786   0.882
 4729WAT     H214430   6.694   9.791   0.720
 4730WAT      O14431   4.520   9.091   9.363
 4730WAT     H114432   4.579   9.159   9.317
 4730WAT     H214433   4.569   9.004   9.369
 4731WAT      O14434   9.591   0.635   5.398
 4731WAT     H114435   9.660   0.654   5.329
 4731WAT     H214436   9.576   0.717   5.454
 4732WAT      O14437   2.819   1.758   6.010
 4732WAT     H114438   2.769   1.788   5.929
 4732WAT     H214439   2.917   1.751   5.988
 4733WAT      O14440   0.927   0.919   4.823
 4733WAT     H114441   0.978   0.923   4.738
 4733WAT     H214442   0.840   0.872   4.808
 4734WAT      O14443   3.417   1.482   5.416
 4734WAT     H114444   3.395   1.534   5.333
 4734WAT     H214445   3.512   1.452   5.412
 4735WAT      O14446   2.947   0.206   3.614
 4735WAT     H114447   2.963   0.174   3.707
 4735WAT     H214448   2.849   0.209   3.596
 4736WAT      O14449   5.736   2.496   9.202
 4736WAT     H114450   5.706   2.437   9.126
 4736WAT     H214451   5.691   2.585   9.194
 4737WAT      O14452   6.397   3.174   8.020
 4737WAT     H114453   6.310   3.138   7.985
 4737WAT     H214454   6.389   3.273   8.034
 4738WAT      O14455   1.865   8.759   8.962
 4738WAT     H114456   1.919   8.825   9.014
 4738WAT     H214457   1.876   8.668   9.001
 4739WAT      O14458   2.152   0.965   0.579
 4739WAT     H114459   2.252   0.964   0.581
 4739WAT     H214460   2.121   0.997   0.490
 4740WAT      O14461   8.581   8.958   8.702
 4740WAT     H114462   8.486   8.948   8.731
 4740WAT     H214463   8.586   9.016   8.620
 4741WAT      O14464   0.652   2.323   0.414
 4741WAT     H114465   0.557   2.294   0.413
 4741WAT     H214466   0.712   2.243   0.416
 4742WAT      O14467   5.904   5.912   9.530
 4742WAT     H114468   5.940   5.921   9.623
 4742WAT     H214469   5.889   6.003   9.491
 4743WAT      O14470   2.381   0.330   7.377
 4743WAT     H114471   2.406   0.275   7.457
 4743WAT     H214472   2.282   0.330   7.366
 4744WAT      O14473   4.274   0.837   9.876
 4744WAT     H114474   4.177   0.860   9.888
 4744WAT     H214475   4.288   0.740   9.894
 4745WAT      O14476   4.938   8.901   6.909
 4745WAT     H114477   5.029   8.882   6.870
 4745WAT     H214478   4.903   8.818   6.952
 4746WAT      O14479   2.329   0.518   0.499
 4746WAT     H114480   2.368   0.523   0.591
 4746WAT     H214481   2.236   0.483   0.505
 4747WAT      O14482   6.934   0.361   7.533
 4747WAT     H114483   6.858   0.402   7.482
 4747WAT     H214484   6.958   0.418   7.611
 4748WAT      O14485   1.481   8.810   2.154
 4748WAT     H114486   1.511   8.903   2.179
 4748WAT     H214487   1.384   8.812   2.129
 4749WAT      O14488   1.380   4.743   3.972
 4749WAT     H114489   1.465   4.719   3.924
 4749WAT     H214490   1.323   4.800   3.913
 4750WAT      O14491   7.284   7.531   9.446
 4750WAT     H114492   7.374   7.512   9.484
 4750WAT     H214493   7.293   7.548   9.347
 4751WAT      O14494   7.256   4.406   8.215
 4751WAT     H114495   7.239   4.338   8.287
 4751WAT     H214496   7.213   4.493   8.240
 4752WAT      O14497   7.964   2.213   0.216
 4752WAT     H114498   8.050   2.166   0.235
 4752WAT     H214499   7.915   2.231   0.302
 4753WAT      O14500   3.447   8.555   5.834
 4753WAT     H114501   3.502   8.632   5.867
 4753WAT     H214502   3.500   8.503   5.767
 4754WAT      O14503   1.850   8.321   0.675
 4754WAT     H114504   1.887   8.252   0.737
 4754WAT     H214505   1.827   8.279   0.588
 4755WAT      O14506   3.287   3.694   2.139
 4755WAT     H114507   3.208   3.635   2.123
 4755WAT     H214508   3.370   3.649   2.107
 4756WAT      O14509   7.239   8.734   9.594
 4756WAT     H114510   7.238   8.780   9.506
 4756WAT     H214511   7.234   8.802   9.668
 4757WAT      O14512   7.937   1.658   0.563
 4757WAT     H114513   7.908   1.640   0.469
 4757WAT     H214514   8.029   1.697   0.562
 4758WAT      O14515   7.186   7.525   8.498
 4758WAT     H114516   7.185   7.442   8.553
 4758WAT     H214517   7.271   7.576   8.515
 4759WAT      O14518   4.708   2.361   7.604
 4759WAT     H114519   4.786   2.326   7.655
 4759WAT     H214520   4.690   2.456   7.632
 4760WAT      O14521   5.109   4.086   7.813
 4760WAT     H114522   5.106   4.040   7.902
 4760WAT     H214523   5.203   4.087   7.779
 4761WAT      O14524   8.940   6.265   8.586
 4761WAT     H114525   8.919   6.170   8.611
 4761WAT     H214526   8.948   6.273   8.487
 4762WAT      O14527   2.948   2.892   0.165
 4762WAT     H114528   2.958   2.809   0.110
 4762WAT     H214529   2.929   2.867   0.260
 4763WAT      O14530   8.816   9.489   8.004
 4763WAT     H114531   8.832   9.564   7.940
 4763WAT     H214532   8.783   9.409   7.954
 4764WAT      O14533   2.417   0.993   4.479
 4764WAT     H114534   2.474   0.939   4.540
 4764WAT     H214535   2.335   1.024   4.528
 4765WAT      O14536   6.544   7.882   6.825
 4765WAT     H114537   6.576   7.857   6.917
 4765WAT     H214538   6.453   7.843   6.809
 4766WAT      O14539   8.420   8.429   5.476
 4766WAT     H114540   8.321   8.431   5.487
 4766WAT     H214541   8.452   8.518   5.445
 4767WAT      O14542   2.375   7.602   5.437
 4767WAT     H114543   2.364   7.648   5.349
 4767WAT     H214544   2.374   7.670   5.510
 4768WAT      O14545   0.001   0.871   9.209
 4768WAT     H114546   0.055   0.854   9.127
 4768WAT     H214547  -0.059   0.793   9.226
 4769WAT      O14548   7.452   6.638   2.587
 4769WAT     H114549   7.358   6.671   2.578
 4769WAT     H214550   7.454   6.540   2.565
 4770WAT      O14551   1.022   3.904   4.421
 4770WAT     H114552   0.941   3.960   4.406
 4770WAT     H214553   1.102   3.963   4.433
 4771WAT      O14554   0.331   0.278   5.261
 4771WAT     H114555   0.294   0.287   5.169
 4771WAT     H214556   0.257   0.262   5.326
 4772WAT      O14557   5.747   4.303   4.377
 4772WAT     H114558   5.812   4.292   4.452
 4772WAT     H214559   5.796   4.299   4.290
 4773WAT      O14560   8.181   4.979   5.953
 4773WAT     H114561   8.143   5.005   5.865
 4773WAT     H214562   8.184   4.879   5.960
 4774WAT      O14563   0.022   2.875   2.508
 4774WAT     H114564  -0.020   2.858   2.598
 4774WAT     H214565   0.029   2.788   2.458
 4775WAT      O14566   0.865   4.772   7.399
 4775WAT     H114567   0.822   4.766   7.309
 4775WAT     H214568   0.897   4.866   7.415
 4776WAT      O14569   0.703   3.363   8.757
 4776WAT     H114570   0.621   3.420   8.756
 4776WAT     H214571   0.724   3.331   8.665
 4777WAT      O14572   6.088   7.024   7.233
 4777WAT     H114573   6.012   7.068   7.186
 4777WAT     H214574   6.054   6.975   7.313
 4778WAT      O14575   2.736   3.745   1.229
 4778WAT     H114576   2.688   3.750   1.317
 4778WAT     H214577   2.810   3.679   1.235
 4779WAT      O14578   1.969   5.260   2.623
 4779WAT     H114579   1.906   5.207   2.567
 4779WAT     H214580   2.048   5.204   2.646
 4780WAT      O14581   7.620   4.901   0.183
 4780WAT     H114582   7.524   4.927   0.177
 4780WAT     H214583   7.633   4.810   0.144
 4781WAT      O14584   8.486   8.381   8.329
 4781WAT     H114585   8.465   8.357   8.234
 4781WAT     H214586   8.580   8.353   8.350
 4782WAT      O14587   6.588   4.635   9.317
 4782WAT     H114588   6.619   4.559   9.373
 4782WAT     H214589   6.582   4.606   9.221
 4783WAT      O14590   8.023   7.052   6.601
 4783WAT     H114591   7.926   7.057   6.578
 4783WAT     H214592   8.045   7.124   6.668
 4784WAT      O14593   3.511   8.682   4.146
 4784WAT     H114594   3.433   8.708   4.203
 4784WAT     H214595   3.518   8.745   4.069
 4785WAT      O14596   9.674   0.153   7.261
 4785WAT     H114597   9.761   0.202   7.257
 4785WAT     H214598   9.634   0.164   7.353
 4786WAT      O14599   2.329   4.011   0.741
 4786WAT     H114600   2.368   4.102   0.748
 4786WAT     H214601   2.295   3.982   0.830
 4787WAT      O14602   2.572   2.846   5.654
 4787WAT     H114603   2.519   2.794   5.587
 4787WAT     H214604   2.660   2.801   5.669
 4788WAT      O14605   5.646   6.052   1.868
 4788WAT     H114606   5.679   6.014   1.782
 4788WAT     H214607   5.548   6.070   1.861
 4789WAT      O14608   8.787   9.022   4.393
 4789WAT     H114609   8.771   9.052   4.487
 4789WAT     H214610   8.864   9.073   4.354
 4790WAT      O14611   5.558   8.828   0.313
 4790WAT     H114612   5.621   8.822   0.236
 4790WAT     H214613   5.587   8.903   0.373
 4791WAT      O14614   4.745   6.156   5.176
 4791WAT     H114615   4.751   6.256   5.184
 4791WAT     H214616   4.835   6.116   5.189
 4792WAT      O14617   2.080   9.798   3.607
 4792WAT     H114618   2.054   9.704   3.628
 4792WAT     H214619   2.000   9.857   3.613
 4793WAT      O14620   4.094   8.994   9.878
 4793WAT     H114621   4.097   8.914   9.819
 4793WAT     H214622   4.162   8.984   9.951
 4794WAT      O14623   7.377   2.542   7.963
 4794WAT     H114624   7.401   2.463   8.018
 4794WAT     H214625   7.345   2.616   8.023
 4795WAT      O14626   1.426   7.757   7.511
 4795WAT     H114627   1.449   7.845   7.471
 4795WAT     H214628   1.478   7.744   7.595
 4796WAT      O14629   3.466   1.992   5.046
 4796WAT     H114630   3.462   2.084   5.006
 4796WAT     H214631   3.402   1.986   5.122
 4797WAT      O14632   7.676   0.948   6.263
 4797WAT     H114633   7.650   0.990   6.176
 4797WAT     H214634   7.682   0.849   6.251
 4798WAT      O14635   0.673   2.662   8.713
 4798WAT     H114636   0.578   2.651   8.685
 4798WAT     H214637   0.726   2.584   8.680
 4799WAT      O14638   0.553   3.953   7.020
 4799WAT     H114639   0.510   3.886   6.960
 4799WAT     H214640   0.638   3.985   6.978
 4800WAT      O14641   5.899   1.959   1.501
 4800WAT     H114642   5.829   2.010   1.551
 4800WAT     H214643   5.986   1.966   1.550
 4801WAT      O14644   4.995   7.318   1.891
 4801WAT     H114645   5.081   7.295   1.847
 4801WAT     H214646   4.952   7.394   1.842
 4802WAT      O14647   2.277   8.064   8.241
 4802WAT     H114648   2.224   8.086   8.323
 4802WAT     H214649   2.362   8.116   8.242
 4803WAT      O14650   6.545   1.223   0.116
 4803WAT     H114651   6.544   1.129   0.079
 4803WAT     H214652   6.553   1.219   0.215
 4804WAT      O14653   7.456   6.562   5.179
 4804WAT     H114654   7.458   6.626   5.255
 4804WAT     H214655   7.382   6.495   5.193
 4805WAT      O14656   2.313   0.117   8.625
 4805WAT     H114657   2.403   0.073   8.623
 4805WAT     H214658   2.254   0.070   8.691
 4806WAT      O14659   1.907   7.566   9.345
 4806WAT     H114660   1.963   7.649   9.346
 4806WAT     H214661   1.877   7.547   9.252
 4807WAT      O14662   4.055   8.558   5.481
 4807WAT     H114663   3.988   8.630   5.468
 4807WAT     H214664   4.044   8.518   5.572
 4808WAT      O14665   2.393   5.349   0.805
 4808WAT     H114666   2.396   5.309   0.714
 4808WAT     H214667   2.343   5.288   0.867
 4809WAT      O14668   1.683   0.056   3.026
 4809WAT     H114669   1.747   0.087   3.096
 4809WAT     H214670   1.713   0.090   2.936
 4810WAT      O14671   9.799   4.146   5.707
 4810WAT     H114672   9.871   4.191   5.654
 4810WAT     H214673   9.822   4.050   5.721
 4811WAT      O14674   3.027   9.062   4.001
 4811WAT     H114675   3.079   9.127   3.946
 4811WAT     H214676   2.966   9.112   4.063
 4812WAT      O14677   4.835   9.085   7.622
 4812WAT     H114678   4.933   9.091   7.639
 4812WAT     H214679   4.799   9.176   7.605
 4813WAT      O14680   5.253   3.750   9.051
 4813WAT     H114681   5.297   3.704   9.128
 4813WAT     H214682   5.322   3.799   8.997
 4814WAT      O14683   9.090   8.328   1.676
 4814WAT     H114684   9.121   8.315   1.770
 4814WAT     H214685   9.162   8.302   1.613
 4815WAT      O14686   3.785   0.293   5.016
 4815WAT     H114687   3.856   0.323   4.953
 4815WAT     H214688   3.711   0.250   4.965
 4816WAT      O14689   0.319   9.304   5.592
 4816WAT     H114690   0.335   9.402   5.580
 4816WAT     H214691   0.221   9.285   5.585
 4817WAT      O14692   8.132   0.904   0.453
 4817WAT     H114693   8.207   0.942   0.399
 4817WAT     H214694   8.072   0.978   0.484
 4818WAT      O14695   2.838   5.587   3.119
 4818WAT     H114696   2.755   5.592   3.064
 4818WAT     H214697   2.815   5.583   3.216
 4819WAT      O14698   1.991   8.408   4.682
 4819WAT     H114699   2.054   8.370   4.614
 4819WAT     H214700   1.898   8.407   4.645
 4820WAT      O14701   5.129   7.804   5.642
 4820WAT     H114702   5.046   7.819   5.590
 4820WAT     H214703   5.133   7.708   5.672
 4821WAT      O14704   4.226   7.919   1.760
 4821WAT     H114705   4.235   7.890   1.856
 4821WAT     H214706   4.144   7.878   1.721
 4822WAT      O14707   6.182   7.234   6.563
 4822WAT     H114708   6.111   7.304   6.566
 4822WAT     H214709   6.224   7.235   6.472
 4823WAT      O14710   1.976   7.424   6.893
 4823WAT     H114711   1.991   7.495   6.961
 4823WAT     H214712   2.059   7.411   6.839
 4824WAT      O14713   0.942   2.296   1.516
 4824WAT     H114714   0.900   2.360   1.579
 4824WAT     H214715   0.934   2.330   1.422
 4825WAT      O14716   2.970   1.608   3.077
 4825WAT     H114717   3.035   1.663   3.129
 4825WAT     H214718   2.956   1.649   2.987
 4826WAT      O14719   0.241   1.742   9.286
 4826WAT     H114720   0.286   1.655   9.307
 4826WAT     H214721   0.177   1.729   9.210
 4827WAT      O14722   0.142   4.215   8.438
 4827WAT     H114723   0.210   4.279   8.473
 4827WAT     H214724   0.067   4.206   8.504
 4828WAT      O14725   4.761   1.122   5.950
 4828WAT     H114726   4.815   1.205   5.961
 4828WAT     H214727   4.818   1.042   5.966
 4829WAT      O14728   5.537   5.987   7.570
 4829WAT     H114729   5.462   6.049   7.591
 4829WAT     H214730   5.548   5.921   7.644
 4830WAT      O14731   2.547   8.688   4.651
 4830WAT     H114732   2.504   8.759   4.707
 4830WAT     H214733   2.507   8.689   4.559
 4831WAT      O14734   4.904   9.569   8.145
 4831WAT     H114735   4.969   9.629   8.099
 4831WAT     H214736   4.857   9.512   8.078
 4832WAT      O14737   0.287   2.757   7.546
 4832WAT     H114738   0.359   2.758   7.615
 4832WAT     H214739   0.323   2.787   7.458
 4833WAT      O14740   2.480   3.223   8.386
 4833WAT     H114741   2.423   3.153   8.342
 4833WAT     H214742   2.537   3.181   8.455
 4834WAT      O14743   2.465   0.225   0.350
 4834WAT     H114744   2.370   0.196   0.352
 4834WAT     H214745   2.504   0.219   0.442
 4835WAT      O14746   0.191   9.540   7.125
 4835WAT     H114747   0.256   9.565   7.197
 4835WAT     H214748   0.235   9.479   7.060
 4836WAT      O14749   7.772   1.109   2.251
 4836WAT     H114750   7.695   1.123   2.189
 4836WAT     H214751   7.820   1.025   2.226
 4837WAT      O14752   4.065   0.397   4.993
 4837WAT     H114753   4.066   0.415   5.092
 4837WAT     H214754   4.080   0.483   4.944
 4838WAT      O14755   2.853   5.853   6.947
 4838WAT     H114756   2.817   5.891   6.862
 4838WAT     H214757   2.930   5.793   6.926
 4839WAT      O14758   0.339   3.695   3.953
 4839WAT     H114759   0.286   3.770   3.913
 4839WAT     H214760   0.280   3.617   3.971
 4840WAT      O14761   8.684   3.545   0.176
 4840WAT     H114762   8.674   3.638   0.142
 4840WAT     H214763   8.622   3.531   0.254
 4841WAT      O14764   5.017   9.773   3.557
 4841WAT     H114765   5.114   9.794   3.544
 4841WAT     H214766   4.986   9.713   3.484
 4842WAT      O14767   2.217   1.780   0.367
 4842WAT     H114768   2.165   1.845   0.312
 4842WAT     H214769   2.159   1.703   0.392
 4843WAT      O14770   2.314   3.879   2.882
 4843WAT     H114771   2.272   3.878   2.973
 4843WAT     H214772   2.245   3.853   2.814
 4844WAT      O14773   2.457   6.449   0.242
 4844WAT     H114774   2.556   6.439   0.246
 4844WAT     H214775   2.416   6.361   0.217
 4845WAT      O14776   9.125   2.825   5.061
 4845WAT     H114777   9.045   2.857   5.011
 4845WAT     H214778   9.107   2.827   5.159
 4846WAT      O14779   6.559   2.241   5.047
 4846WAT     H114780   6.587   2.175   4.979
 4846WAT     H214781   6.633   2.307   5.063
 4847WAT      O14782   8.612   4.001   7.755
 4847WAT     H114783   8.619   3.906   7.785
 4847WAT     H214784   8.642   4.008   7.660
 4848WAT      O14785   4.260   6.800   9.571
 4848WAT     H114786   4.340   6.742   9.560
 4848WAT     H214787   4.178   6.751   9.542
 4849WAT      O14788   0.690   1.206   3.358
 4849WAT     H114789   0.594   1.227   3.374
 4849WAT     H214790   0.699   1.113   3.322
 4850WAT      O14791   3.973   7.211   5.980
 4850WAT     H114792   4.049   7.147   5.993
 4850WAT     H214793   4.005   7.304   5.999
 4851WAT      O14794   0.617   4.989   1.811
 4851WAT     H114795   0.612   5.088   1.799
 4851WAT     H214796   0.675   4.968   1.890
 4852WAT      O14797   3.270   1.262   5.511
 4852WAT     H114798   3.294   1.238   5.605
 4852WAT     H214799   3.333   1.332   5.478
 4853WAT      O14800   3.079   4.385   7.708
 4853WAT     H114801   3.049   4.403   7.614
 4853WAT     H214802   3.009   4.330   7.754
 4854WAT      O14803   5.704   1.486   4.896
 4854WAT     H114804   5.731   1.433   4.815
 4854WAT     H214805   5.786   1.528   4.936
 4855WAT      O14806   3.441   8.071   0.370
 4855WAT     H114807   3.381   7.991   0.371
 4855WAT     H214808   3.515   8.058   0.435
 4856WAT      O14809   2.238   4.780   0.112
 4856WAT     H114810   2.265   4.875   0.129
 4856WAT     H214811   2.284   4.720   0.177
 4857WAT      O14812   8.787   5.737   8.346
 4857WAT     H114813   8.860   5.805   8.341
 4857WAT     H214814   8.828   5.646   8.359
 4858WAT      O14815   2.432   1.508   2.140
 4858WAT     H114816   2.386   1.597   2.133
 4858WAT     H214817   2.377   1.446   2.196
 4859WAT      O14818   4.713   9.612   3.344
 4859WAT     H114819   4.804   9.572   3.348
 4859WAT     H214820   4.720   9.708   3.319
 4860WAT      O14821   8.998   3.689   5.649
 4860WAT     H114822   9.022   3.685   5.552
 4860WAT     H214823   9.028   3.776   5.687
 4861WAT      O14824   5.166   9.629   9.862
 4861WAT     H114825   5.204   9.680   9.785
 4861WAT     H214826   5.221   9.546   9.877
 4862WAT      O14827   1.874   8.692   5.783
 4862WAT     H114828   1.919   8.742   5.857
 4862WAT     H214829   1.845   8.602   5.817
 4863WAT      O14830   8.312   9.057   4.917
 4863WAT     H114831   8.388   9.121   4.927
 4863WAT     H214832   8.255   9.084   4.839
 4864WAT      O14833   4.228   0.873   0.333
 4864WAT     H114834   4.171   0.873   0.250
 4864WAT     H214835   4.306   0.934   0.320
 4865WAT      O14836   3.108   8.368   0.728
 4865WAT     H114837   3.169   8.290   0.743
 4865WAT     H214838   3.015   8.336   0.711
 4866WAT      O14839   5.627   1.239   0.326
 4866WAT     H114840   5.647   1.335   0.307
 4866WAT     H214841   5.588   1.197   0.245
 4867WAT      O14842   4.656   0.075   3.670
 4867WAT     H114843   4.740   0.107   3.626
 4867WAT     H214844   4.644  -0.023   3.653
 4868WAT      O14845   7.155   7.958   8.387
 4868WAT     H114846   7.231   8.020   8.365
 4868WAT     H214847   7.077   7.981   8.329
 4869WAT      O14848   7.424   3.320   1.435
 4869WAT     H114849   7.451   3.236   1.388
 4869WAT     H214850   7.349   3.363   1.385
 4870WAT      O14851   4.087   4.733   2.960
 4870WAT     H114852   4.009   4.792   2.937
 4870WAT     H214853   4.149   4.783   3.021
 4871WAT      O14854   0.507   0.831   7.881
 4871WAT     H114855   0.599   0.861   7.858
 4871WAT     H214856   0.511   0.765   7.957
 4872WAT      O14857   9.806   8.408   8.419
 4872WAT     H114858   9.762   8.496   8.401
 4872WAT     H214859   9.857   8.414   8.505
 4873WAT      O14860   3.367   6.925   7.580
 4873WAT     H114861   3.319   6.990   7.639
 4873WAT     H214862   3.307   6.900   7.503
 4874WAT      O14863   5.576   2.017   1.753
 4874WAT     H114864   5.542   2.082   1.685
 4874WAT     H214865   5.675   2.024   1.759
 4875WAT      O14866   0.396   7.389   0.911
 4875WAT     H114867   0.434   7.298   0.899
 4875WAT     H214868   0.297   7.386   0.901
 4876WAT      O14869   4.910   6.898   1.046
 4876WAT     H114870   4.942   6.987   1.078
 4876WAT     H214871   4.827   6.910   0.992
 4877WAT      O14872   0.253   1.327   0.477
 4877WAT     H114873   0.252   1.227   0.482
 4877WAT     H214874   0.186   1.364   0.541
 4878WAT      O14875   3.127   4.724   9.180
 4878WAT     H114876   3.142   4.823   9.188
 4878WAT     H214877   3.146   4.696   9.086
 4879WAT      O14878   5.413   1.806   1.695
 4879WAT     H114879   5.434   1.900   1.723
 4879WAT     H214880   5.479   1.744   1.737
 4880WAT      O14881   4.157   0.790   1.383
 4880WAT     H114882   4.120   0.816   1.293
 4880WAT     H214883   4.103   0.716   1.421
 4881WAT      O14884   8.052   5.510   3.980
 4881WAT     H114885   8.104   5.432   4.015
 4881WAT     H214886   8.096   5.595   4.009
 4882WAT      O14887   4.327   3.253   1.087
 4882WAT     H114888   4.385   3.289   1.160
 4882WAT     H214889   4.302   3.326   1.025
 4883WAT      O14890   8.229   6.396   8.011
 4883WAT     H114891   8.168   6.438   8.078
 4883WAT     H214892   8.274   6.467   7.957
 4884WAT      O14893   6.427   2.495   3.509
 4884WAT     H114894   6.422   2.590   3.543
 4884WAT     H214895   6.350   2.478   3.447
 4885WAT      O14896   2.297   9.671   5.054
 4885WAT     H114897   2.371   9.738   5.043
 4885WAT     H214898   2.230   9.683   4.981
 4886WAT      O14899   2.668   8.206   7.984
 4886WAT     H114900   2.696   8.117   7.950
 4886WAT     H214901   2.581   8.232   7.942
 4887WAT      O14902   5.052   1.399   4.159
 4887WAT     H114903   5.108   1.318   4.146
 4887WAT     H214904   5.044   1.419   4.257
 4888WAT      O14905   5.073   8.582   3.838
 4888WAT     H114906   5.035   8.618   3.923
 4888WAT     H214907   5.172   8.595   3.838
 4889WAT      O14908   9.203   5.436   7.349
 4889WAT     H114909   9.199   5.345   7.390
 4889WAT     H214910   9.263   5.434   7.269
 4890WAT      O14911   8.840   3.671   3.072
 4890WAT     H114912   8.938   3.652   3.075
 4890WAT     H214913   8.789   3.587   3.092
 4891WAT      O14914   5.253   7.780   1.408
 4891WAT     H114915   5.217   7.843   1.339
 4891WAT     H214916   5.342   7.813   1.441
 4892WAT      O14917   2.460   6.544   7.760
 4892WAT     H114918   2.410   6.467   7.801
 4892WAT     H214919   2.555   6.518   7.747
 4893WAT      O14920   9.122   6.908   7.585
 4893WAT     H114921   9.156   6.942   7.497
 4893WAT     H214922   9.184   6.937   7.658
 4894WAT      O14923   2.671   5.461   1.433
 4894WAT     H114924   2.622   5.478   1.348
 4894WAT     H214925   2.668   5.364   1.455
 4895WAT      O14926   0.111   5.934   2.631
 4895WAT     H114927   0.189   5.875   2.609
 4895WAT     H214928   0.119   5.968   2.724
 4896WAT      O14929   8.699   5.485   2.253
 4896WAT     H114930   8.715   5.471   2.155
 4896WAT     H214931   8.602   5.501   2.269
 4897WAT      O14932   4.330   8.482   3.459
 4897WAT     H114933   4.347   8.477   3.558
 4897WAT     H214934   4.317   8.390   3.423
 4898WAT      O14935   8.092   3.152   9.258
 4898WAT     H114936   7.998   3.170   9.228
 4898WAT     H214937   8.156   3.202   9.201
 4899WAT      O14938   9.754   0.631   5.875
 4899WAT     H114939   9.657   0.656   5.872
 4899WAT     H214940   9.809   0.711   5.850
 4900WAT      O14941   0.687   8.389   9.447
 4900WAT     H114942   0.647   8.342   9.526
 4900WAT     H214943   0.783   8.363   9.437
 4901WAT      O14944   4.067   3.804   1.850
 4901WAT     H114945   4.006   3.742   1.899
 4901WAT     H214946   4.155   3.759   1.833
 4902WAT      O14947   7.738   2.657   2.017
 4902WAT     H114948   7.833   2.627   2.022
 4902WAT     H214949   7.682   2.587   1.974
 4903WAT      O14950   1.127   7.797   5.670
 4903WAT     H114951   1.144   7.880   5.618
 4903WAT     H214952   1.190   7.725   5.640
 4904WAT      O14953   8.501   6.826   1.315
 4904WAT     H114954   8.418   6.829   1.260
 4904WAT     H214955   8.538   6.733   1.314
 4905WAT      O14956   8.155   1.086   0.981
 4905WAT     H114957   8.169   0.992   0.950
 4905WAT     H214958   8.125   1.142   0.903
 4906WAT      O14959   8.859   0.880   2.602
 4906WAT     H114960   8.927   0.865   2.674
 4906WAT     H214961   8.859   0.976   2.576
 4907WAT      O14962   9.670   2.060   2.724
 4907WAT     H114963   9.734   2.019   2.790
 4907WAT     H214964   9.627   1.988   2.670
 4908WAT      O14965   5.661   3.811   2.026
 4908WAT     H114966   5.753   3.852   2.027
 4908WAT     H214967   5.604   3.858   2.093
 4909WAT      O14968   7.226   3.945   4.092
 4909WAT     H114969   7.231   3.865   4.153
 4909WAT     H214970   7.316   3.987   4.085
 4910WAT      O14971   6.293   5.553   8.089
 4910WAT     H114972   6.285   5.641   8.136
 4910WAT     H214973   6.233   5.553   8.009
 4911WAT      O14974   3.855   6.515   9.570
 4911WAT     H114975   3.878   6.427   9.527
 4911WAT     H214976   3.845   6.501   9.669
 4912WAT      O14977   1.007   9.420   4.743
 4912WAT     H114978   1.052   9.499   4.701
 4912WAT     H214979   0.981   9.355   4.672
 4913WAT      O14980   2.803   7.710   9.090
 4913WAT     H114981   2.815   7.799   9.045
 4913WAT     H214982   2.881   7.693   9.150
 4914WAT      O14983   0.994   9.625   8.770
 4914WAT     H114984   1.060   9.568   8.819
 4914WAT     H214985   0.946   9.685   8.834
 4915WAT      O14986   6.141   8.244   9.527
 4915WAT     H114987   6.185   8.198   9.604
 4915WAT     H214988   6.209   8.298   9.477
 4916WAT      O14989   1.461   7.400   3.385
 4916WAT     H114990   1.382   7.340   3.388
 4916WAT     H214991   1.456   7.466   3.460
 4917WAT      O14992   2.308   0.690   6.590
 4917WAT     H114993   2.248   0.747   6.646
 4917WAT     H214994   2.267   0.676   6.500
 4918WAT      O14995   3.494   2.780   3.279
 4918WAT     H114996   3.520   2.751   3.187
 4918WAT     H214997   3.425   2.718   3.315
 4919WAT      O14998   3.756   7.670   3.465
 4919WAT     H114999   3.824   7.742   3.451
 4919WAT     H215000   3.773   7.596   3.401
 4920WAT      O15001   6.395   3.172   9.657
 4920WAT     H115002   6.339   3.182   9.739
 4920WAT     H215003   6.353   3.220   9.580
 4921WAT      O15004   3.280   0.916   6.347
 4921WAT     H115005   3.303   0.995   6.405
 4921WAT     H215006   3.238   0.949   6.262
 4922WAT      O15007   0.113   8.762   5.538
 4922WAT     H115008   0.057   8.703   5.597
 4922WAT     H215009   0.208   8.757   5.567
 4923WAT      O15010   1.912   7.185   0.626
 4923WAT     H115011   1.962   7.269   0.646
 4923WAT     H215012   1.830   7.206   0.572
 4924WAT      O15013   0.040   3.894   8.700
 4924WAT     H115014   0.098   3.837   8.642
 4924WAT     H215015   0.093   3.972   8.733
 4925WAT      O15016   8.824   4.813   2.276
 4925WAT     H115017   8.840   4.897   2.224
 4925WAT     H215018   8.802   4.739   2.213
 4926WAT      O15019   8.692   4.332   1.840
 4926WAT     H115020   8.645   4.417   1.864
 4926WAT     H215021   8.665   4.303   1.749
 4927WAT      O15022   4.537   3.270   3.919
 4927WAT     H115023   4.476   3.349   3.913
 4927WAT     H215024   4.602   3.283   3.993
 4928WAT      O15025   6.622   4.177   4.230
 4928WAT     H115026   6.674   4.094   4.246
 4928WAT     H215027   6.551   4.186   4.301
 4929WAT      O15028   4.281   4.993   7.611
 4929WAT     H115029   4.210   4.953   7.670
 4929WAT     H215030   4.282   4.944   7.524
 4930WAT      O15031   5.821   5.702   0.553
 4930WAT     H115032   5.861   5.648   0.478
 4930WAT     H215033   5.860   5.672   0.640
 4931WAT      O15034   0.759   9.004   2.622
 4931WAT     H115035   0.671   9.011   2.576
 4931WAT     H215036   0.774   8.910   2.652
 4932WAT      O15037   5.436   9.566   0.924
 4932WAT     H115038   5.407   9.471   0.916
 4932WAT     H215039   5.396   9.607   1.006
 4933WAT      O15040   5.558   2.192   4.917
 4933WAT     H115041   5.600   2.274   4.957
 4933WAT     H215042   5.475   2.219   4.868
 4934WAT      O15043   9.316   4.798   2.565
 4934WAT     H115044   9.269   4.778   2.651
 4934WAT     H215045   9.387   4.866   2.581
 4935WAT      O15046   3.025   8.637   8.938
 4935WAT     H115047   3.005   8.578   9.016
 4935WAT     H215048   3.042   8.730   8.970
 4936WAT      O15049   7.928   9.528   8.050
 4936WAT     H115050   7.968   9.571   8.131
 4936WAT     H215051   7.994   9.462   8.012
 4937WAT      O15052   0.097   8.720   8.599
 4937WAT     H115053   0.076   8.753   8.507
 4937WAT     H215054   0.083   8.794   8.665
 4938WAT      O15055   5.996   4.522   8.621
 4938WAT     H115056   5.981   4.612   8.579
 4938WAT     H215057   5.966   4.451   8.558
 4939WAT      O15058   2.122   2.940   8.275
 4939WAT     H115059   2.088   3.033   8.289
 4939WAT     H215060   2.220   2.937   8.297
 4940WAT      O15061   5.253   0.174   8.848
 4940WAT     H115062   5.315   0.107   8.889
 4940WAT     H215063   5.296   0.214   8.766
 4941WAT      O15064   6.794   7.069   9.098
 4941WAT     H115065   6.724   7.110   9.156
 4941WAT     H215066   6.785   7.105   9.005
 4942WAT      O15067   7.738   3.135   3.601
 4942WAT     H115068   7.769   3.213   3.545
 4942WAT     H215069   7.768   3.050   3.558
 4943WAT      O15070   5.435   2.413   4.268
 4943WAT     H115071   5.376   2.483   4.227
 4943WAT     H215072   5.442   2.335   4.206
 4944WAT      O15073   6.879   7.085   4.374
 4944WAT     H115074   6.940   7.006   4.371
 4944WAT     H215075   6.896   7.143   4.294
 4945WAT      O15076   0.911   0.914   6.546
 4945WAT     H115077   0.898   0.998   6.494
 4945WAT     H215078   1.008   0.892   6.550
 4946WAT      O15079   9.460   2.088   7.100
 4946WAT     H115080   9.458   2.019   7.028
 4946WAT     H215081   9.494   2.174   7.062
 4947WAT      O15082   4.929   1.437   1.952
 4947WAT     H115083   5.029   1.443   1.941
 4947WAT     H215084   4.889   1.527   1.934
 4948WAT      O15085   6.279   4.457   2.247
 4948WAT     H115086   6.219   4.534   2.228
 4948WAT     H215087   6.373   4.480   2.221
 4949WAT      O15088   5.846   5.515   3.179
 4949WAT     H115089   5.807   5.443   3.236
 4949WAT     H215090   5.933   5.483   3.141
 4950WAT      O15091   4.626   4.988   2.440
 4950WAT     H115092   4.612   5.014   2.536
 4950WAT     H215093   4.681   4.905   2.435
 4951WAT      O15094   2.235   0.183   2.485
 4951WAT     H115095   2.306   0.127   2.441
 4951WAT     H215096   2.177   0.225   2.416
 4952WAT      O15097   6.068   6.519   0.281
 4952WAT     H115098   6.069   6.419   0.281
 4952WAT     H215099   6.143   6.552   0.224
 4953WAT      O15100   9.111   3.610   5.390
 4953WAT     H115101   9.204   3.613   5.353
 4953WAT     H215102   9.048   3.656   5.327
 4954WAT      O15103   3.134   8.009   0.480
 4954WAT     H115104   3.176   8.058   0.556
 4954WAT     H215105   3.092   8.075   0.417
 4955WAT      O15106   3.314   5.379   2.690
 4955WAT     H115107   3.392   5.376   2.627
 4955WAT     H215108   3.312   5.295   2.745
 4956WAT      O15109   5.281   9.359   9.358
 4956WAT     H115110   5.331   9.329   9.439
 4956WAT     H215111   5.343   9.360   9.279
 4957WAT      O15112   0.043   6.585   6.234
 4957WAT     H115113  -0.020   6.654   6.198
 4957WAT     H215114   0.137   6.621   6.230
 4958WAT      O15115   7.026   7.003   6.398
 4958WAT     H115116   7.118   7.033   6.426
 4958WAT     H215117   6.962   7.021   6.473
 4959WAT      O15118   4.193   8.594   2.176
 4959WAT     H115119   4.180   8.688   2.210
 4959WAT     H215120   4.104   8.550   2.165
 4960WAT      O15121   0.759   1.135   4.522
 4960WAT     H115122   0.700   1.192   4.466
 4960WAT     H215123   0.721   1.042   4.527
 4961WAT      O15124   1.761   3.098   6.473
 4961WAT     H115125   1.847   3.066   6.434
 4961WAT     H215126   1.761   3.081   6.572
 4962WAT      O15127   1.086   4.396   3.837
 4962WAT     H115128   1.172   4.424   3.879
 4962WAT     H215129   1.013   4.396   3.906
 4963WAT      O15130   0.333   2.863   0.467
 4963WAT     H115131   0.401   2.789   0.462
 4963WAT     H215132   0.331   2.901   0.559
 4964WAT      O15133   1.565   2.088   7.686
 4964WAT     H115134   1.605   2.076   7.595
 4964WAT     H215135   1.627   2.142   7.743
 4965WAT      O15136   6.752   2.408   6.634
 4965WAT     H115137   6.684   2.352   6.587
 4965WAT     H215138   6.760   2.497   6.588
 4966WAT      O15139   6.337   5.560   4.785
 4966WAT     H115140   6.433   5.532   4.797
 4966WAT     H215141   6.330   5.659   4.789
 4967WAT      O15142   1.448   4.822   8.829
 4967WAT     H115143   1.352   4.820   8.857
 4967WAT     H215144   1.462   4.758   8.754
 4968WAT      O15145   8.249   2.981   0.254
 4968WAT     H115146   8.299   2.979   0.168
 4968WAT     H215147   8.182   3.056   0.253
 4969WAT      O15148   2.514   8.020   8.954
 4969WAT     H115149   2.463   8.038   8.870
 4969WAT     H215150   2.536   7.923   8.959
 4970WAT      O15151   3.354   0.301   3.189
 4970WAT     H115152   3.374   0.311   3.091
 4970WAT     H215153   3.291   0.225   3.203
 4971WAT      O15154   9.401   4.766   7.662
 4971WAT     H115155   9.444   4.810   7.582
 4971WAT     H215156   9.346   4.688   7.632
 4972WAT      O15157   4.537   1.242   9.170
 4972WAT     H115158   4.487   1.157   9.187
 4972WAT     H215159   4.486   1.298   9.105
 4973WAT      O15160   2.571   3.281   0.824
 4973WAT     H115161   2.608   3.289   0.917
 4973WAT     H215162   2.472   3.297   0.826
 4974WAT      O15163   5.822   4.558   1.209
 4974WAT     H115164   5.806   4.538   1.305
 4974WAT     H215165   5.866   4.480   1.165
 4975WAT      O15166   3.241   0.370   0.387
 4975WAT     H115167   3.308   0.380   0.461
 4975WAT     H215168   3.271   0.424   0.308
 4976WAT      O15169   7.178   0.837   8.886
 4976WAT     H115170   7.102   0.854   8.949
 4976WAT     H215171   7.158   0.880   8.797
 4977WAT      O15172   0.284   8.406   3.501
 4977WAT     H115173   0.239   8.317   3.509
 4977WAT     H215174   0.289   8.434   3.405
 4978WAT      O15175   7.986   1.993   9.013
 4978WAT     H115176   7.991   2.086   8.976
 4978WAT     H215177   8.025   1.990   9.105
 4979WAT      O15178   2.909   6.576   1.516
 4979WAT     H115179   2.917   6.504   1.586
 4979WAT     H215180   2.951   6.544   1.431
 4980WAT      O15181   1.650   4.874   8.209
 4980WAT     H115182   1.639   4.821   8.124
 4980WAT     H215183   1.698   4.959   8.189
 4981WAT      O15184   7.501   4.558   3.520
 4981WAT     H115185   7.522   4.468   3.482
 4981WAT     H215186   7.477   4.548   3.617
 4982WAT      O15187   9.527   5.478   1.766
 4982WAT     H115188   9.585   5.473   1.848
 4982WAT     H215189   9.435   5.445   1.789
 4983WAT      O15190   5.652   4.535   6.356
 4983WAT     H115191   5.565   4.533   6.306
 4983WAT     H215192   5.648   4.604   6.428
 4984WAT      O15193   2.942   8.513   7.698
 4984WAT     H115194   2.950   8.547   7.792
 4984WAT     H215195   2.968   8.586   7.634
 4985WAT      O15196   2.535   4.624   4.817
 4985WAT     H115197   2.559   4.709   4.864
 4985WAT     H215198   2.555   4.547   4.877
 4986WAT      O15199   0.531   2.327   8.730
 4986WAT     H115200   0.627   2.349   8.710
 4986WAT     H215201   0.476   2.409   8.718
 4987WAT      O15202   8.169   2.231   8.148
 4987WAT     H115203   8.182   2.316   8.098
 4987WAT     H215204   8.073   2.222   8.175
 4988WAT      O15205   2.374   0.503   3.997
 4988WAT     H115206   2.433   0.583   3.983
 4988WAT     H215207   2.302   0.502   3.928
 4989WAT      O15208   4.144   7.308   5.427
 4989WAT     H115209   4.068   7.372   5.427
 4989WAT     H215210   4.123   7.231   5.367
 4990WAT      O15211   6.601   8.650   0.531
 4990WAT     H115212   6.620   8.600   0.616
 4990WAT     H215213   6.647   8.606   0.455
 4991WAT      O15214   0.944   0.525   7.900
 4991WAT     H115215   0.925   0.621   7.922
 4991WAT     H215216   1.007   0.488   7.968
 4992WAT      O15217   6.457   4.875   5.235
 4992WAT     H115218   6.379   4.814   5.227
 4992WAT     H215219   6.489   4.876   5.330
 4993WAT      O15220   7.356   0.885   2.096
 4993WAT     H115221   7.273   0.844   2.135
 4993WAT     H215222   7.394   0.824   2.027
 4994WAT      O15223   1.636   3.984   7.308
 4994WAT     H115224   1.596   3.939   7.388
 4994WAT     H215225   1.726   3.945   7.289
 4995WAT      O15226   0.691   5.407   6.528
 4995WAT     H115227   0.742   5.354   6.596
 4995WAT     H215228   0.594   5.383   6.533
 4996WAT      O15229   5.081   7.332   9.584
 4996WAT     H115230   5.123   7.269   9.519
 4996WAT     H215231   4.998   7.290   9.622
 4997WAT      O15232   4.945   1.701   7.841
 4997WAT     H115233   4.920   1.762   7.765
 4997WAT     H215234   5.043   1.681   7.837
 4998WAT      O15235   2.761   1.567   4.538
 4998WAT     H115236   2.675   1.567   4.486
 4998WAT     H215237   2.807   1.479   4.526
 4999WAT      O15238   4.024   8.018   1.369
 4999WAT     H115239   3.940   8.061   1.335
 4999WAT     H215240   4.003   7.927   1.404
 5000WAT      O15241   4.088   7.191   3.644
 5000WAT     H115242   4.018   7.262   3.644
 5000WAT     H215243   4.061   7.118   3.706
 5001WAT      O15244   4.766   1.491   4.192
 5001WAT     H115245   4.695   1.444   4.140
 5001WAT     H215246   4.856   1.460   4.162
 5002WAT      O15247   2.238   5.243   1.234
 5002WAT     H115248   2.144   5.278   1.234
 5002WAT     H215249   2.288   5.282   1.312
 5003WAT      O15250   8.899   1.722   0.329
 5003WAT     H115251   8.937   1.813   0.317
 5003WAT     H215252   8.919   1.689   0.421
 5004WAT      O15253   9.834   2.833   3.662
 5004WAT     H115254   9.810   2.793   3.574
 5004WAT     H215255   9.756   2.884   3.699
 5005WAT      O15256   2.599   7.704   6.956
 5005WAT     H115257   2.626   7.627   7.014
 5005WAT     H215258   2.525   7.674   6.894
 5006WAT      O15259   5.319   1.961   8.338
 5006WAT     H115260   5.243   1.896   8.341
 5006WAT     H215261   5.380   1.937   8.262
 5007WAT      O15262   0.287   2.836   6.394
 5007WAT     H115263   0.281   2.874   6.487
 5007WAT     H215264   0.204   2.783   6.375
 5008WAT      O15265   2.463   3.021   0.492
 5008WAT     H115266   2.542   3.035   0.431
 5008WAT     H215267   2.481   2.943   0.552
 5009WAT      O15268   1.323   5.625   1.364
 5009WAT     H115269   1.227   5.650   1.379
 5009WAT     H215270   1.365   5.691   1.302
 5010WAT      O15271   1.582   8.927   4.647
 5010WAT     H115272   1.641   8.979   4.585
 5010WAT     H215273   1.593   8.961   4.741
 5011WAT      O15274   7.974   6.235   8.866
 5011WAT     H115275   7.894   6.274   8.913
 5011WAT     H215276   7.963   6.136   8.859
 5012WAT      O15277   7.601   9.448   9.315
 5012WAT     H115278   7.524   9.386   9.306
 5012WAT     H215279   7.567   9.542   9.326
 5013WAT      O15280   2.119   3.709   5.747
 5013WAT     H115281   2.124   3.649   5.668
 5013WAT     H215282   2.080   3.659   5.825
 5014WAT      O15283   4.055   5.768   4.235
 5014WAT     H115284   4.127   5.768   4.166
 5014WAT     H215285   4.096   5.763   4.326
 5015WAT      O15286   4.996   6.685   4.791
 5015WAT     H115287   4.979   6.603   4.845
 5015WAT     H215288   4.933   6.757   4.820
 5016WAT      O15289   1.380   3.547   4.130
 5016WAT     H115290   1.334   3.581   4.047
 5016WAT     H215291   1.354   3.605   4.208
 5017WAT      O15292   8.156   6.235   6.662
 5017WAT     H115293   8.226   6.295   6.625
 5017WAT     H215294   8.197   6.171   6.727
 5018WAT      O15295   5.785   4.908   5.208
 5018WAT     H115296   5.850   4.947   5.143
 5018WAT     H215297   5.694   4.908   5.166
 5019WAT      O15298   6.690   6.222   3.225
 5019WAT     H115299   6.688   6.192   3.130
 5019WAT     H215300   6.780   6.205   3.265
 5020WAT      O15301   7.024   6.812   4.352
 5020WAT     H115302   6.940   6.761   4.334
 5020WAT     H215303   7.085   6.805   4.273
 5021WAT      O15304   0.483   9.511   4.393
 5021WAT     H115305   0.460   9.414   4.403
 5021WAT     H215306   0.406   9.566   4.424
 5022WAT      O15307   4.694   2.568   8.239
 5022WAT     H115308   4.794   2.567   8.232
 5022WAT     H215309   4.654   2.585   8.149
 5023WAT      O15310   7.580   8.246   3.541
 5023WAT     H115311   7.677   8.259   3.563
 5023WAT     H215312   7.559   8.149   3.538
 5024WAT      O15313   3.724   4.707   7.881
 5024WAT     H115314   3.778   4.748   7.808
 5024WAT     H215315   3.777   4.707   7.966
 5025WAT      O15316   0.561   8.313   2.481
 5025WAT     H115317   0.546   8.229   2.428
 5025WAT     H215318   0.555   8.292   2.579
 5026WAT      O15319   8.343   4.473   1.251
 5026WAT     H115320   8.296   4.547   1.203
 5026WAT     H215321   8.375   4.406   1.184
 5027WAT      O15322   0.715   2.670   8.007
 5027WAT     H115323   0.803   2.673   7.960
 5027WAT     H215324   0.647   2.627   7.947
 5028WAT      O15325   1.065   1.544   7.348
 5028WAT     H115326   1.135   1.524   7.417
 5028WAT     H215327   1.050   1.643   7.344
 5029WAT      O15328   1.184   3.702   8.177
 5029WAT     H115329   1.088   3.676   8.169
 5029WAT     H215330   1.242   3.622   8.158
 5030WAT      O15331   1.665   0.039   4.480
 5030WAT     H115332   1.716  -0.022   4.540
 5030WAT     H215333   1.729   0.084   4.417
 5031WAT      O15334   8.327   8.862   7.936
 5031WAT     H115335   8.405   8.891   7.881
 5031WAT     H215336   8.326   8.763   7.943
 5032WAT      O15337   4.165   3.912   2.135
 5032WAT     H115338   4.156   4.010   2.117
 5032WAT     H215339   4.091   3.863   2.090
 5033WAT      O15340   2.118   7.227   8.713
 5033WAT     H115341   2.191   7.291   8.734
 5033WAT     H215342   2.155   7.134   8.708
 5034WAT      O15343   7.700   8.901   5.026
 5034WAT     H115344   7.652   8.841   4.961
 5034WAT     H215345   7.668   8.995   5.014
 5035WAT      O15346   5.876   9.577   8.471
 5035WAT     H115347   5.903   9.654   8.529
 5035WAT     H215348   5.882   9.605   8.375
 5036WAT      O15349   9.364   3.032   8.807
 5036WAT     H115350   9.458   3.056   8.783
 5036WAT     H215351   9.341   2.944   8.767
 5037WAT      O15352   5.957   0.695   7.542
 5037WAT     H115353   5.909   0.767   7.493
 5037WAT     H215354   5.901   0.612   7.543
 5038WAT      O15355   4.898   9.079   7.100
 5038WAT     H115356   4.877   9.024   7.181
 5038WAT     H215357   4.907   9.019   7.021
 5039WAT      O15358   1.019   9.768   6.455
 5039WAT     H115359   0.928   9.793   6.489
 5039WAT     H215360   1.081   9.758   6.532
 5040WAT      O15361   2.145   6.531   3.121
 5040WAT     H115362   2.128   6.621   3.160
 5040WAT     H215363   2.099   6.461   3.176
 5041WAT      O15364   4.145   1.621   3.862
 5041WAT     H115365   4.201   1.678   3.921
 5041WAT     H215366   4.050   1.625   3.892
 5042WAT      O15367   8.689   2.639   1.691
 5042WAT     H115368   8.619   2.576   1.724
 5042WAT     H215369   8.726   2.606   1.604
 5043WAT      O15370   4.356   6.165   2.397
 5043WAT     H115371   4.284   6.099   2.418
 5043WAT     H215372   4.317   6.256   2.391
 5044WAT      O15373   3.030   2.658   0.045
 5044WAT     H115374   3.035   2.579   0.106
 5044WAT     H215375   3.007   2.627  -0.047
 5045WAT      O15376   2.363   9.506   5.501
 5045WAT     H115377   2.279   9.496   5.555
 5045WAT     H215378   2.340   9.505   5.403
 5046WAT      O15379   1.342   5.546   9.399
 5046WAT     H115380   1.246   5.563   9.379
 5046WAT     H215381   1.355   5.537   9.498
 5047WAT      O15382   7.556   8.998   8.523
 5047WAT     H115383   7.525   8.951   8.605
 5047WAT     H215384   7.607   8.935   8.465
 5048WAT      O15385   5.944   9.433   4.094
 5048WAT     H115386   5.869   9.410   4.155
 5048WAT     H215387   5.972   9.351   4.043
 5049WAT      O15388   8.737   1.496   7.061
 5049WAT     H115389   8.753   1.531   6.968
 5049WAT     H215390   8.808   1.429   7.083
 5050WAT      O15391   7.438   2.426   6.853
 5050WAT     H115392   7.485   2.462   6.773
 5050WAT     H215393   7.504   2.384   6.915
 5051WAT      O15394   0.469   1.284   4.832
 5051WAT     H115395   0.568   1.271   4.818
 5051WAT     H215396   0.454   1.330   4.919
 5052WAT      O15397   1.887   1.495   5.181
 5052WAT     H115398   1.955   1.562   5.211
 5052WAT     H215399   1.884   1.419   5.246
 5053WAT      O15400   0.411   5.559   5.147
 5053WAT     H115401   0.407   5.540   5.049
 5053WAT     H215402   0.318   5.563   5.184
 5054WAT      O15403   5.314   2.041   3.953
 5054WAT     H115404   5.246   2.024   4.024
 5054WAT     H215405   5.318   2.139   3.933
 5055WAT      O15406   0.221   4.834   4.638
 5055WAT     H115407   0.291   4.899   4.608
 5055WAT     H215408   0.163   4.877   4.708
 5056WAT      O15409   8.545   0.922   3.429
 5056WAT     H115410   8.581   0.927   3.522
 5056WAT     H215411   8.600   0.980   3.368
 5057WAT      O15412   1.228   2.062   1.765
 5057WAT     H115413   1.166   2.133   1.730
 5057WAT     H215414   1.176   1.979   1.783
 5058WAT      O15415   3.660   8.039   0.509
 5058WAT     H115416   3.729   8.097   0.466
 5058WAT     H215417   3.704   7.975   0.572
 5059WAT      O15418   1.329   0.905   1.145
 5059WAT     H115419   1.271   0.823   1.145
 5059WAT     H215420   1.424   0.879   1.131
 5060WAT      O15421   4.634   0.178   8.656
 5060WAT     H115422   4.633   0.084   8.689
 5060WAT     H215423   4.550   0.197   8.605
 5061WAT      O15424   7.187   5.529   1.452
 5061WAT     H115425   7.178   5.576   1.539
 5061WAT     H215426   7.237   5.586   1.387
 5062WAT      O15427   0.228   6.518   7.693
 5062WAT     H115428   0.184   6.588   7.637
 5062WAT     H215429   0.167   6.492   7.768
 5063WAT      O15430   5.710   6.038   8.467
 5063WAT     H115431   5.697   6.120   8.523
 5063WAT     H215432   5.795   5.993   8.492
 5064WAT      O15433   3.487   2.918   3.520
 5064WAT     H115434   3.562   2.886   3.577
 5064WAT     H215435   3.478   2.859   3.440
 5065WAT      O15436   1.209   1.560   3.190
 5065WAT     H115437   1.215   1.538   3.287
 5065WAT     H215438   1.292   1.608   3.162
 5066WAT      O15439   4.040   7.906   2.742
 5066WAT     H115440   4.064   8.003   2.734
 5066WAT     H215441   3.951   7.890   2.699
 5067WAT      O15442   7.415   6.576   8.057
 5067WAT     H115443   7.434   6.673   8.044
 5067WAT     H215444   7.349   6.545   7.989
 5068WAT      O15445   7.434   3.806   2.382
 5068WAT     H115446   7.483   3.852   2.308
 5068WAT     H215447   7.438   3.862   2.465
 5069WAT      O15448   1.243   8.962   9.041
 5069WAT     H115449   1.320   8.902   9.021
 5069WAT     H215450   1.212   8.947   9.135
 5070WAT      O15451   4.877   1.508   7.415
 5070WAT     H115452   4.921   1.596   7.431
 5070WAT     H215453   4.811   1.516   7.340
 5071WAT      O15454   9.803   9.505   0.771
 5071WAT     H115455   9.716   9.552   0.781
 5071WAT     H215456   9.793   9.409   0.799
 5072WAT      O15457   7.436   8.930   7.561
 5072WAT     H115458   7.456   8.983   7.479
 5072WAT     H215459   7.519   8.919   7.616
 5073WAT      O15460   1.588   1.420   0.369
 5073WAT     H115461   1.559   1.365   0.447
 5073WAT     H215462   1.612   1.360   0.293
 5074WAT      O15463   8.747   9.832   0.461
 5074WAT     H115464   8.839   9.797   0.477
 5074WAT     H215465   8.743   9.929   0.486
 5075WAT      O15466   6.263   5.061   8.591
 5075WAT     H115467   6.224   5.080   8.681
 5075WAT     H215468   6.236   4.969   8.562
 5076WAT      O15469   5.457   3.710   9.247
 5076WAT     H115470   5.418   3.784   9.302
 5076WAT     H215471   5.551   3.733   9.221
 5077WAT      O15472   8.701   4.437   8.652
 5077WAT     H115473   8.716   4.467   8.747
 5077WAT     H215474   8.606   4.457   8.626
 5078WAT      O15475   0.358   8.990   8.821
 5078WAT     H115476   0.275   8.946   8.788
 5078WAT     H215477   0.388   8.946   8.906
 5079WAT      O15478   0.776   8.511   1.890
 5079WAT     H115479   0.842   8.544   1.958
 5079WAT     H215480   0.769   8.576   1.815
 5080WAT      O15481   7.228   5.814   7.513
 5080WAT     H115482   7.296   5.886   7.502
 5080WAT     H215483   7.155   5.826   7.446
 5081WAT      O15484   0.318   2.410   3.671
 5081WAT     H115485   0.303   2.459   3.757
 5081WAT     H215486   0.348   2.474   3.601
 5082WAT      O15487   0.317   7.076   1.260
 5082WAT     H115488   0.414   7.051   1.261
 5082WAT     H215489   0.308   7.169   1.225
 5083WAT      O15490   5.332   2.460   4.626
 5083WAT     H115491   5.425   2.435   4.598
 5083WAT     H215492   5.322   2.559   4.621
 5084WAT      O15493   8.533   4.953   9.229
 5084WAT     H115494   8.505   4.907   9.144
 5084WAT     H215495   8.452   4.984   9.278
 5085WAT      O15496   1.526   3.745   9.498
 5085WAT     H115497   1.540   3.829   9.445
 5085WAT     H215498   1.615   3.703   9.518
 5086WAT      O15499   1.644   5.362   0.951
 5086WAT     H115500   1.609   5.269   0.942
 5086WAT     H215501   1.683   5.374   1.042
 5087WAT      O15502   0.606   3.205   1.881
 5087WAT     H115503   0.643   3.143   1.812
 5087WAT     H215504   0.654   3.293   1.876
 5088WAT      O15505   1.310   1.214   7.155
 5088WAT     H115506   1.332   1.312   7.158
 5088WAT     H215507   1.235   1.199   7.091
 5089WAT      O15508   4.036   6.796   2.342
 5089WAT     H115509   4.128   6.825   2.368
 5089WAT     H215510   3.988   6.873   2.299
 5090WAT      O15511   6.496   3.275   5.824
 5090WAT     H115512   6.531   3.365   5.798
 5090WAT     H215513   6.399   3.269   5.800
 5091WAT      O15514   4.850   3.120   1.473
 5091WAT     H115515   4.937   3.154   1.437
 5091WAT     H215516   4.867   3.061   1.552
 5092WAT      O15517   1.926   3.707   1.238
 5092WAT     H115518   1.841   3.655   1.233
 5092WAT     H215519   1.989   3.662   1.302
 5093WAT      O15520   4.314   4.631   8.661
 5093WAT     H115521   4.383   4.703   8.660
 5093WAT     H215522   4.223   4.672   8.662
 5094WAT      O15523   2.580   4.669   7.073
 5094WAT     H115524   2.557   4.684   7.169
 5094WAT     H215525   2.620   4.578   7.062
 5095WAT      O15526   7.806   9.285   8.344
 5095WAT     H115527   7.745   9.318   8.272
 5095WAT     H215528   7.881   9.233   8.303
 5096WAT      O15529   5.645   7.480   8.816
 5096WAT     H115530   5.556   7.471   8.860
 5096WAT     H215531   5.713   7.505   8.885
 5097WAT      O15532   8.622   5.099   2.305
 5097WAT     H115533   8.719   5.120   2.316
 5097WAT     H215534   8.575   5.114   2.392
 5098WAT      O15535   7.037   3.815   7.227
 5098WAT     H115536   7.050   3.912   7.204
 5098WAT     H215537   7.015   3.764   7.144
 5099WAT      O15538   0.003   2.896   0.007
 5099WAT     H115539   0.063   2.933   0.078
 5099WAT     H215540   0.026   2.800  -0.009
 5100WAT      O15541   1.582   0.490   0.475
 5100WAT     H115542   1.637   0.568   0.446
 5100WAT     H215543   1.637   0.431   0.534
 5101WAT      O15544   4.110   3.447   2.128
 5101WAT     H115545   4.117   3.352   2.097
 5101WAT     H215546   4.198   3.492   2.119
 5102WAT      O15547   5.180   7.313   4.558
 5102WAT     H115548   5.157   7.406   4.529
 5102WAT     H215549   5.275   7.310   4.591
 5103WAT      O15550   7.242   1.211   8.069
 5103WAT     H115551   7.193   1.156   8.138
 5103WAT     H215552   7.184   1.288   8.041
 5104WAT      O15553   8.876   5.874   4.662
 5104WAT     H115554   8.862   5.973   4.657
 5104WAT     H215555   8.792   5.826   4.634
 5105WAT      O15556   0.930   5.925   4.602
 5105WAT     H115557   0.900   5.832   4.583
 5105WAT     H215558   0.864   5.990   4.565
 5106WAT      O15559   7.909   0.727   0.533
 5106WAT     H115560   7.972   0.776   0.473
 5106WAT     H215561   7.956   0.649   0.574
 5107WAT      O15562   7.197   6.823   1.210
 5107WAT     H115563   7.174   6.896   1.144
 5107WAT     H215564   7.126   6.753   1.207
 5108WAT      O15565   9.875   5.282   3.520
 5108WAT     H115566   9.964   5.292   3.475
 5108WAT     H215567   9.803   5.315   3.459
 5109WAT      O15568   4.863   9.580   8.807
 5109WAT     H115569   4.881   9.502   8.747
 5109WAT     H215570   4.920   9.657   8.780
 5110WAT      O15571   7.728   6.816   5.285
 5110WAT     H115572   7.795   6.874   5.331
 5110WAT     H215573   7.638   6.832   5.324
 5111WAT      O15574   0.640   8.224   7.865
 5111WAT     H115575   0.657   8.240   7.962
 5111WAT     H215576   0.597   8.304   7.824
 5112WAT      O15577   8.171   8.208   2.448
 5112WAT     H115578   8.162   8.150   2.529
 5112WAT     H215579   8.196   8.151   2.370
 5113WAT      O15580   4.153   8.922   8.627
 5113WAT     H115581   4.062   8.922   8.670
 5113WAT     H215582   4.216   8.866   8.682
 5114WAT      O15583   2.404   0.209   7.101
 5114WAT     H115584   2.361   0.128   7.139
 5114WAT     H215585   2.442   0.265   7.175
 5115WAT      O15586   6.399   7.105   6.937
 5115WAT     H115587   6.457   7.033   6.974
 5115WAT     H215588   6.398   7.182   7.000
 5116WAT      O15589   2.634   2.232   2.909
 5116WAT     H115590   2.718   2.209   2.958
 5116WAT     H215591   2.557   2.183   2.950
 5117WAT      O15592   6.337   3.349   7.220
 5117WAT     H115593   6.433   3.361   7.193
 5117WAT     H215594   6.287   3.302   7.147
 5118WAT      O15595   6.538   4.562   4.836
 5118WAT     H115596   6.592   4.478   4.835
 5118WAT     H215597   6.498   4.575   4.927
 5119WAT      O15598   7.785   1.529   7.303
 5119WAT     H115599   7.700   1.483   7.328
 5119WAT     H215600   7.857   1.461   7.288
 5120WAT      O15601   0.014   1.091   8.913
 5120WAT     H115602   0.029   1.028   8.837
 5120WAT     H215603  -0.084   1.096   8.933
 5121WAT      O15604   2.898   1.552   7.163
 5121WAT     H115605   2.901   1.491   7.083
 5121WAT     H215606   2.944   1.638   7.141
 5122WAT      O15607   9.033   2.190   3.583
 5122WAT     H115608   8.978   2.129   3.640
 5122WAT     H215609   9.130   2.178   3.603
 5123WAT      O15610   5.461   7.392   4.422
 5123WAT     H115611   5.401   7.386   4.343
 5123WAT     H215612   5.479   7.488   4.443
 5124WAT      O15613   8.515   9.079   1.602
 5124WAT     H115614   8.480   9.142   1.533
 5124WAT     H215615   8.536   8.991   1.559
 5125WAT      O15616   7.350   6.886   6.220
 5125WAT     H115617   7.316   6.970   6.263
 5125WAT     H215618   7.319   6.807   6.273
 5126WAT      O15619   2.516   4.025   0.098
 5126WAT     H115620   2.517   3.987   0.006
 5126WAT     H215621   2.421   4.029   0.131
 5127WAT      O15622   4.444   4.559   2.653
 5127WAT     H115623   4.522   4.620   2.662
 5127WAT     H215624   4.410   4.534   2.743
 5128WAT      O15625   2.864   3.535   7.381
 5128WAT     H115626   2.832   3.609   7.440
 5128WAT     H215627   2.795   3.515   7.312
 5129WAT      O15628   1.220   5.829   5.967
 5129WAT     H115629   1.256   5.909   5.919
 5129WAT     H215630   1.295   5.767   5.989
 5130WAT      O15631   5.185   2.410   3.395
 5130WAT     H115632   5.149   2.480   3.334
 5130WAT     H215633   5.152   2.426   3.488
 5131WAT      O15634   3.825   2.153   5.522
 5131WAT     H115635   3.733   2.191   5.529
 5131WAT     H215636   3.892   2.225   5.539
 5132WAT      O15637   2.448   8.295   5.656
 5132WAT     H115638   2.444   8.294   5.556
 5132WAT     H215639   2.483   8.207   5.689
 5133WAT      O15640   7.891   2.453   7.057
 5133WAT     H115641   7.894   2.467   6.958
 5133WAT     H215642   7.915   2.358   7.078
 5134WAT      O15643   1.482   6.363   4.373
 5134WAT     H115644   1.437   6.450   4.355
 5134WAT     H215645   1.556   6.376   4.439
 5135WAT      O15646   9.651   3.959   0.259
 5135WAT     H115647   9.703   3.887   0.212
 5135WAT     H215648   9.690   4.049   0.235
 5136WAT      O15649   1.832   2.038   3.933
 5136WAT     H115650   1.793   1.955   3.972
 5136WAT     H215651   1.880   2.015   3.848
 5137WAT      O15652   6.127   4.272   9.035
 5137WAT     H115653   6.086   4.356   9.000
 5137WAT     H215654   6.209   4.294   9.088
 5138WAT      O15655   4.457   9.496   8.439
 5138WAT     H115656   4.388   9.479   8.509
 5138WAT     H215657   4.533   9.548   8.478
 5139WAT      O15658   6.166   0.383   5.970
 5139WAT     H115659   6.199   0.456   6.030
 5139WAT     H215660   6.194   0.295   6.007
 5140WAT      O15661   2.821   0.407   7.591
 5140WAT     H115662   2.823   0.366   7.500
 5140WAT     H215663   2.817   0.335   7.660
 5141WAT      O15664   4.277   0.856   7.697
 5141WAT     H115665   4.352   0.921   7.685
 5141WAT     H215666   4.293   0.777   7.638
 5142WAT      O15667   5.267   1.399   0.089
 5142WAT     H115668   5.286   1.401   0.188
 5142WAT     H215669   5.346   1.434   0.040
 5143WAT      O15670   4.301   7.656   4.349
 5143WAT     H115671   4.205   7.674   4.329
 5143WAT     H215672   4.318   7.670   4.446
 5144WAT      O15673   2.336   2.624   3.611
 5144WAT     H115674   2.338   2.724   3.608
 5144WAT     H215675   2.312   2.594   3.704
 5145WAT      O15676   5.431   8.264   1.012
 5145WAT     H115677   5.516   8.313   0.995
 5145WAT     H215678   5.449   8.187   1.074
 5146WAT      O15679   3.882   9.540   3.809
 5146WAT     H115680   3.904   9.604   3.736
 5146WAT     H215681   3.871   9.448   3.771
 5147WAT      O15682   9.642   3.264   8.957
 5147WAT     H115683   9.566   3.328   8.954
 5147WAT     H215684   9.724   3.311   8.989
 5148WAT      O15685   7.274   4.212   1.732
 5148WAT     H115686   7.217   4.294   1.740
 5148WAT     H215687   7.335   4.206   1.811
 5149WAT      O15688   8.960   9.394   5.902
 5149WAT     H115689   9.059   9.381   5.910
 5149WAT     H215690   8.927   9.355   5.817
 5150WAT      O15691   8.037   7.740   4.909
 5150WAT     H115692   8.047   7.675   4.834
 5150WAT     H215693   7.940   7.762   4.921
 5151WAT      O15694   4.936   6.126   1.401
 5151WAT     H115695   4.974   6.104   1.311
 5151WAT     H215696   5.009   6.164   1.459
 5152WAT      O15697   0.058   6.649   3.802
 5152WAT     H115698   0.104   6.734   3.826
 5152WAT     H215699   0.023   6.655   3.708
 5153WAT      O15700   8.311   5.994   3.252
 5153WAT     H115701   8.214   6.016   3.244
 5153WAT     H215702   8.328   5.946   3.338
 5154WAT      O15703   4.611   4.660   6.042
 5154WAT     H115704   4.536   4.629   6.100
 5154WAT     H215705   4.665   4.581   6.012
 5155WAT      O15706   0.697   2.643   1.461
 5155WAT     H115707   0.633   2.710   1.498
 5155WAT     H215708   0.655   2.553   1.460
 5156WAT      O15709   4.710   3.442   9.579
 5156WAT     H115710   4.650   3.398   9.511
 5156WAT     H215711   4.657   3.508   9.632
 5157WAT      O15712   5.674   1.645   1.774
 5157WAT     H115713   5.673   1.549   1.799
 5157WAT     H215714   5.733   1.696   1.837
 5158WAT      O15715   1.448   1.168   5.852
 5158WAT     H115716   1.449   1.242   5.786
 5158WAT     H215717   1.426   1.204   5.943
 5159WAT      O15718   2.580   3.773   8.818
 5159WAT     H115719   2.536   3.790   8.730
 5159WAT     H215720   2.527   3.705   8.869
 5160WAT      O15721   3.121   2.907   8.450
 5160WAT     H115722   3.180   2.984   8.474
 5160WAT     H215723   3.027   2.939   8.440
 5161WAT      O15724   2.233   8.296   9.767
 5161WAT     H115725   2.275   8.354   9.837
 5161WAT     H215726   2.135   8.285   9.788
 5162WAT      O15727   6.724   1.515   7.192
 5162WAT     H115728   6.739   1.419   7.166
 5162WAT     H215729   6.730   1.524   7.291
 5163WAT      O15730   3.438   4.036   8.543
 5163WAT     H115731   3.432   4.026   8.443
 5163WAT     H215732   3.532   4.058   8.569
 5164WAT      O15733   2.527   8.628   8.501
 5164WAT     H115734   2.605   8.578   8.538
 5164WAT     H215735   2.462   8.564   8.461
 5165WAT      O15736   5.945   8.498   0.708
 5165WAT     H115737   5.919   8.467   0.617
 5165WAT     H215738   5.995   8.425   0.755
 5166WAT      O15739   1.413   3.978   0.255
 5166WAT     H115740   1.472   4.045   0.301
 5166WAT     H215741   1.328   3.968   0.306
 5167WAT      O15742   6.132   5.905   5.180
 5167WAT     H115743   6.078   5.836   5.131
 5167WAT     H215744   6.159   5.977   5.116
 5168WAT      O15745   7.590   0.529   4.825
 5168WAT     H115746   7.507   0.584   4.830
 5168WAT     H215747   7.621   0.507   4.918
 5169WAT      O15748   3.379   0.578   8.928
 5169WAT     H115749   3.311   0.595   8.999
 5169WAT     H215750   3.339   0.519   8.858
 5170WAT      O15751   3.927   3.608   1.978
 5170WAT     H115752   3.875   3.664   2.042
 5170WAT     H215753   3.986   3.545   2.028
 5171WAT      O15754   4.256   4.288   8.298
 5171WAT     H115755   4.356   4.287   8.292
 5171WAT     H215756   4.219   4.338   8.219
 5172WAT      O15757   1.785   7.987   2.619
 5172WAT     H115758   1.868   8.016   2.665
 5172WAT     H215759   1.725   8.066   2.604
 5173WAT      O15760   2.065   5.451   8.334
 5173WAT     H115761   2.051   5.541   8.375
 5173WAT     H215762   2.146   5.453   8.275
 5174WAT      O15763   8.121   6.864   6.120
 5174WAT     H115764   8.174   6.817   6.191
 5174WAT     H215765   8.077   6.797   6.061
 5175WAT      O15766   1.205   9.470   6.511
 5175WAT     H115767   1.111   9.440   6.528
 5175WAT     H215768   1.229   9.454   6.416
 5176WAT      O15769   7.710   4.435   7.194
 5176WAT     H115770   7.705   4.423   7.293
 5176WAT     H215771   7.677   4.527   7.170
 5177WAT      O15772   6.894   1.991   4.590
 5177WAT     H115773   6.932   1.910   4.546
 5177WAT     H215774   6.833   1.964   4.665
 5178WAT      O15775   7.276   8.726   5.153
 5178WAT     H115776   7.194   8.692   5.109
 5178WAT     H215777   7.337   8.767   5.085
 5179WAT      O15778   7.805   3.262   3.175
 5179WAT     H115779   7.905   3.252   3.172
 5179WAT     H215780   7.771   3.282   3.083
 5180WAT      O15781   8.832   4.968   8.175
 5180WAT     H115782   8.780   5.037   8.124
 5180WAT     H215783   8.807   4.877   8.143
 5181WAT      O15784   8.203   7.735   7.160
 5181WAT     H115785   8.302   7.739   7.174
 5181WAT     H215786   8.157   7.750   7.247
 5182WAT      O15787   2.139   8.842   2.319
 5182WAT     H115788   2.159   8.775   2.248
 5182WAT     H215789   2.048   8.881   2.304
 5183WAT      O15790   8.599   1.731   0.359
 5183WAT     H115791   8.559   1.819   0.384
 5183WAT     H215792   8.692   1.745   0.324
 5184WAT      O15793   0.908   0.472   7.378
 5184WAT     H115794   0.848   0.548   7.400
 5184WAT     H215795   0.856   0.401   7.330
 5185WAT      O15796   4.716   2.443   2.044
 5185WAT     H115797   4.693   2.438   2.141
 5185WAT     H215798   4.809   2.480   2.034
 5186WAT      O15799   5.160   4.836   0.974
 5186WAT     H115800   5.254   4.855   1.003
 5186WAT     H215801   5.158   4.752   0.921
 5187WAT      O15802   6.963   3.917   4.166
 5187WAT     H115803   7.054   3.946   4.139
 5187WAT     H215804   6.968   3.860   4.248
 5188WAT      O15805   4.821   8.417   8.737
 5188WAT     H115806   4.737   8.362   8.730
 5188WAT     H215807   4.896   8.359   8.768
 5189WAT      O15808   9.417   2.352   0.765
 5189WAT     H115809   9.383   2.269   0.810
 5189WAT     H215810   9.342   2.397   0.717
 5190WAT      O15811   7.489   6.422   4.915
 5190WAT     H115812   7.504   6.434   5.013
 5190WAT     H215813   7.396   6.450   4.892
 5191WAT      O15814   9.612   7.232   3.524
 5191WAT     H115815   9.667   7.224   3.440
 5191WAT     H215816   9.625   7.323   3.563
 5192WAT      O15817   9.223   8.366   8.977
 5192WAT     H115818   9.291   8.335   8.912
 5192WAT     H215819   9.203   8.463   8.961
 5193WAT      O15820   4.268   6.751   3.717
 5193WAT     H115821   4.182   6.777   3.761
 5193WAT     H215822   4.345   6.771   3.777
 5194WAT      O15823   2.671   2.563   1.993
 5194WAT     H115824   2.622   2.574   1.906
 5194WAT     H215825   2.717   2.649   2.016
 5195WAT      O15826   9.227   3.459   6.666
 5195WAT     H115827   9.182   3.393   6.605
 5195WAT     H215828   9.265   3.410   6.745
 5196WAT      O15829   0.614   0.657   5.854
 5196WAT     H115830   0.599   0.589   5.926
 5196WAT     H215831   0.575   0.624   5.768
 5197WAT      O15832   5.740   4.809   7.621
 5197WAT     H115833   5.754   4.726   7.567
 5197WAT     H215834   5.658   4.856   7.589
 5198WAT      O15835   0.867   0.658   9.205
 5198WAT     H115836   0.901   0.568   9.234
 5198WAT     H215837   0.789   0.646   9.144
 5199WAT      O15838   1.735   4.186   5.487
 5199WAT     H115839   1.666   4.128   5.444
 5199WAT     H215840   1.728   4.179   5.587
 5200WAT      O15841   6.876   6.173   4.204
 5200WAT     H115842   6.910   6.094   4.152
 5200WAT     H215843   6.938   6.191   4.280
 5201WAT      O15844   6.143   0.788   5.598
 5201WAT     H115845   6.107   0.706   5.554
 5201WAT     H215846   6.096   0.803   5.685
 5202WAT      O15847   3.203   5.841   3.561
 5202WAT     H115848   3.277   5.820   3.497
 5202WAT     H215849   3.241   5.868   3.649
 5203WAT      O15850   7.041   6.593   1.271
 5203WAT     H115851   7.088   6.512   1.236
 5203WAT     H215852   7.090   6.628   1.351
 5204WAT      O15853   6.854   6.866   2.593
 5204WAT     H115854   6.816   6.844   2.504
 5204WAT     H215855   6.829   6.795   2.659
 5205WAT      O15856   3.465   8.415   8.618
 5205WAT     H115857   3.418   8.444   8.702
 5205WAT     H215858   3.555   8.458   8.614
 5206WAT      O15859   7.772   6.661   6.353
 5206WAT     H115860   7.699   6.663   6.422
 5206WAT     H215861   7.738   6.703   6.268
 5207WAT      O15862   8.289   3.365   8.664
 5207WAT     H115863   8.325   3.272   8.670
 5207WAT     H215864   8.190   3.364   8.680
 5208WAT      O15865   8.020   3.219   8.187
 5208WAT     H115866   8.035   3.241   8.283
 5208WAT     H215867   8.101   3.172   8.151
 5209WAT      O15868   7.453   6.993   5.229
 5209WAT     H115869   7.363   6.950   5.229
 5209WAT     H215870   7.485   7.006   5.135
 5210WAT      O15871   0.020   9.511   0.486
 5210WAT     H115872   0.012   9.534   0.583
 5210WAT     H215873  -0.000   9.591   0.431
 5211WAT      O15874   8.177   1.245   6.318
 5211WAT     H115875   8.116   1.296   6.257
 5211WAT     H215876   8.149   1.259   6.413
 5212WAT      O15877   4.403   7.343   5.335
 5212WAT     H115878   4.323   7.317   5.388
 5212WAT     H215879   4.376   7.408   5.264
 5213WAT      O15880   2.119   6.516   8.412
 5213WAT     H115881   2.172   6.550   8.335
 5213WAT     H215882   2.175   6.518   8.495
 5214WAT      O15883   2.251   6.592   3.678
 5214WAT     H115884   2.350   6.591   3.669
 5214WAT     H215885   2.218   6.501   3.703
 5215WAT      O15886   3.094   2.153   4.018
 5215WAT     H115887   3.028   2.226   4.001
 5215WAT     H215888   3.170   2.188   4.073
 5216WAT      O15889   2.640   9.368   5.694
 5216WAT     H115890   2.716   9.304   5.703
 5216WAT     H215891   2.556   9.324   5.726
 5217WAT      O15892   1.169   0.179   8.990
 5217WAT     H115893   1.216   0.134   8.914
 5217WAT     H215894   1.168   0.278   8.974
 5218WAT      O15895   3.941   3.686   3.973
 5218WAT     H115896   3.970   3.671   4.068
 5218WAT     H215897   4.022   3.706   3.917
 5219WAT      O15898   4.043   5.974   3.509
 5219WAT     H115899   4.023   5.894   3.565
 5219WAT     H215900   4.050   5.947   3.413
 5220WAT      O15901   3.714   5.237   2.800
 5220WAT     H115902   3.713   5.311   2.733
 5220WAT     H215903   3.791   5.250   2.863
 5221WAT      O15904   3.906   2.479   4.049
 5221WAT     H115905   3.823   2.521   4.085
 5221WAT     H215906   3.961   2.444   4.125
 5222WAT      O15907   3.206   1.660   4.809
 5222WAT     H115908   3.273   1.682   4.879
 5222WAT     H215909   3.234   1.700   4.722
 5223WAT      O15910   0.584   0.108   2.063
 5223WAT     H115911   0.653   0.174   2.034
 5223WAT     H215912   0.599   0.084   2.159
 5224WAT      O15913   7.122   3.393   3.432
 5224WAT     H115914   7.190   3.340   3.381
 5224WAT     H215915   7.078   3.333   3.500
 5225WAT      O15916   5.098   8.118   1.550
 5225WAT     H115917   5.041   8.160   1.620
 5225WAT     H215918   5.139   8.189   1.493
 5226WAT      O15919   8.439   5.450   1.875
 5226WAT     H115920   8.399   5.381   1.934
 5226WAT     H215921   8.423   5.427   1.779
 5227WAT      O15922   0.170   1.342   7.833
 5227WAT     H115923   0.185   1.288   7.750
 5227WAT     H215924   0.179   1.283   7.913
 5228WAT      O15925   3.462   2.859   5.315
 5228WAT     H115926   3.532   2.808   5.266
 5228WAT     H215927   3.391   2.889   5.251
 5229WAT      O15928   4.522   3.347   9.395
 5229WAT     H115929   4.468   3.285   9.338
 5229WAT     H215930   4.468   3.429   9.415
 5230WAT      O15931   0.843   1.222   5.929
 5230WAT     H115932   0.872   1.174   5.846
 5230WAT     H215933   0.794   1.305   5.903
 5231WAT      O15934   0.700   0.813   4.724
 5231WAT     H115935   0.704   0.841   4.628
 5231WAT     H215936   0.607   0.823   4.758
 5232WAT      O15937   3.329   6.988   7.981
 5232WAT     H115938   3.327   7.079   7.938
 5232WAT     H215939   3.404   6.935   7.943
 5233WAT      O15940   2.554   3.431   9.331
 5233WAT     H115941   2.483   3.501   9.323
 5233WAT     H215942   2.512   3.344   9.356
 5234WAT      O15943   3.533   3.138   5.667
 5234WAT     H115944   3.443   3.097   5.680
 5234WAT     H215945   3.592   3.076   5.615
 5235WAT      O15946   0.090   1.065   2.060
 5235WAT     H115947   0.154   1.047   2.135
 5235WAT     H215948   0.130   1.132   1.998
 5236WAT      O15949   7.613   7.712   1.001
 5236WAT     H115950   7.706   7.743   0.981
 5236WAT     H215951   7.575   7.767   1.075
 5237WAT      O15952   6.274   0.917   5.118
 5237WAT     H115953   6.254   1.014   5.131
 5237WAT     H215954   6.277   0.872   5.207
 5238WAT      O15955   5.088   2.338   0.025
 5238WAT     H115956   5.104   2.406   0.097
 5238WAT     H215957   5.147   2.359  -0.053
 5239WAT      O15958   6.390   0.492   0.129
 5239WAT     H115959   6.399   0.393   0.134
 5239WAT     H215960   6.301   0.520   0.165
 5240WAT      O15961   0.079   8.568   4.779
 5240WAT     H115962   0.069   8.583   4.878
 5240WAT     H215963   0.172   8.593   4.752
 5241WAT      O15964   7.667   4.624   4.142
 5241WAT     H115965   7.704   4.654   4.054
 5241WAT     H215966   7.741   4.584   4.197
 5242WAT      O15967   7.239   7.307   4.415
 5242WAT     H115968   7.153   7.345   4.382
 5242WAT     H215969   7.305   7.305   4.340
 5243WAT      O15970   1.499   4.144   8.666
 5243WAT     H115971   1.466   4.236   8.688
 5243WAT     H215972   1.598   4.145   8.658
 5244WAT      O15973   5.812   3.712   1.815
 5244WAT     H115974   5.788   3.737   1.722
 5244WAT     H215975   5.748   3.754   1.879
 5245WAT      O15976   4.439   4.365   6.447
 5245WAT     H115977   4.383   4.321   6.516
 5245WAT     H215978   4.522   4.403   6.489
 5246WAT      O15979   9.342   3.609   4.513
 5246WAT     H115980   9.292   3.595   4.428
 5246WAT     H215981   9.281   3.592   4.591
 5247WAT      O15982   6.751   9.187   0.693
 5247WAT     H115983   6.840   9.142   0.683
 5247WAT     H215984   6.764   9.279   0.730
 5248WAT      O15985   5.744   1.203   4.061
 5248WAT     H115986   5.666   1.152   4.026
 5248WAT     H215987   5.820   1.140   4.079
 5249WAT      O15988   1.485   2.751   7.347
 5249WAT     H115989   1.399   2.791   7.316
 5249WAT     H215990   1.560   2.814   7.329
 5250WAT      O15991   8.779   4.185   5.143
 5250WAT     H115992   8.734   4.122   5.079
 5250WAT     H215993   8.769   4.150   5.236
 5251WAT      O15994   1.489   2.007   0.359
 5251WAT     H115995   1.517   2.013   0.455
 5251WAT     H215996   1.449   1.917   0.342
 5252WAT      O15997   9.309   2.659   4.952
 5252WAT     H115998   9.278   2.564   4.956
 5252WAT     H215999   9.241   2.718   4.996
 5253WAT      O16000   7.957   9.266   1.596
 5253WAT     H116001   8.015   9.202   1.546
 5253WAT     H216002   7.904   9.217   1.665
 5254WAT      O16003   8.065   2.751   0.618
 5254WAT     H116004   8.103   2.753   0.526
 5254WAT     H216005   8.031   2.841   0.643
 5255WAT      O16006   7.011   8.434   7.507
 5255WAT     H116007   6.992   8.529   7.481
 5255WAT     H216008   7.054   8.387   7.430
 5256WAT      O16009   4.511   1.658   8.913
 5256WAT     H116010   4.577   1.729   8.939
 5256WAT     H216011   4.538   1.619   8.824
 5257WAT      O16012   0.891   3.566   1.086
 5257WAT     H116013   0.945   3.634   1.136
 5257WAT     H216014   0.817   3.611   1.038
 5258WAT      O16015   4.208   0.961   3.722
 5258WAT     H116016   4.238   0.983   3.815
 5258WAT     H216017   4.264   1.012   3.657
 5259WAT      O16018   2.989   5.244   4.878
 5259WAT     H116019   2.991   5.212   4.783
 5259WAT     H216020   3.081   5.267   4.908
 5260WAT      O16021   1.989   8.165   7.455
 5260WAT     H116022   1.982   8.200   7.549
 5260WAT     H216023   2.030   8.074   7.457
 5261WAT      O16024   4.178   4.779   5.500
 5261WAT     H116025   4.262   4.779   5.446
 5261WAT     H216026   4.104   4.735   5.448
 5262WAT      O16027   8.095   2.945   2.464
 5262WAT     H116028   8.193   2.962   2.473
 5262WAT     H216029   8.078   2.888   2.384
 5263WAT      O16030   4.970   3.346   7.260
 5263WAT     H116031   5.052   3.389   7.297
 5263WAT     H216032   4.947   3.265   7.315
 5264WAT      O16033   4.447   9.356   5.601
 5264WAT     H116034   4.420   9.386   5.693
 5264WAT     H216035   4.369   9.311   5.557
 5265WAT      O16036   0.697   5.313   6.090
 5265WAT     H116037   0.618   5.311   6.152
 5265WAT     H216038   0.736   5.405   6.088
 5266WAT      O16039   6.228   9.224   9.080
 5266WAT     H116040   6.174   9.278   9.015
 5266WAT     H216041   6.297   9.172   9.031
 5267WAT      O16042   0.399   0.052   0.168
 5267WAT     H116043   0.423  -0.043   0.183
 5267WAT     H216044   0.345   0.086   0.245
 5268WAT      O16045   6.611   0.375   7.713
 5268WAT     H116046   6.636   0.285   7.677
 5268WAT     H216047   6.528   0.367   7.767
 5269WAT      O16048   0.907   5.971   8.986
 5269WAT     H116049   0.985   6.000   8.931
 5269WAT     H216050   0.823   5.976   8.931
 5270WAT      O16051   7.663   1.876   1.766
 5270WAT     H116052   7.627   1.948   1.707
 5270WAT     H216053   7.730   1.822   1.715
 5271WAT      O16054   4.748   7.258   7.155
 5271WAT     H116055   4.826   7.256   7.092
 5271WAT     H216056   4.714   7.351   7.164
 5272WAT      O16057   8.913   7.505   8.266
 5272WAT     H116058   8.900   7.493   8.167
 5272WAT     H216059   8.936   7.600   8.285
 5273WAT      O16060   8.165   6.836   0.911
 5273WAT     H116061   8.105   6.868   0.985
 5273WAT     H216062   8.215   6.914   0.874
 5274WAT      O16063   1.792   9.531   7.945
 5274WAT     H116064   1.848   9.543   7.863
 5274WAT     H216065   1.711   9.477   7.922
 5275WAT      O16066   6.609   1.035   4.870
 5275WAT     H116067   6.623   1.016   4.967
 5275WAT     H216068   6.581   0.952   4.823
 5276WAT      O16069   5.659   1.491   8.284
 5276WAT     H116070   5.572   1.540   8.278
 5276WAT     H216071   5.723   1.530   8.218
 5277WAT      O16072   0.752   4.870   2.028
 5277WAT     H116073   0.832   4.903   2.079
 5277WAT     H216074   0.670   4.881   2.084
 5278WAT      O16075   2.802   7.997   9.552
 5278WAT     H116076   2.780   8.094   9.547
 5278WAT     H216077   2.728   7.948   9.599
 5279WAT      O16078   5.842   4.870   3.247
 5279WAT     H116079   5.781   4.836   3.319
 5279WAT     H216080   5.798   4.860   3.158
 5280WAT      O16081   2.292   1.413   0.504
 5280WAT     H116082   2.310   1.440   0.409
 5280WAT     H216083   2.364   1.350   0.534
 5281WAT      O16084   0.284   0.418   2.974
 5281WAT     H116085   0.277   0.476   3.055
 5281WAT     H216086   0.331   0.333   2.998
 5282WAT      O16087   1.170   9.079   2.407
 5282WAT     H116088   1.242   9.062   2.475
 5282WAT     H216089   1.138   9.173   2.415
 5283WAT      O16090   8.112   8.358   8.424
 5283WAT     H116091   8.180   8.297   8.466
 5283WAT     H216092   8.022   8.317   8.433
 5284WAT      O16093   8.905   8.783   5.170
 5284WAT     H116094   8.986   8.818   5.122
 5284WAT     H216095   8.822   8.821   5.128
 5285WAT      O16096   9.488   3.657   3.232
 5285WAT     H116097   9.579   3.671   3.192
 5285WAT     H216098   9.488   3.687   3.327
 5286WAT      O16099   0.882   3.767   8.095
 5286WAT     H116100   0.814   3.833   8.126
 5286WAT     H216101   0.842   3.675   8.098
 5287WAT      O16102   2.500   3.119   2.549
 5287WAT     H116103   2.455   3.187   2.491
 5287WAT     H216104   2.560   3.165   2.614
 5288WAT      O16105   1.948   5.372   3.146
 5288WAT     H116106   2.032   5.373   3.200
 5288WAT     H216107   1.968   5.341   3.053
 5289WAT      O16108   4.655   9.201   6.493
 5289WAT     H116109   4.723   9.206   6.419
 5289WAT     H216110   4.580   9.265   6.474
 5290WAT      O16111   9.019   3.627   7.063
 5290WAT     H116112   8.959   3.693   7.016
 5290WAT     H216113   8.966   3.547   7.090
 5291WAT      O16114   2.436   0.682   2.250
 5291WAT     H116115   2.368   0.751   2.225
 5291WAT     H216116   2.390   0.604   2.293
 5292WAT      O16117   7.458   6.898   0.036
 5292WAT     H116118   7.455   6.801   0.013
 5292WAT     H216119   7.365   6.934   0.045
 5293WAT      O16120   4.547   7.109   6.354
 5293WAT     H116121   4.464   7.057   6.373
 5293WAT     H216122   4.579   7.154   6.437
 5294WAT      O16123   3.624   7.036   5.672
 5294WAT     H116124   3.625   6.950   5.723
 5294WAT     H216125   3.681   7.027   5.590
 5295WAT      O16126   7.112   9.720   2.874
 5295WAT     H116127   7.037   9.661   2.844
 5295WAT     H216128   7.077   9.788   2.938
 5296WAT      O16129   2.794   9.061   3.160
 5296WAT     H116130   2.821   8.973   3.119
 5296WAT     H216131   2.743   9.043   3.244
 5297WAT      O16132   4.640   0.719   5.630
 5297WAT     H116133   4.552   0.675   5.649
 5297WAT     H216134   4.683   0.675   5.552
 5298WAT      O16135   2.087   6.123   5.515
 5298WAT     H116136   1.987   6.127   5.519
 5298WAT     H216137   2.125   6.215   5.518
 5299WAT      O16138   4.640   8.043   9.228
 5299WAT     H116139   4.734   8.007   9.231
 5299WAT     H216140   4.583   7.990   9.291
 5300WAT      O16141   4.915   5.005   3.769
 5300WAT     H116142   4.854   5.085   3.768
 5300WAT     H216143   4.861   4.922   3.782
 5301WAT      O16144   4.090   3.368   3.056
 5301WAT     H116145   4.079   3.317   2.971
 5301WAT     H216146   4.047   3.317   3.131
 5302WAT      O16147   1.347   7.170   9.605
 5302WAT     H116148   1.427   7.110   9.615
 5302WAT     H216149   1.348   7.239   9.677
 5303WAT      O16150   2.904   2.801   9.652
 5303WAT     H116151   2.892   2.801   9.553
 5303WAT     H216152   2.934   2.711   9.682
 5304WAT      O16153   7.155   4.589   6.150
 5304WAT     H116154   7.254   4.581   6.142
 5304WAT     H216155   7.132   4.679   6.188
 5305WAT      O16156   3.365   7.157   3.881
 5305WAT     H116157   3.417   7.235   3.845
 5305WAT     H216158   3.268   7.168   3.859
 5306WAT      O16159   5.215   8.229   3.606
 5306WAT     H116160   5.219   8.137   3.568
 5306WAT     H216161   5.123   8.246   3.642
 5307WAT      O16162   5.372   6.868   6.962
 5307WAT     H116163   5.325   6.948   6.923
 5307WAT     H216164   5.306   6.794   6.977
 5308WAT      O16165   1.788   8.375   3.913
 5308WAT     H116166   1.845   8.323   3.848
 5308WAT     H216167   1.845   8.408   3.988
 5309WAT      O16168   7.082   9.225   8.814
 5309WAT     H116169   6.992   9.193   8.782
 5309WAT     H216170   7.070   9.274   8.901
 5310WAT      O16171   2.105   0.259   8.907
 5310WAT     H116172   2.009   0.286   8.912
 5310WAT     H216173   2.113   0.169   8.865
 5311WAT      O16174   7.714   1.499   0.768
 5311WAT     H116175   7.684   1.411   0.805
 5311WAT     H216176   7.813   1.508   0.778
 5312WAT      O16177   7.820   0.067   5.996
 5312WAT     H116178   7.899   0.006   5.989
 5312WAT     H216179   7.767   0.044   6.077
 5313WAT      O16180   7.659   4.417   5.155
 5313WAT     H116181   7.601   4.371   5.088
 5313WAT     H216182   7.752   4.427   5.117
 5314WAT      O16183   6.949   1.672   1.491
 5314WAT     H116184   6.940   1.578   1.524
 5314WAT     H216185   7.043   1.689   1.461
 5315WAT      O16186   8.594   2.363   7.506
 5315WAT     H116187   8.629   2.314   7.426
 5315WAT     H216188   8.538   2.301   7.561
 5316WAT      O16189   5.447   0.095   4.537
 5316WAT     H116190   5.398   0.125   4.619
 5316WAT     H216191   5.405   0.137   4.456
 5317WAT      O16192   0.468   4.056   2.736
 5317WAT     H116193   0.370   4.056   2.717
 5317WAT     H216194   0.487   4.119   2.811
 5318WAT      O16195   2.631   7.510   7.326
 5318WAT     H116196   2.535   7.490   7.310
 5318WAT     H216197   2.648   7.515   7.424
 5319WAT      O16198   5.506   2.301   3.704
 5319WAT     H116199   5.535   2.396   3.685
 5319WAT     H216200   5.521   2.281   3.800
 5320WAT      O16201   8.110   9.328   7.977
 5320WAT     H116202   8.095   9.280   7.890
 5320WAT     H216203   8.200   9.372   7.976
 5321WAT      O16204   4.911   7.818   6.311
 5321WAT     H116205   4.990   7.758   6.296
 5321WAT     H216206   4.911   7.891   6.242
 5322WAT      O16207   5.705   2.928   8.378
 5322WAT     H116208   5.761   2.981   8.442
 5322WAT     H216209   5.636   2.988   8.337
 5323WAT      O16210   8.070   5.050   5.702
 5323WAT     H116211   7.986   5.040   5.649
 5323WAT     H216212   8.149   5.046   5.640
 5324WAT      O16213   9.168   7.967   0.678
 5324WAT     H116214   9.084   7.930   0.720
 5324WAT     H216215   9.171   8.066   0.694
 5325WAT      O16216   6.489   8.275   1.332
 5325WAT     H116217   6.464   8.282   1.235
 5325WAT     H216218   6.587   8.289   1.343
 5326WAT      O16219   6.427   3.178   4.922
 5326WAT     H116220   6.360   3.104   4.930
 5326WAT     H216221   6.413   3.245   4.995
 5327WAT      O16222   2.975   0.766   6.400
 5327WAT     H116223   2.947   0.670   6.407
 5327WAT     H216224   3.010   0.797   6.488
 5328WAT      O16225   9.437   7.133   7.617
 5328WAT     H116226   9.372   7.206   7.638
 5328WAT     H216227   9.434   7.064   7.690
 5329WAT      O16228   3.934   7.849   6.022
 5329WAT     H116229   3.911   7.776   5.958
 5329WAT     H216230   4.008   7.819   6.082
 5330WAT      O16231   5.672   7.507   9.374
 5330WAT     H116232   5.602   7.489   9.305
 5330WAT     H216233   5.630   7.553   9.452
 5331WAT      O16234   2.353   1.961   9.549
 5331WAT     H116235   2.418   1.935   9.478
 5331WAT     H216236   2.387   2.042   9.598
 5332WAT      O16237   4.436   3.830   5.593
 5332WAT     H116238   4.354   3.871   5.633
 5332WAT     H216239   4.433   3.731   5.604
 5333WAT      O16240   1.704   0.676   3.272
 5333WAT     H116241   1.706   0.771   3.240
 5333WAT     H216242   1.713   0.614   3.193
 5334WAT      O16243   6.279   3.440   7.731
 5334WAT     H116244   6.255   3.530   7.767
 5334WAT     H216245   6.255   3.370   7.799
 5335WAT      O16246   2.961   5.190   6.069
 5335WAT     H116247   2.988   5.143   6.153
 5335WAT     H216248   3.023   5.267   6.054
 5336WAT      O16249   8.177   4.913   4.157
 5336WAT     H116250   8.238   4.878   4.229
 5336WAT     H216251   8.222   4.989   4.109
 5337WAT      O16252   4.127   5.896   3.858
 5337WAT     H116253   4.073   5.979   3.873
 5337WAT     H216254   4.078   5.835   3.797
 5338WAT      O16255   6.194   9.035   3.883
 5338WAT     H116256   6.180   9.087   3.798
 5338WAT     H216257   6.291   9.028   3.902
 5339WAT      O16258   6.334   8.389   9.386
 5339WAT     H116259   6.404   8.446   9.430
 5339WAT     H216260   6.274   8.447   9.331
 5340WAT      O16261   4.248   1.921   8.446
 5340WAT     H116262   4.180   1.905   8.518
 5340WAT     H216263   4.310   1.994   8.475
 5341WAT      O16264   3.796   4.085   0.473
 5341WAT     H116265   3.864   4.146   0.515
 5341WAT     H216266   3.707   4.131   0.471
 5342WAT      O16267   7.725   8.606   5.718
 5342WAT     H116268   7.705   8.613   5.621
 5342WAT     H216269   7.719   8.510   5.747
 5343WAT      O16270   4.683   6.627   2.973
 5343WAT     H116271   4.663   6.716   3.015
 5343WAT     H216272   4.763   6.587   3.018
 5344WAT      O16273   9.210   8.919   0.772
 5344WAT     H116274   9.256   8.842   0.728
 5344WAT     H216275   9.273   8.997   0.777
 5345WAT      O16276   8.453   2.353   9.384
 5345WAT     H116277   8.528   2.306   9.430
 5345WAT     H216278   8.482   2.445   9.357
 5346WAT      O16279   4.272   7.501   1.784
 5346WAT     H116280   4.231   7.511   1.874
 5346WAT     H216281   4.370   7.485   1.793
 5347WAT      O16282   1.711   0.916   9.084
 5347WAT     H116283   1.714   0.874   9.175
 5347WAT     H216284   1.618   0.915   9.050
 5348WAT      O16285   1.221   5.748   9.749
 5348WAT     H116286   1.319   5.751   9.728
 5348WAT     H216287   1.172   5.811   9.689
 5349WAT      O16288   7.766   2.917   8.747
 5349WAT     H116289   7.699   2.886   8.680
 5349WAT     H216290   7.858   2.897   8.714
 5350WAT      O16291   5.731   2.867   7.184
 5350WAT     H116292   5.779   2.908   7.107
 5350WAT     H216293   5.726   2.933   7.259
 5351WAT      O16294   5.029   7.626   8.511
 5351WAT     H116295   5.019   7.550   8.576
 5351WAT     H216296   5.123   7.628   8.477
 5352WAT      O16297   9.059   6.654   7.472
 5352WAT     H116298   9.075   6.736   7.527
 5352WAT     H216299   9.048   6.680   7.377
 5353WAT      O16300   7.387   1.917   8.864
 5353WAT     H116301   7.464   1.860   8.891
 5353WAT     H216302   7.420   1.999   8.817
 5354WAT      O16303   1.598   3.160   6.934
 5354WAT     H116304   1.556   3.231   6.877
 5354WAT     H216305   1.675   3.118   6.885
 5355WAT      O16306   2.421   3.407   5.183
 5355WAT     H116307   2.332   3.446   5.209
 5355WAT     H216308   2.472   3.383   5.266
 5356WAT      O16309   5.882   3.494   2.441
 5356WAT     H116310   5.936   3.476   2.359
 5356WAT     H216311   5.815   3.565   2.422
 5357WAT      O16312   0.015   3.786   1.765
 5357WAT     H116313   0.006   3.741   1.676
 5357WAT     H216314   0.101   3.836   1.769
 5358WAT      O16315   8.397   9.456   1.291
 5358WAT     H116316   8.337   9.535   1.307
 5358WAT     H216317   8.471   9.484   1.229
 5359WAT      O16318   6.516   5.959   1.866
 5359WAT     H116319   6.558   5.953   1.776
 5359WAT     H216320   6.421   5.988   1.857
 5360WAT      O16321   5.098   8.739   1.085
 5360WAT     H116322   5.146   8.663   1.041
 5360WAT     H216323   5.001   8.716   1.093
 5361WAT      O16324   9.502   9.455   4.573
 5361WAT     H116325   9.524   9.501   4.660
 5361WAT     H216326   9.574   9.472   4.507
 5362WAT      O16327   4.825   8.353   4.460
 5362WAT     H116328   4.776   8.302   4.531
 5362WAT     H216329   4.813   8.451   4.476
 5363WAT      O16330   2.826   2.229   4.420
 5363WAT     H116331   2.876   2.270   4.497
 5363WAT     H216332   2.875   2.249   4.335
 5364WAT      O16333   2.206   4.615   8.001
 5364WAT     H116334   2.192   4.658   8.091
 5364WAT     H216335   2.239   4.521   8.014
 5365WAT      O16336   7.088   5.693   7.083
 5365WAT     H116337   6.990   5.698   7.064
 5365WAT     H216338   7.131   5.629   7.019
 5366WAT      O16339   7.654   7.684   9.644
 5366WAT     H116340   7.611   7.687   9.734
 5366WAT     H216341   7.725   7.755   9.639
 5367WAT      O16342   0.659   7.593   2.724
 5367WAT     H116343   0.748   7.632   2.745
 5367WAT     H216344   0.595   7.613   2.798
 5368WAT      O16345   7.357   2.003   6.003
 5368WAT     H116346   7.293   2.079   6.003
 5368WAT     H216347   7.409   2.003   5.917
 5369WAT      O16348   4.130   3.383   7.957
 5369WAT     H116349   4.072   3.412   8.033
 5369WAT     H216350   4.179   3.462   7.920
 5370WAT      O16351   5.873   6.757   9.192
 5370WAT     H116352   5.825   6.695   9.130
 5370WAT     H216353   5.873   6.849   9.152
 5371WAT      O16354   0.412   3.860   1.156
 5371WAT     H116355   0.405   3.831   1.061
 5371WAT     H216356   0.343   3.929   1.176
 5372WAT      O16357   3.323   8.620   8.099
 5372WAT     H116358   3.329   8.556   8.176
 5372WAT     H216359   3.279   8.705   8.130
 5373WAT      O16360   2.624   3.504   2.091
 5373WAT     H116361   2.653   3.442   2.019
 5373WAT     H216362   2.640   3.599   2.062
 5374WAT      O16363   1.489   5.237   6.298
 5374WAT     H116364   1.545   5.224   6.216
 5374WAT     H216365   1.410   5.294   6.277
 5375WAT      O16366   5.907   6.886   8.316
 5375WAT     H116367   5.990   6.940   8.306
 5375WAT     H216368   5.827   6.944   8.300
 5376WAT      O16369   9.694   2.774   2.089
 5376WAT     H116370   9.756   2.841   2.048
 5376WAT     H216371   9.718   2.682   2.056
 5377WAT      O16372   0.567   1.172   1.732
 5377WAT     H116373   0.545   1.135   1.822
 5377WAT     H216374   0.499   1.240   1.706
 5378WAT      O16375   4.885   4.444   5.200
 5378WAT     H116376   4.980   4.454   5.228
 5378WAT     H216377   4.870   4.491   5.113
 5379WAT      O16378   6.664   7.365   4.085
 5379WAT     H116379   6.653   7.436   4.015
 5379WAT     H216380   6.579   7.313   4.094
 5380WAT      O16381   7.186   1.767   9.353
 5380WAT     H116382   7.232   1.844   9.309
 5380WAT     H216383   7.091   1.792   9.373
 5381WAT      O16384   6.258   7.070   5.712
 5381WAT     H116385   6.248   7.153   5.657
 5381WAT     H216386   6.209   6.995   5.668
 5382WAT      O16387   8.916   5.314   7.184
 5382WAT     H116388   8.938   5.378   7.258
 5382WAT     H216389   8.918   5.363   7.097
 5383WAT      O16390   5.766   5.751   4.461
 5383WAT     H116391   5.759   5.665   4.512
 5383WAT     H216392   5.718   5.823   4.510
 5384WAT      O16393   1.357   5.980   1.020
 5384WAT     H116394   1.366   6.061   0.962
 5384WAT     H216395   1.265   5.944   1.013
 5385WAT      O16396   6.095   0.402   2.539
 5385WAT     H116397   6.023   0.410   2.470
 5385WAT     H216398   6.126   0.493   2.566
 5386WAT      O16399   9.698   7.080   7.952
 5386WAT     H116400   9.740   6.994   7.981
 5386WAT     H216401   9.700   7.086   7.852
 5387WAT      O16402   2.484   1.649   7.001
 5387WAT     H116403   2.431   1.718   6.952
 5387WAT     H216404   2.526   1.586   6.936
 5388WAT      O16405   0.537   4.653   6.016
 5388WAT     H116406   0.461   4.712   6.041
 5388WAT     H216407   0.622   4.691   6.051
 5389WAT      O16408   4.469   5.459   3.458
 5389WAT     H116409   4.436   5.410   3.538
 5389WAT     H216410   4.426   5.423   3.375
 5390WAT      O16411   2.055   0.767   2.340
 5390WAT     H116412   2.061   0.728   2.432
 5390WAT     H216413   1.960   0.793   2.321
 5391WAT      O16414   6.166   9.595   6.401
 5391WAT     H116415   6.078   9.602   6.355
 5391WAT     H216416   6.237   9.635   6.343
 5392WAT      O16417   8.769   9.587   8.603
 5392WAT     H116418   8.851   9.575   8.548
 5392WAT     H216419   8.688   9.581   8.544
 5393WAT      O16420   8.637   7.709   3.818
 5393WAT     H116421   8.636   7.727   3.916
 5393WAT     H216422   8.723   7.663   3.793
 5394WAT      O16423   9.142   2.431   3.509
 5394WAT     H116424   9.197   2.467   3.585
 5394WAT     H216425   9.079   2.361   3.544
 5395WAT      O16426   3.370   0.037   4.012
 5395WAT     H116427   3.334  -0.005   4.095
 5395WAT     H216428   3.440  -0.022   3.972
 5396WAT      O16429   9.419   5.639   2.425
 5396WAT     H116430   9.455   5.644   2.518
 5396WAT     H216431   9.436   5.726   2.378
 5397WAT      O16432   6.735   5.070   4.002
 5397WAT     H116433   6.808   5.057   4.069
 5397WAT     H216434   6.656   5.013   4.027
 5398WAT      O16435   2.556   5.378   5.587
 5398WAT     H116436   2.509   5.344   5.506
 5398WAT     H216437   2.564   5.305   5.655
 5399WAT      O16438   7.253   8.222   6.989
 5399WAT     H116439   7.350   8.204   6.977
 5399WAT     H216440   7.236   8.320   6.978
 5400WAT      O16441   7.080   1.896   1.939
 5400WAT     H116442   7.043   1.845   1.862
 5400WAT     H216443   7.147   1.963   1.907
 5401WAT      O16444   0.462   0.817   6.938
 5401WAT     H116445   0.411   0.731   6.937
 5401WAT     H216446   0.511   0.827   6.852
 5402WAT      O16447   6.408   6.609   4.585
 5402WAT     H116448   6.427   6.705   4.601
 5402WAT     H216449   6.442   6.555   4.662
 5403WAT      O16450   8.706   4.808   1.365
 5403WAT     H116451   8.782   4.870   1.384
 5403WAT     H216452   8.734   4.714   1.383
 5404WAT      O16453   2.069   6.880   9.516
 5404WAT     H116454   2.065   6.963   9.461
 5404WAT     H216455   2.126   6.896   9.597
 5405WAT      O16456   0.231   9.647   8.923
 5405WAT     H116457   0.199   9.649   8.828
 5405WAT     H216458   0.264   9.555   8.945
 5406WAT      O16459   9.093   4.480   5.610
 5406WAT     H116460   9.188   4.512   5.615
 5406WAT     H216461   9.038   4.532   5.675
 5407WAT      O16462   3.955   2.223   9.524
 5407WAT     H116463   3.964   2.123   9.527
 5407WAT     H216464   3.981   2.261   9.613
 5408WAT      O16465   3.416   8.299   8.888
 5408WAT     H116466   3.337   8.240   8.871
 5408WAT     H216467   3.493   8.267   8.834
 5409WAT      O16468   3.079   5.777   2.273
 5409WAT     H116469   3.077   5.796   2.175
 5409WAT     H216470   3.069   5.679   2.288
 5410WAT      O16471   8.450   9.126   4.492
 5410WAT     H116472   8.364   9.094   4.531
 5410WAT     H216473   8.472   9.073   4.410
 5411WAT      O16474   0.876   4.284   9.018
 5411WAT     H116475   0.945   4.287   9.090
 5411WAT     H216476   0.916   4.316   8.932
 5412WAT      O16477   4.205   6.261   2.629
 5412WAT     H116478   4.224   6.328   2.558
 5412WAT     H216479   4.128   6.292   2.685
 5413WAT      O16480   0.886   5.686   5.415
 5413WAT     H116481   0.855   5.775   5.382
 5413WAT     H216482   0.921   5.632   5.338
 5414WAT      O16483   8.999   9.676   9.365
 5414WAT     H116484   9.088   9.716   9.345
 5414WAT     H216485   9.011   9.583   9.399
 5415WAT      O16486   3.771   8.994   3.840
 5415WAT     H116487   3.858   8.945   3.841
 5415WAT     H216488   3.762   9.047   3.925
 5416WAT      O16489   6.299   4.561   4.628
 5416WAT     H116490   6.321   4.636   4.565
 5416WAT     H216491   6.366   4.560   4.703
 5417WAT      O16492   5.083   7.896   7.668
 5417WAT     H116493   5.061   7.905   7.571
 5417WAT     H216494   5.179   7.867   7.677
 5418WAT      O16495   5.816   7.366   8.062
 5418WAT     H116496   5.813   7.267   8.077
 5418WAT     H216497   5.723   7.400   8.051
 5419WAT      O16498   2.815   3.287   5.466
 5419WAT     H116499   2.775   3.223   5.532
 5419WAT     H216500   2.826   3.242   5.378
 5420WAT      O16501   3.619   1.702   3.578
 5420WAT     H116502   3.669   1.641   3.638
 5420WAT     H216503   3.634   1.674   3.483
 5421WAT      O16504   1.460   2.089   3.522
 5421WAT     H116505   1.544   2.103   3.469
 5421WAT     H216506   1.475   2.019   3.591
 5422WAT      O16507   2.459   0.823   6.146
 5422WAT     H116508   2.407   0.739   6.158
 5422WAT     H216509   2.512   0.842   6.229
 5423WAT      O16510   1.492   4.417   7.102
 5423WAT     H116511   1.450   4.358   7.171
 5423WAT     H216512   1.560   4.366   7.051
 5424WAT      O16513   2.931   0.293   8.491
 5424WAT     H116514   2.898   0.216   8.545
 5424WAT     H216515   2.920   0.272   8.394
 5425WAT      O16516   0.223   0.327   6.818
 5425WAT     H116517   0.275   0.391   6.876
 5425WAT     H216518   0.225   0.236   6.860
 5426WAT      O16519   1.776   3.309   9.007
 5426WAT     H116520   1.861   3.362   9.005
 5426WAT     H216521   1.740   3.309   9.100
 5427WAT      O16522   1.439   5.836   1.230
 5427WAT     H116523   1.516   5.773   1.220
 5427WAT     H216524   1.423   5.884   1.144
 5428WAT      O16525   6.966   5.051   4.150
 5428WAT     H116526   6.993   5.086   4.240
 5428WAT     H216527   7.039   5.071   4.084
 5429WAT      O16528   6.335   7.031   2.940
 5429WAT     H116529   6.370   7.116   2.979
 5429WAT     H216530   6.368   6.954   2.995
 5430WAT      O16531   7.303   4.081   2.180
 5430WAT     H116532   7.305   4.180   2.162
 5430WAT     H216533   7.212   4.055   2.213
 5431WAT      O16534   4.108   6.991   9.176
 5431WAT     H116535   4.097   6.894   9.195
 5431WAT     H216536   4.059   7.045   9.244
 5432WAT      O16537   9.201   7.072   5.667
 5432WAT     H116538   9.291   7.070   5.709
 5432WAT     H216539   9.202   7.136   5.590
 5433WAT      O16540   2.112   2.460   8.155
 5433WAT     H116541   2.063   2.406   8.224
 5433WAT     H216542   2.045   2.506   8.096
 5434WAT      O16543  -0.001   8.417   3.062
 5434WAT     H116544  -0.056   8.415   2.978
 5434WAT     H216545   0.094   8.396   3.040
 5435WAT      O16546   9.693   9.573   6.579
 5435WAT     H116547   9.746   9.549   6.660
 5435WAT     H216548   9.753   9.579   6.500
 5436WAT      O16549   9.658   1.377   5.531
 5436WAT     H116550   9.596   1.390   5.608
 5436WAT     H216551   9.605   1.365   5.447
 5437WAT      O16552   0.144   9.674   4.208
 5437WAT     H116553   0.232   9.714   4.235
 5437WAT     H216554   0.084   9.669   4.288
 5438WAT      O16555   2.195   2.842   3.027
 5438WAT     H116556   2.254   2.894   3.088
 5438WAT     H216557   2.204   2.877   2.934
 5439WAT      O16558   6.123   0.165   5.387
 5439WAT     H116559   6.030   0.137   5.411
 5439WAT     H216560   6.189   0.105   5.434
 5440WAT      O16561   9.370   3.575   5.267
 5440WAT     H116562   9.383   3.666   5.226
 5440WAT     H216563   9.446   3.556   5.329
 5441WAT      O16564   5.375   6.505   4.509
 5441WAT     H116565   5.392   6.435   4.440
 5441WAT     H216566   5.282   6.542   4.496
 5442WAT      O16567   1.869   6.173   4.367
 5442WAT     H116568   1.811   6.249   4.397
 5442WAT     H216569   1.929   6.146   4.442
 5443WAT      O16570   5.556   3.718   8.116
 5443WAT     H116571   5.567   3.813   8.089
 5443WAT     H216572   5.618   3.697   8.192
 5444WAT      O16573   4.470   2.052   5.459
 5444WAT     H116574   4.490   2.149   5.471
 5444WAT     H216575   4.428   2.038   5.369
 5445WAT      O16576   6.517   1.896   2.926
 5445WAT     H116577   6.578   1.931   2.856
 5445WAT     H216578   6.464   1.971   2.965
 5446WAT      O16579   7.660   5.322   8.555
 5446WAT     H116580   7.687   5.278   8.641
 5446WAT     H216581   7.573   5.369   8.567
 5447WAT      O16582   2.246   6.744   4.438
 5447WAT     H116583   2.250   6.644   4.431
 5447WAT     H216584   2.335   6.779   4.468
 5448WAT      O16585   7.029   2.580   4.042
 5448WAT     H116586   7.014   2.675   4.016
 5448WAT     H216587   7.105   2.575   4.107
 5449WAT      O16588   8.699   6.844   4.685
 5449WAT     H116589   8.723   6.938   4.662
 5449WAT     H216590   8.768   6.806   4.747
 5450WAT      O16591   7.434   1.776   3.534
 5450WAT     H116592   7.496   1.737   3.602
 5450WAT     H216593   7.377   1.704   3.495
 5451WAT      O16594   1.498   9.315   5.822
 5451WAT     H116595   1.417   9.263   5.794
 5451WAT     H216596   1.573   9.297   5.759
 5452WAT      O16597   5.374   1.864   7.789
 5452WAT     H116598   5.313   1.942   7.804
 5452WAT     H216599   5.445   1.890   7.724
 5453WAT      O16600   6.101   9.813   2.771
 5453WAT     H116601   6.147   9.739   2.724
 5453WAT     H216602   6.028   9.776   2.828
 5454WAT      O16603   5.099   4.557   5.729
 5454WAT     H116604   5.193   4.584   5.708
 5454WAT     H216605   5.046   4.551   5.645
 5455WAT      O16606   8.155   5.830   7.089
 5455WAT     H116607   8.118   5.887   7.016
 5455WAT     H216608   8.094   5.752   7.105
 5456WAT      O16609   1.425   2.647   4.370
 5456WAT     H116610   1.509   2.678   4.326
 5456WAT     H216611   1.383   2.724   4.419
 5457WAT      O16612   5.342   2.572   9.239
 5457WAT     H116613   5.266   2.636   9.251
 5457WAT     H216614   5.323   2.511   9.162
 5458WAT      O16615   8.409   5.587   3.600
 5458WAT     H116616   8.460   5.663   3.642
 5458WAT     H216617   8.367   5.619   3.516
 5459WAT      O16618   9.233   5.149   1.107
 5459WAT     H116619   9.184   5.227   1.067
 5459WAT     H216620   9.325   5.145   1.069
 5460WAT      O16621   9.153   7.817   3.452
 5460WAT     H116622   9.215   7.796   3.528
 5460WAT     H216623   9.164   7.913   3.427
 5461WAT      O16624   3.056   1.497   1.729
 5461WAT     H116625   3.033   1.408   1.690
 5461WAT     H216626   3.146   1.525   1.697
 5462WAT      O16627   7.451   0.062   2.342
 5462WAT     H116628   7.447   0.151   2.387
 5462WAT     H216629   7.542   0.049   2.302
 5463WAT      O16630   2.536   4.192   3.025
 5463WAT     H116631   2.590   4.276   3.028
 5463WAT     H216632   2.504   4.176   2.932
 5464WAT      O16633   2.496   3.125   7.273
 5464WAT     H116634   2.401   3.101   7.289
 5464WAT     H216635   2.543   3.137   7.360
 5465WAT      O16636   0.922   5.784   9.437
 5465WAT     H116637   0.863   5.737   9.503
 5465WAT     H216638   0.876   5.866   9.404
 5466WAT      O16639   6.736   6.581   5.725
 5466WAT     H116640   6.640   6.599   5.703
 5466WAT     H216641   6.745   6.572   5.824
 5467WAT      O16642   0.690   4.950   7.764
 5467WAT     H116643   0.678   4.852   7.779
 5467WAT     H216644   0.656   4.974   7.673
 5468WAT      O16645   1.666   3.869   3.628
 5468WAT     H116646   1.589   3.811   3.653
 5468WAT     H216647   1.705   3.911   3.710
 5469WAT      O16648   8.362   2.525   7.299
 5469WAT     H116649   8.337   2.459   7.369
 5469WAT     H216650   8.448   2.497   7.256
 5470WAT      O16651   6.797   9.044   9.135
 5470WAT     H116652   6.755   8.956   9.155
 5470WAT     H216653   6.842   9.039   9.046
 5471WAT      O16654   9.208   9.097   5.991
 5471WAT     H116655   9.228   9.180   5.939
 5471WAT     H216656   9.111   9.096   6.017
 5472WAT      O16657   1.370   3.057   4.304
 5472WAT     H116658   1.361   2.984   4.236
 5472WAT     H216659   1.454   3.108   4.287
 5473WAT      O16660   6.372   6.835   1.809
 5473WAT     H116661   6.434   6.883   1.747
 5473WAT     H216662   6.293   6.893   1.828
 5474WAT      O16663   4.070   7.017   9.628
 5474WAT     H116664   4.123   6.934   9.609
 5474WAT     H216665   4.042   7.017   9.724
 5475WAT      O16666   4.877   1.424   6.968
 5475WAT     H116667   4.871   1.401   6.871
 5475WAT     H216668   4.785   1.439   7.005
 5476WAT      O16669   7.612   0.152   1.001
 5476WAT     H116670   7.696   0.204   1.014
 5476WAT     H216671   7.616   0.103   0.914
 5477WAT      O16672   4.161   1.195   9.876
 5477WAT     H116673   4.112   1.256   9.938
 5477WAT     H216674   4.256   1.186   9.905
 5478WAT      O16675   9.245   2.052   1.419
 5478WAT     H116676   9.234   2.150   1.436
 5478WAT     H216677   9.341   2.026   1.430
 5479WAT      O16678   0.834   2.348   6.844
 5479WAT     H116679   0.799   2.441   6.829
 5479WAT     H216680   0.761   2.282   6.825
 5480WAT      O16681   5.656   7.631   8.402
 5480WAT     H116682   5.582   7.662   8.343
 5480WAT     H216683   5.660   7.688   8.484
 5481WAT      O16684   4.029   5.760   9.583
 5481WAT     H116685   3.944   5.762   9.529
 5481WAT     H216686   4.066   5.853   9.590
 5482WAT      O16687   7.222   6.389   7.935
 5482WAT     H116688   7.225   6.330   7.854
 5482WAT     H216689   7.207   6.333   8.016
 5483WAT      O16690   7.538   4.466   0.601
 5483WAT     H116691   7.475   4.533   0.560
 5483WAT     H216692   7.617   4.454   0.541
 5484WAT      O16693   7.369   7.499   2.756
 5484WAT     H116694   7.333   7.531   2.668
 5484WAT     H216695   7.301   7.516   2.828
 5485WAT      O16696   6.314   9.506   3.418
 5485WAT     H116697   6.375   9.444   3.368
 5485WAT     H216698   6.247   9.544   3.354
 5486WAT      O16699   5.073   8.596   6.750
 5486WAT     H116700   5.170   8.614   6.763
 5486WAT     H216701   5.059   8.499   6.733
 5487WAT      O16702   7.333   7.633   2.535
 5487WAT     H116703   7.397   7.651   2.460
 5487WAT     H216704   7.239   7.638   2.501
 5488WAT      O16705   2.213   4.889   8.789
 5488WAT     H116706   2.213   4.971   8.847
 5488WAT     H216707   2.175   4.912   8.699
 5489WAT      O16708   6.993   6.070   0.630
 5489WAT     H116709   7.065   6.100   0.693
 5489WAT     H216710   7.034   6.034   0.546
 5490WAT      O16711   7.001   0.229   0.967
 5490WAT     H116712   6.989   0.162   0.894
 5490WAT     H216713   6.997   0.321   0.928
 5491WAT      O16714   2.678   5.023   8.330
 5491WAT     H116715   2.698   5.050   8.236
 5491WAT     H216716   2.735   5.076   8.393
 5492WAT      O16717   4.425   0.805   1.083
 5492WAT     H116718   4.325   0.811   1.080
 5492WAT     H216719   4.457   0.824   1.176
 5493WAT      O16720   9.349   6.701   1.531
 5493WAT     H116721   9.436   6.668   1.568
 5493WAT     H216722   9.284   6.626   1.524
 5494WAT      O16723   7.374   2.675   3.845
 5494WAT     H116724   7.406   2.592   3.801
 5494WAT     H216725   7.423   2.754   3.808
 5495WAT      O16726   5.141   3.745   1.155
 5495WAT     H116727   5.103   3.695   1.078
 5495WAT     H216728   5.183   3.830   1.123
 5496WAT      O16729   5.202   4.252   9.763
 5496WAT     H116730   5.246   4.207   9.841
 5496WAT     H216731   5.111   4.213   9.749
 5497WAT      O16732   7.933   9.774   2.070
 5497WAT     H116733   7.873   9.823   2.007
 5497WAT     H216734   7.878   9.719   2.132
 5498WAT      O16735   6.205   9.449   6.041
 5498WAT     H116736   6.252   9.408   6.119
 5498WAT     H216737   6.131   9.507   6.073
 5499WAT      O16738   8.515   5.746   6.929
 5499WAT     H116739   8.463   5.762   7.013
 5499WAT     H216740   8.462   5.778   6.850
 5500WAT      O16741   0.217   9.804   1.936
 5500WAT     H116742   0.183   9.894   1.906
 5500WAT     H216743   0.151   9.734   1.910
 5501WAT      O16744   4.757   5.828   7.307
 5501WAT     H116745   4.715   5.783   7.386
 5501WAT     H216746   4.769   5.763   7.233
 5502WAT      O16747   0.182   5.109   7.595
 5502WAT     H116748   0.091   5.145   7.575
 5502WAT     H216749   0.244   5.132   7.520
 5503WAT      O16750   7.748   9.617   3.476
 5503WAT     H116751   7.723   9.528   3.438
 5503WAT     H216752   7.725   9.620   3.573
 5504WAT      O16753   6.166   5.996   1.918
 5504WAT     H116754   6.197   6.068   1.856
 5504WAT     H216755   6.206   6.010   2.008
 5505WAT      O16756   9.397   0.950   0.768
 5505WAT     H116757   9.378   1.042   0.803
 5505WAT     H216758   9.335   0.930   0.692
 5506WAT      O16759   4.471   6.600   8.133
 5506WAT     H116760   4.514   6.536   8.197
 5506WAT     H216761   4.510   6.691   8.145
 5507WAT      O16762   7.581   5.483   2.926
 5507WAT     H116763   7.631   5.564   2.897
 5507WAT     H216764   7.585   5.413   2.855
 5508WAT      O16765   2.175   6.370   5.569
 5508WAT     H116766   2.177   6.424   5.485
 5508WAT     H216767   2.158   6.429   5.647
 5509WAT      O16768   6.486   7.436   1.955
 5509WAT     H116769   6.544   7.381   2.015
 5509WAT     H216770   6.538   7.466   1.875
 5510WAT      O16771   7.016   5.184   6.053
 5510WAT     H116772   6.967   5.104   6.018
 5510WAT     H216773   6.950   5.247   6.095
 5511WAT      O16774   6.247   5.703   2.047
 5511WAT     H116775   6.246   5.802   2.063
 5511WAT     H216776   6.154   5.667   2.052
 5512WAT      O16777   3.369   8.994   3.531
 5512WAT     H116778   3.306   9.062   3.569
 5512WAT     H216779   3.432   9.039   3.467
 5513WAT      O16780   3.599   2.251   2.522
 5513WAT     H116781   3.549   2.171   2.556
 5513WAT     H216782   3.695   2.245   2.551
 5514WAT      O16783   3.878   7.016   0.941
 5514WAT     H116784   3.787   6.988   0.973
 5514WAT     H216785   3.945   6.948   0.971
 5515WAT      O16786   1.426   8.136   0.757
 5515WAT     H116787   1.447   8.231   0.734
 5515WAT     H216788   1.511   8.083   0.760
 5516WAT      O16789   2.728   7.429   7.991
 5516WAT     H116790   2.692   7.354   8.046
 5516WAT     H216791   2.652   7.486   7.960
 5517WAT      O16792   1.063   1.996   2.152
 5517WAT     H116793   1.077   2.094   2.141
 5517WAT     H216794   1.149   1.953   2.182
 5518WAT      O16795   1.486   3.634   1.881
 5518WAT     H116796   1.390   3.605   1.884
 5518WAT     H216797   1.539   3.582   1.947
 5519WAT      O16798   6.007   0.928   9.003
 5519WAT     H116799   6.091   0.882   8.974
 5519WAT     H216800   5.928   0.872   8.979
 5520WAT      O16801   6.722   3.456   5.120
 5520WAT     H116802   6.623   3.442   5.109
 5520WAT     H216803   6.745   3.548   5.090
 5521WAT      O16804   3.218   9.213   7.609
 5521WAT     H116805   3.248   9.150   7.538
 5521WAT     H216806   3.216   9.166   7.697
 5522WAT      O16807   1.412   9.001   1.441
 5522WAT     H116808   1.365   9.084   1.470
 5522WAT     H216809   1.344   8.928   1.428
 5523WAT      O16810   8.317   0.336   1.119
 5523WAT     H116811   8.371   0.403   1.171
 5523WAT     H216812   8.245   0.384   1.069
 5524WAT      O16813   8.926   6.124   3.044
 5524WAT     H116814   9.014   6.078   3.053
 5524WAT     H216815   8.853   6.056   3.039
 5525WAT      O16816   6.441   8.375   5.925
 5525WAT     H116817   6.461   8.342   5.832
 5525WAT     H216818   6.503   8.329   5.989
 5526WAT      O16819   5.021   4.338   4.853
 5526WAT     H116820   5.098   4.370   4.909
 5526WAT     H216821   4.947   4.406   4.857
 5527WAT      O16822   6.615   1.152   2.374
 5527WAT     H116823   6.702   1.121   2.412
 5527WAT     H216824   6.554   1.074   2.365
 5528WAT      O16825   5.837   3.778   6.714
 5528WAT     H116826   5.765   3.711   6.697
 5528WAT     H216827   5.819   3.861   6.660
 5529WAT      O16828   3.439   0.457   7.383
 5529WAT     H116829   3.364   0.490   7.440
 5529WAT     H216830   3.464   0.527   7.317
 5530WAT      O16831   0.268   7.660   2.287
 5530WAT     H116832   0.223   7.748   2.299
 5530WAT     H216833   0.367   7.673   2.292
 5531WAT      O16834   9.140   8.737   2.453
 5531WAT     H116835   9.235   8.707   2.465
 5531WAT     H216836   9.126   8.764   2.358
 5532WAT      O16837   9.605   5.182   6.217
 5532WAT     H116838   9.692   5.177   6.169
 5532WAT     H216839   9.567   5.274   6.209
 5533WAT      O16840   1.901   5.835   4.610
 5533WAT     H116841   1.806   5.851   4.636
 5533WAT     H216842   1.944   5.773   4.677
 5534WAT      O16843   8.564   8.121   4.024
 5534WAT     H116844   8.507   8.202   4.008
 5534WAT     H216845   8.513   8.055   4.078
 5535WAT      O16846   1.391   5.634   5.221
 5535WAT     H116847   1.350   5.604   5.135
 5535WAT     H216848   1.323   5.686   5.274
 5536WAT      O16849   2.321   3.531   6.441
 5536WAT     H116850   2.391   3.467   6.475
 5536WAT     H216851   2.364   3.598   6.381
 5537WAT      O16852   8.885   0.286   6.871
 5537WAT     H116853   8.980   0.254   6.873
 5537WAT     H216854   8.876   0.361   6.806
 5538WAT      O16855   7.651   9.577   2.309
 5538WAT     H116856   7.678   9.673   2.301
 5538WAT     H216857   7.553   9.571   2.328
 5539WAT      O16858   9.041   9.119   4.329
 5539WAT     H116859   9.069   9.211   4.301
 5539WAT     H216860   9.112   9.077   4.384
 5540WAT      O16861   6.849   9.051   4.735
 5540WAT     H116862   6.879   9.087   4.646
 5540WAT     H216863   6.796   8.968   4.721
 5541WAT      O16864   6.665   2.141   6.007
 5541WAT     H116865   6.633   2.051   5.975
 5541WAT     H216866   6.764   2.136   6.024
 5542WAT      O16867   0.969   3.979   9.440
 5542WAT     H116868   0.946   4.060   9.386
 5542WAT     H216869   0.886   3.929   9.463
 5543WAT      O16870   2.978   2.964   3.234
 5543WAT     H116871   2.878   2.965   3.234
 5543WAT     H216872   3.012   3.034   3.171
 5544WAT      O16873   1.382   6.617   2.078
 5544WAT     H116874   1.300   6.615   2.135
 5544WAT     H216875   1.430   6.529   2.085
 5545WAT      O16876   1.998   6.494   9.034
 5545WAT     H116877   1.934   6.479   8.959
 5545WAT     H216878   2.057   6.413   9.043
 5546WAT      O16879   5.504   6.673   5.101
 5546WAT     H116880   5.568   6.649   5.174
 5546WAT     H216881   5.416   6.697   5.141
 5547WAT      O16882   0.954   0.636   1.484
 5547WAT     H116883   1.052   0.616   1.494
 5547WAT     H216884   0.902   0.551   1.493
 5548WAT      O16885   6.368   0.182   3.580
 5548WAT     H116886   6.465   0.206   3.589
 5548WAT     H216887   6.341   0.191   3.485
 5549WAT      O16888   2.199   8.073   6.440
 5549WAT     H116889   2.233   8.064   6.346
 5549WAT     H216890   2.167   7.984   6.472
 5550WAT      O16891   6.615   4.086   8.834
 5550WAT     H116892   6.629   4.037   8.748
 5550WAT     H216893   6.525   4.063   8.871
 5551WAT      O16894   0.900   7.511   3.896
 5551WAT     H116895   0.823   7.529   3.958
 5551WAT     H216896   0.966   7.452   3.941
 5552WAT      O16897   8.497   1.332   3.596
 5552WAT     H116898   8.523   1.309   3.690
 5552WAT     H216899   8.462   1.426   3.594
 5553WAT      O16900   0.928   8.740   7.116
 5553WAT     H116901   0.947   8.736   7.214
 5553WAT     H216902   1.009   8.716   7.064
 5554WAT      O16903   9.450   9.066   1.008
 5554WAT     H116904   9.399   9.109   0.933
 5554WAT     H216905   9.473   8.972   0.982
 5555WAT      O16906   8.853   0.139   5.649
 5555WAT     H116907   8.760   0.103   5.658
 5555WAT     H216908   8.875   0.195   5.729
 5556WAT      O16909   1.436   0.898   6.774
 5556WAT     H116910   1.533   0.881   6.756
 5556WAT     H216911   1.422   0.994   6.796
 5557WAT      O16912   9.435   8.332   6.717
 5557WAT     H116913   9.375   8.321   6.638
 5557WAT     H216914   9.414   8.418   6.764
 5558WAT      O16915   2.512   1.649   1.140
 5558WAT     H116916   2.523   1.727   1.201
 5558WAT     H216917   2.588   1.647   1.075
 5559WAT      O16918   7.515   7.875   7.990
 5559WAT     H116919   7.572   7.864   8.072
 5559WAT     H216920   7.438   7.935   8.011
 5560WAT      O16921   5.817   6.047   9.034
 5560WAT     H116922   5.787   5.971   9.092
 5560WAT     H216923   5.819   6.131   9.087
 5561WAT      O16924   7.219   9.820   0.819
 5561WAT     H116925   7.202   9.849   0.913
 5561WAT     H216926   7.269   9.891   0.770
 5562WAT      O16927   0.870   3.212   1.755
 5562WAT     H116928   0.864   3.307   1.725
 5562WAT     H216929   0.920   3.158   1.687
 5563WAT      O16930   5.402   8.021   5.339
 5563WAT     H116931   5.415   7.981   5.430
 5563WAT     H216932   5.314   8.067   5.334
 5564WAT      O16933   8.929   5.436   2.796
 5564WAT     H116934   8.936   5.428   2.697
 5564WAT     H216935   8.848   5.387   2.828
 5565WAT      O16936   4.266   3.661   5.959
 5565WAT     H116937   4.182   3.608   5.955
 5565WAT     H216938   4.313   3.657   5.871
 5566WAT      O16939   2.547   5.343   9.590
 5566WAT     H116940   2.492   5.349   9.506
 5566WAT     H216941   2.575   5.248   9.605
 5567WAT      O16942   4.731   1.949   2.922
 5567WAT     H116943   4.783   1.868   2.948
 5567WAT     H216944   4.769   1.987   2.838
 5568WAT      O16945   8.734   0.405   8.417
 5568WAT     H116946   8.791   0.323   8.407
 5568WAT     H216947   8.668   0.390   8.490
 5569WAT      O16948   8.269   6.590   8.792
 5569WAT     H116949   8.243   6.620   8.700
 5569WAT     H216950   8.220   6.646   8.860
 5570WAT      O16951   3.584   1.820   7.320
 5570WAT     H116952   3.638   1.814   7.404
 5570WAT     H216953   3.617   1.896   7.264
 5571WAT      O16954   9.101   7.816   3.147
 5571WAT     H116955   9.019   7.826   3.203
 5571WAT     H216956   9.143   7.906   3.134
 5572WAT      O16957   7.385   5.057   2.494
 5572WAT     H116958   7.289   5.071   2.468
 5572WAT     H216959   7.428   4.995   2.428
 5573WAT      O16960   8.404   3.707   4.231
 5573WAT     H116961   8.443   3.723   4.140
 5573WAT     H216962   8.447   3.626   4.271
 5574WAT      O16963   7.484   8.667   1.031
 5574WAT     H116964   7.577   8.652   0.998
 5574WAT     H216965   7.467   8.609   1.110
 5575WAT      O16966   9.677   3.011   6.712
 5575WAT     H116967   9.603   2.954   6.678
 5575WAT     H216968   9.650   3.054   6.798
 5576WAT      O16969   5.745   5.328   3.614
 5576WAT     H116970   5.827   5.334   3.671
 5576WAT     H216971   5.699   5.417   3.613
 5577WAT      O16972   9.750   4.910   4.635
 5577WAT     H116973   9.773   4.831   4.692
 5577WAT     H216974   9.681   4.965   4.682
 5578WAT      O16975   8.619   3.143   5.568
 5578WAT     H116976   8.557   3.068   5.594
 5578WAT     H216977   8.572   3.230   5.579
 5579WAT      O16978   3.920   9.107   4.811
 5579WAT     H116979   3.890   9.169   4.738
 5579WAT     H216980   4.011   9.073   4.789
 5580WAT      O16981   4.086   2.077   2.759
 5580WAT     H116982   4.123   1.992   2.721
 5580WAT     H216983   4.066   2.064   2.856
 5581WAT      O16984   9.281   0.395   1.961
 5581WAT     H116985   9.243   0.412   2.052
 5581WAT     H216986   9.344   0.470   1.937
 5582WAT      O16987   5.345   8.195   9.880
 5582WAT     H116988   5.249   8.173   9.894
 5582WAT     H216989   5.379   8.146   9.799
 5583WAT      O16990   6.454   3.878   0.939
 5583WAT     H116991   6.540   3.923   0.962
 5583WAT     H216992   6.452   3.860   0.840
 5584WAT      O16993   5.551   2.270   3.959
 5584WAT     H116994   5.620   2.229   4.019
 5584WAT     H216995   5.556   2.369   3.966
 5585WAT      O16996   0.668   3.968   8.743
 5585WAT     H116997   0.687   3.882   8.790
 5585WAT     H216998   0.584   3.959   8.690
 5586WAT      O16999   2.290   0.526   5.921
 5586WAT     H117000   2.238   0.441   5.915
 5586WAT     H217001   2.226   0.603   5.924
 5587WAT      O17002   7.793   8.462   3.871
 5587WAT     H117003   7.855   8.539   3.879
 5587WAT     H217004   7.804   8.401   3.950
 5588WAT      O17005   3.036   0.833   5.292
 5588WAT     H117006   3.103   0.906   5.275
 5588WAT     H217007   2.986   0.853   5.376
 5589WAT      O17008   9.831   5.850   0.485
 5589WAT     H117009   9.824   5.832   0.583
 5589WAT     H217010   9.830   5.949   0.469
 5590WAT      O17011   0.366   5.000   6.342
 5590WAT     H117012   0.425   5.012   6.422
 5590WAT     H217013   0.279   4.960   6.371
 5591WAT      O17014   1.154   5.883   1.554
 5591WAT     H117015   1.244   5.926   1.559
 5591WAT     H217016   1.084   5.947   1.588
 5592WAT      O17017   4.657   6.820   4.045
 5592WAT     H117018   4.692   6.893   3.987
 5592WAT     H217019   4.669   6.732   3.998
 5593WAT      O17020   4.913   0.786   3.826
 5593WAT     H117021   4.951   0.757   3.914
 5593WAT     H217022   4.830   0.839   3.842
 5594WAT      O17023   9.009   5.757   5.351
 5594WAT     H117024   9.103   5.758   5.316
 5594WAT     H217025   9.004   5.697   5.431
 5595WAT      O17026   4.617   0.565   4.698
 5595WAT     H117027   4.534   0.581   4.751
 5595WAT     H217028   4.605   0.602   4.605
 5596WAT      O17029   0.783   6.561   5.518
 5596WAT     H117030   0.683   6.565   5.506
 5596WAT     H217031   0.824   6.644   5.481
 5597WAT      O17032   5.901   7.791   9.137
 5597WAT     H117033   5.974   7.801   9.070
 5597WAT     H217034   5.881   7.880   9.178
 5598WAT      O17035   2.952   6.040   5.781
 5598WAT     H117036   3.032   6.099   5.771
 5598WAT     H217037   2.870   6.087   5.748
 5599WAT      O17038   9.139   8.673   4.498
 5599WAT     H117039   9.064   8.716   4.448
 5599WAT     H217040   9.143   8.710   4.591
 5600WAT      O17041   5.990   4.047   4.254
 5600WAT     H117042   6.001   3.948   4.254
 5600WAT     H217043   6.080   4.090   4.254
 5601WAT      O17044   1.911   0.146   3.671
 5601WAT     H117045   1.971   0.142   3.751
 5601WAT     H217046   1.899   0.241   3.642
 5602WAT      O17047   6.316   7.490   3.654
 5602WAT     H117048   6.401   7.470   3.604
 5602WAT     H217049   6.239   7.451   3.605
 5603WAT      O17050   5.902   2.872   4.060
 5603WAT     H117051   5.860   2.898   4.147
 5603WAT     H217052   5.969   2.941   4.033
 5604WAT      O17053   8.727   5.472   5.812
 5604WAT     H117054   8.763   5.391   5.859
 5604WAT     H217055   8.637   5.495   5.850
 5605WAT      O17056   2.205   8.244   4.020
 5605WAT     H117057   2.268   8.321   4.024
 5605WAT     H217058   2.137   8.253   4.092
 5606WAT      O17059   2.242   8.783   3.103
 5606WAT     H117060   2.159   8.739   3.067
 5606WAT     H217061   2.283   8.724   3.173
 5607WAT      O17062   0.990   9.205   4.598
 5607WAT     H117063   0.915   9.139   4.596
 5607WAT     H217064   1.043   9.198   4.513
 5608WAT      O17065   8.997   0.083   9.030
 5608WAT     H117066   9.004   0.052   8.935
 5608WAT     H217067   8.906   0.120   9.046
 5609WAT      O17068   3.654   3.916   3.733
 5609WAT     H117069   3.641   3.818   3.717
 5609WAT     H217070   3.707   3.956   3.658
 5610WAT      O17071   6.568   6.786   2.998
 5610WAT     H117072   6.604   6.877   2.979
 5610WAT     H217073   6.539   6.780   3.094
 5611WAT      O17074   9.809   1.016   0.457
 5611WAT     H117075   9.714   1.039   0.438
 5611WAT     H217076   9.821   1.002   0.555
 5612WAT      O17077   3.347   7.050   1.489
 5612WAT     H117078   3.288   6.970   1.478
 5612WAT     H217079   3.371   7.061   1.586
 5613WAT      O17080   6.114   3.342   9.463
 5613WAT     H117081   6.110   3.376   9.556
 5613WAT     H217082   6.043   3.273   9.449
 5614WAT      O17083   9.549   6.674   0.472
 5614WAT     H117084   9.636   6.640   0.510
 5614WAT     H217085   9.522   6.757   0.520
 5615WAT      O17086   8.736   8.467   6.864
 5615WAT     H117087   8.740   8.486   6.766
 5615WAT     H217088   8.752   8.370   6.880
 5616WAT      O17089   2.611   0.905   9.479
 5616WAT     H117090   2.531   0.870   9.431
 5616WAT     H217091   2.636   0.994   9.441
 5617WAT      O17092   1.442   6.644   2.461
 5617WAT     H117093   1.345   6.653   2.485
 5617WAT     H217094   1.480   6.734   2.441
 5618WAT      O17095   9.350   9.120   9.434
 5618WAT     H117096   9.360   9.133   9.533
 5618WAT     H217097   9.253   9.115   9.412
 5619WAT      O17098   0.403   0.048   6.148
 5619WAT     H117099   0.431   0.022   6.055
 5619WAT     H217100   0.446   0.136   6.172
 5620WAT      O17101   6.391   7.810   3.419
 5620WAT     H117102   6.361   7.823   3.514
 5620WAT     H217103   6.474   7.754   3.418
 5621WAT      O17104   1.983   4.254   7.405
 5621WAT     H117105   2.017   4.298   7.488
 5621WAT     H217106   2.019   4.302   7.324
 5622WAT      O17107   0.189   3.174   8.180
 5622WAT     H117108   0.272   3.118   8.176
 5622WAT     H217109   0.127   3.147   8.107
 5623WAT      O17110   5.402   6.075   2.984
 5623WAT     H117111   5.453   5.989   2.981
 5623WAT     H217112   5.369   6.098   2.893
 5624WAT      O17113   1.129   2.848   3.987
 5624WAT     H117114   1.067   2.783   3.942
 5624WAT     H217115   1.086   2.938   3.990
 5625WAT      O17116   6.484   5.154   2.734
 5625WAT     H117117   6.398   5.179   2.780
 5625WAT     H217118   6.505   5.221   2.663
 5626WAT      O17119   3.047   4.899   1.961
 5626WAT     H117120   3.111   4.824   1.979
 5626WAT     H217121   3.000   4.923   2.046
 5627WAT      O17122   7.022   5.792   8.032
 5627WAT     H117123   6.952   5.756   7.971
 5627WAT     H217124   7.111   5.786   7.988
 5628WAT      O17125   0.142   4.448   8.906
 5628WAT     H117126   0.066   4.383   8.901
 5628WAT     H217127   0.218   4.414   8.851
 5629WAT      O17128   1.308   8.298   6.531
 5629WAT     H117129   1.247   8.261   6.460
 5629WAT     H217130   1.264   8.289   6.620
 5630WAT      O17131   5.308   9.438   3.088
 5630WAT     H117132   5.269   9.514   3.140
 5630WAT     H217133   5.297   9.455   2.991
 5631WAT      O17134   0.150   8.476   2.433
 5631WAT     H117135   0.157   8.518   2.342
 5631WAT     H217136   0.196   8.534   2.500
 5632WAT      O17137   8.097   9.461   3.386
 5632WAT     H117138   8.027   9.469   3.316
 5632WAT     H217139   8.167   9.531   3.372
 5633WAT      O17140   2.738   1.438   7.917
 5633WAT     H117141   2.834   1.464   7.920
 5633WAT     H217142   2.722   1.381   7.836
 5634WAT      O17143   7.664   2.622   5.143
 5634WAT     H117144   7.602   2.591   5.070
 5634WAT     H217145   7.610   2.657   5.219
 5635WAT      O17146   4.877   6.687   9.121
 5635WAT     H117147   4.872   6.594   9.084
 5635WAT     H217148   4.971   6.706   9.150
 5636WAT      O17149   0.325   6.892   2.353
 5636WAT     H117150   0.269   6.915   2.432
 5636WAT     H217151   0.323   6.793   2.339
 5637WAT      O17152   0.611   9.145   5.001
 5637WAT     H117153   0.703   9.107   5.013
 5637WAT     H217154   0.608   9.198   4.916
 5638WAT      O17155   0.060   1.948   1.073
 5638WAT     H117156   0.103   2.019   1.130
 5638WAT     H217157   0.109   1.942   0.986
 5639WAT      O17158   8.031   9.115   3.359
 5639WAT     H117159   7.940   9.109   3.400
 5639WAT     H217160   8.092   9.049   3.402
 5640WAT      O17161   6.049   4.277   6.730
 5640WAT     H117162   6.036   4.346   6.658
 5640WAT     H217163   5.983   4.203   6.717
 5641WAT      O17164   2.312   4.621   7.074
 5641WAT     H117165   2.318   4.562   7.155
 5641WAT     H217166   2.404   4.640   7.040
 5642WAT      O17167   3.507   0.272   6.544
 5642WAT     H117168   3.438   0.337   6.512
 5642WAT     H217169   3.525   0.288   6.641
 5643WAT      O17170   1.311   3.908   7.323
 5643WAT     H117171   1.306   3.838   7.251
 5643WAT     H217172   1.385   3.885   7.387
 5644WAT      O17173   4.149   2.344   7.787
 5644WAT     H117174   4.130   2.347   7.885
 5644WAT     H217175   4.077   2.393   7.738
 5645WAT      O17176   3.770   6.000   2.147
 5645WAT     H117177   3.847   5.936   2.145
 5645WAT     H217178   3.787   6.069   2.218
 5646WAT      O17179   3.816   1.084   0.210
 5646WAT     H117180   3.730   1.038   0.186
 5646WAT     H217181   3.836   1.070   0.307
 5647WAT      O17182   3.961   0.480   6.186
 5647WAT     H117183   3.961   0.550   6.115
 5647WAT     H217184   3.870   0.474   6.227
 5648WAT      O17185   2.141   3.187   3.387
 5648WAT     H117186   2.140   3.220   3.481
 5648WAT     H217187   2.096   3.253   3.328
 5649WAT      O17188   6.016   9.139   0.523
 5649WAT     H117189   5.982   9.226   0.486
 5649WAT     H217190   5.977   9.124   0.614
 5650WAT      O17191   6.787   9.244   1.423
 5650WAT     H117192   6.797   9.317   1.491
 5650WAT     H217193   6.724   9.174   1.459
 5651WAT      O17194   6.303   8.410   0.921
 5651WAT     H117195   6.210   8.386   0.892
 5651WAT     H217196   6.308   8.508   0.939
 5652WAT      O17197   4.744   5.549   1.466
 5652WAT     H117198   4.780   5.547   1.372
 5652WAT     H217199   4.742   5.644   1.498
 5653WAT      O17200   8.785   9.792   2.835
 5653WAT     H117201   8.721   9.757   2.904
 5653WAT     H217202   8.860   9.841   2.880
 5654WAT      O17203   0.639   8.678   8.018
 5654WAT     H117204   0.649   8.760   7.962
 5654WAT     H217205   0.726   8.655   8.060
 5655WAT      O17206   2.879   1.776   2.857
 5655WAT     H117207   2.871   1.831   2.940
 5655WAT     H217208   2.955   1.810   2.802
 5656WAT      O17209   5.541   0.098   0.341
 5656WAT     H117210   5.478   0.157   0.290
 5656WAT     H217211   5.507   0.086   0.434
 5657WAT      O17212   3.749   2.963   1.923
 5657WAT     H117213   3.712   3.003   1.839
 5657WAT     H217214   3.841   2.997   1.938
 5658WAT      O17215   7.879   5.007   9.379
 5658WAT     H117216   7.839   5.097   9.361
 5658WAT     H217217   7.815   4.936   9.349
 5659WAT      O17218   6.854   5.063   9.749
 5659WAT     H117219   6.810   5.048   9.660
 5659WAT     H217220   6.786   5.053   9.822
 5660WAT      O17221   8.192   2.169   0.956
 5660WAT     H117222   8.142   2.256   0.956
 5660WAT     H217223   8.143   2.103   1.013
 5661WAT      O17224   6.605   3.594   5.336
 5661WAT     H117225   6.506   3.587   5.332
 5661WAT     H217226   6.646   3.521   5.280
 5662WAT      O17227   6.599   8.923   0.069
 5662WAT     H117228   6.678   8.973   0.105
 5662WAT     H217229   6.515   8.969   0.097
 5663WAT      O17230   4.760   1.475   8.114
 5663WAT     H117231   4.740   1.456   8.210
 5663WAT     H217232   4.680   1.520   8.072
 5664WAT      O17233   7.985   1.234   8.432
 5664WAT     H117234   7.992   1.221   8.530
 5664WAT     H217235   8.068   1.199   8.387
 5665WAT      O17236   6.783   2.318   1.928
 5665WAT     H117237   6.813   2.364   2.012
 5665WAT     H217238   6.807   2.222   1.933
 5666WAT      O17239   7.826   7.520   1.189
 5666WAT     H117240   7.774   7.501   1.106
 5666WAT     H217241   7.765   7.520   1.268
 5667WAT      O17242   4.649   4.738   8.481
 5667WAT     H117243   4.638   4.700   8.389
 5667WAT     H217244   4.677   4.665   8.543
 5668WAT      O17245   9.114   6.530   4.273
 5668WAT     H117246   9.169   6.462   4.225
 5668WAT     H217247   9.143   6.621   4.245
 5669WAT      O17248   8.696   0.213   4.635
 5669WAT     H117249   8.651   0.125   4.621
 5669WAT     H217250   8.634   0.286   4.609
 5670WAT      O17251   2.123   3.664   7.956
 5670WAT     H117252   2.098   3.592   8.020
 5670WAT     H217253   2.089   3.752   7.989
 5671WAT      O17254   9.527   1.073   6.972
 5671WAT     H117255   9.561   1.059   7.066
 5671WAT     H217256   9.431   1.045   6.967
 5672WAT      O17257   4.101   5.133   1.907
 5672WAT     H117258   4.125   5.057   1.846
 5672WAT     H217259   4.023   5.183   1.869
 5673WAT      O17260   1.742   1.341   8.225
 5673WAT     H117261   1.669   1.285   8.187
 5673WAT     H217262   1.710   1.386   8.308
 5674WAT      O17263   7.084   2.860   6.237
 5674WAT     H117264   7.179   2.834   6.257
 5674WAT     H217265   7.064   2.948   6.280
 5675WAT      O17266   9.514   2.700   6.997
 5675WAT     H117267   9.460   2.658   7.070
 5675WAT     H217268   9.585   2.759   7.037
 5676WAT      O17269   4.740   9.251   9.337
 5676WAT     H117270   4.691   9.335   9.313
 5676WAT     H217271   4.800   9.270   9.415
 5677WAT      O17272   9.849   7.320   5.309
 5677WAT     H117273   9.775   7.338   5.374
 5677WAT     H217274   9.874   7.404   5.262
 5678WAT      O17275   2.146   0.090   6.818
 5678WAT     H117276   2.124   0.183   6.849
 5678WAT     H217277   2.132   0.085   6.719
 5679WAT      O17278   8.987   3.998   5.408
 5679WAT     H117279   8.905   4.054   5.419
 5679WAT     H217280   9.055   4.049   5.355
 5680WAT      O17281   4.091   5.469   1.902
 5680WAT     H117282   4.085   5.453   2.000
 5680WAT     H217283   4.032   5.404   1.854
 5681WAT      O17284   4.905   8.352   5.924
 5681WAT     H117285   4.858   8.438   5.905
 5681WAT     H217286   4.984   8.343   5.863
 5682WAT      O17287   5.142   4.725   8.041
 5682WAT     H117288   5.231   4.714   8.086
 5682WAT     H217289   5.132   4.820   8.010
 5683WAT      O17290   9.827   5.972   4.039
 5683WAT     H117291   9.779   6.029   3.973
 5683WAT     H217292   9.909   5.933   3.997
 5684WAT      O17293   7.481   6.388   3.932
 5684WAT     H117294   7.579   6.404   3.943
 5684WAT     H217295   7.444   6.454   3.867
 5685WAT      O17296   7.727   8.846   8.388
 5685WAT     H117297   7.784   8.916   8.429
 5685WAT     H217298   7.780   8.794   8.322
 5686WAT      O17299   2.648   4.904   2.636
 5686WAT     H117300   2.639   4.896   2.537
 5686WAT     H217301   2.560   4.881   2.679
 5687WAT      O17302   2.863   6.996   7.151
 5687WAT     H117303   2.777   6.945   7.161
 5687WAT     H217304   2.849   7.090   7.183
 5688WAT      O17305   8.865   0.152   8.419
 5688WAT     H117306   8.867   0.101   8.333
 5688WAT     H217307   8.957   0.154   8.459
 5689WAT      O17308   5.816   8.304   6.809
 5689WAT     H117309   5.774   8.364   6.877
 5689WAT     H217310   5.868   8.232   6.856
 5690WAT      O17311   9.005   7.746   8.332
 5690WAT     H117312   8.952   7.813   8.279
 5690WAT     H217313   9.089   7.788   8.364
 5691WAT      O17314   1.734   4.513   5.092
 5691WAT     H117315   1.739   4.577   5.169
 5691WAT     H217316   1.804   4.442   5.104
 5692WAT      O17317   0.246   3.637   0.974
 5692WAT     H117318   0.294   3.560   1.016
 5692WAT     H217319   0.308   3.683   0.910
 5693WAT      O17320   7.566   4.028   9.370
 5693WAT     H117321   7.545   4.090   9.294
 5693WAT     H217322   7.662   3.998   9.363
 5694WAT      O17323   6.462   5.076   0.389
 5694WAT     H117324   6.459   5.143   0.463
 5694WAT     H217325   6.556   5.064   0.359
 5695WAT      O17326   1.145   3.101   9.835
 5695WAT     H117327   1.049   3.114   9.808
 5695WAT     H217328   1.165   3.157   9.915
 5696WAT      O17329   3.022   9.628   5.051
 5696WAT     H117330   2.964   9.700   5.089
 5696WAT     H217331   2.972   9.579   4.980
 5697WAT      O17332   3.531   6.765   4.572
 5697WAT     H117333   3.456   6.729   4.517
 5697WAT     H217334   3.518   6.738   4.668
 5698WAT      O17335   6.175   4.535   0.154
 5698WAT     H117336   6.268   4.544   0.120
 5698WAT     H217337   6.160   4.599   0.229
 5699WAT      O17338   9.697   9.758   2.742
 5699WAT     H117339   9.626   9.768   2.811
 5699WAT     H217340   9.745   9.672   2.756
 5700WAT      O17341   6.051   5.843   1.492
 5700WAT     H117342   6.110   5.837   1.572
 5700WAT     H217343   6.005   5.931   1.491
 5701WAT      O17344   3.811   0.525   4.743
 5701WAT     H117345   3.768   0.606   4.704
 5701WAT     H217346   3.910   0.533   4.736
 5702WAT      O17347   1.378   8.715   9.381
 5702WAT     H117348   1.368   8.703   9.480
 5702WAT     H217349   1.386   8.812   9.360
 5703WAT      O17350   4.275   2.526   7.457
 5703WAT     H117351   4.369   2.552   7.478
 5703WAT     H217352   4.212   2.585   7.508
 5704WAT      O17353   5.885   8.192   0.583
 5704WAT     H117354   5.816   8.255   0.619
 5704WAT     H217355   5.940   8.239   0.514
 5705WAT      O17356   8.337   1.600   8.015
 5705WAT     H117357   8.388   1.669   7.962
 5705WAT     H217358   8.242   1.598   7.984
 5706WAT      O17359   5.711   0.325   1.407
 5706WAT     H117360   5.628   0.359   1.450
 5706WAT     H217361   5.690   0.242   1.355
 5707WAT      O17362   4.889   5.088   9.461
 5707WAT     H117363   4.874   5.065   9.557
 5707WAT     H217364   4.985   5.070   9.437
 5708WAT      O17365   7.130   1.554   2.130
 5708WAT     H117366   7.193   1.569   2.053
 5708WAT     H217367   7.037   1.579   2.102
 5709WAT      O17368   6.611   3.106   0.261
 5709WAT     H117369   6.538   3.088   0.328
 5709WAT     H217370   6.689   3.047   0.281
 5710WAT      O17371   2.341   0.230   1.025
 5710WAT     H117372   2.295   0.267   0.944
 5710WAT     H217373   2.434   0.266   1.029
 5711WAT      O17374   4.404   5.152   1.358
 5711WAT     H117375   4.334   5.203   1.309
 5711WAT     H217376   4.471   5.215   1.396
 5712WAT      O17377   4.045   6.276   2.237
 5712WAT     H117378   4.084   6.317   2.154
 5712WAT     H217379   4.004   6.348   2.293
 5713WAT      O17380   6.064   1.276   6.342
 5713WAT     H117381   6.042   1.198   6.400
 5713WAT     H217382   5.987   1.296   6.282
 5714WAT      O17383   0.080   6.099   4.948
 5714WAT     H117384   0.174   6.097   4.982
 5714WAT     H217385   0.043   6.007   4.947
 5715WAT      O17386   4.327   1.927   3.796
 5715WAT     H117387   4.313   2.015   3.751
 5715WAT     H217388   4.283   1.927   3.886
 5716WAT      O17389   9.078   3.878   1.670
 5716WAT     H117390   9.138   3.885   1.591
 5716WAT     H217391   9.109   3.805   1.730
 5717WAT      O17392   9.363   8.838   0.556
 5717WAT     H117393   9.459   8.835   0.583
 5717WAT     H217394   9.355   8.881   0.466
 5718WAT      O17395   1.704   3.295   8.749
 5718WAT     H117396   1.735   3.284   8.843
 5718WAT     H217397   1.606   3.316   8.749
 5719WAT      O17398   5.470   7.791   0.785
 5719WAT     H117399   5.520   7.835   0.711
 5719WAT     H217400   5.383   7.755   0.750
 5720WAT      O17401   1.630   2.885   2.505
 5720WAT     H117402   1.559   2.825   2.466
 5720WAT     H217403   1.597   2.979   2.508
 5721WAT      O17404   0.617   9.258   4.528
 5721WAT     H117405   0.617   9.262   4.628
 5721WAT     H217406   0.522   9.256   4.495
 5722WAT      O17407   7.676   2.809   9.575
 5722WAT     H117408   7.694   2.907   9.568
 5722WAT     H217409   7.760   2.762   9.601
 5723WAT      O17410   2.789   6.429   8.500
 5723WAT     H117411   2.829   6.414   8.410
 5723WAT     H217412   2.719   6.500   8.494
 5724WAT      O17413   3.639   7.071   6.574
 5724WAT     H117414   3.645   7.171   6.569
 5724WAT     H217415   3.586   7.044   6.654
 5725WAT      O17416   0.933   7.364   1.218
 5725WAT     H117417   0.856   7.308   1.247
 5725WAT     H217418   0.923   7.457   1.253
 5726WAT      O17419   7.952   9.087   4.097
 5726WAT     H117420   7.942   9.159   4.166
 5726WAT     H217421   8.036   9.103   4.045
 5727WAT      O17422   1.680   0.951   1.304
 5727WAT     H117423   1.625   0.960   1.387
 5727WAT     H217424   1.640   0.880   1.245
 5728WAT      O17425   9.768   4.402   9.697
 5728WAT     H117426   9.749   4.484   9.643
 5728WAT     H217427   9.855   4.362   9.668
 5729WAT      O17428   0.317   0.391   5.751
 5729WAT     H117429   0.410   0.359   5.769
 5729WAT     H217430   0.254   0.352   5.818
 5730WAT      O17431   8.885   2.235   5.609
 5730WAT     H117432   8.905   2.329   5.580
 5730WAT     H217433   8.911   2.172   5.535
 5731WAT      O17434   2.104   2.843   3.702
 5731WAT     H117435   2.093   2.884   3.611
 5731WAT     H217436   2.198   2.853   3.732
 5732WAT      O17437   5.530   1.847   1.417
 5732WAT     H117438   5.467   1.786   1.370
 5732WAT     H217439   5.532   1.824   1.515
 5733WAT      O17440   1.769   9.439   7.231
 5733WAT     H117441   1.819   9.352   7.238
 5733WAT     H217442   1.723   9.458   7.318
 5734WAT      O17443   4.244   5.399   8.696
 5734WAT     H117444   4.185   5.330   8.655
 5734WAT     H217445   4.336   5.391   8.659
 5735WAT      O17446   8.403   1.355   2.050
 5735WAT     H117447   8.328   1.414   2.019
 5735WAT     H217448   8.405   1.355   2.150
 5736WAT      O17449   8.690   5.931   3.021
 5736WAT     H117450   8.604   5.950   2.974
 5736WAT     H217451   8.732   5.850   2.982
 5737WAT      O17452   3.840   3.760   2.182
 5737WAT     H117453   3.919   3.779   2.240
 5737WAT     H217454   3.757   3.795   2.225
 5738WAT      O17455   8.786   9.598   3.741
 5738WAT     H117456   8.835   9.678   3.775
 5738WAT     H217457   8.727   9.561   3.813
 5739WAT      O17458   6.082   3.790   4.251
 5739WAT     H117459   6.027   3.773   4.333
 5739WAT     H217460   6.166   3.736   4.255
 5740WAT      O17461   7.262   4.583   2.301
 5740WAT     H117462   7.272   4.620   2.209
 5740WAT     H217463   7.221   4.652   2.360
 5741WAT      O17464   1.897   7.675   3.993
 5741WAT     H117465   1.819   7.634   3.946
 5741WAT     H217466   1.944   7.739   3.932
 5742WAT      O17467   4.986   5.562   3.075
 5742WAT     H117468   4.892   5.528   3.065
 5742WAT     H217469   5.049   5.484   3.071
 5743WAT      O17470   2.463   4.743   4.388
 5743WAT     H117471   2.396   4.797   4.438
 5743WAT     H217472   2.540   4.721   4.449
 5744WAT      O17473   3.259   9.040   7.384
 5744WAT     H117474   3.255   8.940   7.381
 5744WAT     H217475   3.207   9.078   7.307
 5745WAT      O17476   0.928   7.438   4.674
 5745WAT     H117477   0.867   7.391   4.610
 5745WAT     H217478   0.930   7.535   4.652
 5746WAT      O17479   6.718   4.635   2.742
 5746WAT     H117480   6.622   4.641   2.713
 5746WAT     H217481   6.758   4.551   2.706
 5747WAT      O17482   7.141   7.770   8.154
 5747WAT     H117483   7.184   7.791   8.242
 5747WAT     H217484   7.156   7.846   8.090
 5748WAT      O17485   4.427   8.971   7.810
 5748WAT     H117486   4.452   8.940   7.902
 5748WAT     H217487   4.500   8.948   7.746
 5749WAT      O17488   7.446   9.409   5.678
 5749WAT     H117489   7.466   9.450   5.767
 5749WAT     H217490   7.487   9.318   5.674
 5750WAT      O17491   1.261   0.046   0.833
 5750WAT     H117492   1.167   0.012   0.836
 5750WAT     H217493   1.323  -0.030   0.814
 5751WAT      O17494   0.498   0.747   1.671
 5751WAT     H117495   0.560   0.768   1.596
 5751WAT     H217496   0.404   0.763   1.642
 5752WAT      O17497   1.435   8.570   3.916
 5752WAT     H117498   1.404   8.496   3.975
 5752WAT     H217499   1.535   8.570   3.912
 5753WAT      O17500   8.155   4.468   5.924
 5753WAT     H117501   8.231   4.404   5.911
 5753WAT     H217502   8.172   4.525   6.004
 5754WAT      O17503   4.242   5.027   1.056
 5754WAT     H117504   4.303   5.058   0.984
 5754WAT     H217505   4.149   5.057   1.036
 5755WAT      O17506   1.777   7.845   8.566
 5755WAT     H117507   1.848   7.789   8.609
 5755WAT     H217508   1.757   7.810   8.475
 5756WAT      O17509   3.779   5.746   9.486
 5756WAT     H117510   3.721   5.695   9.550
 5756WAT     H217511   3.742   5.838   9.474
 5757WAT      O17512   2.382   5.598   3.163
 5757WAT     H117513   2.373   5.679   3.221
 5757WAT     H217514   2.332   5.614   3.077
 5758WAT      O17515   0.641   2.326   5.044
 5758WAT     H117516   0.596   2.402   4.998
 5758WAT     H217517   0.581   2.290   5.116
 5759WAT      O17518   4.453   2.361   4.162
 5759WAT     H117519   4.484   2.307   4.240
 5759WAT     H217520   4.367   2.322   4.127
 5760WAT      O17521   3.365   8.290   2.429
 5760WAT     H117522   3.365   8.349   2.510
 5760WAT     H217523   3.346   8.196   2.457
 5761WAT      O17524   0.308   4.377   8.564
 5761WAT     H117525   0.359   4.340   8.641
 5761WAT     H217526   0.260   4.460   8.592
 5762WAT      O17527   2.618   5.879   3.117
 5762WAT     H117528   2.583   5.786   3.127
 5762WAT     H217529   2.657   5.910   3.204
 5763WAT      O17530   6.511   1.948   5.400
 5763WAT     H117531   6.516   2.040   5.360
 5763WAT     H217532   6.490   1.882   5.328
 5764WAT      O17533   8.818   0.115   4.183
 5764WAT     H117534   8.736   0.081   4.228
 5764WAT     H217535   8.898   0.070   4.222
 5765WAT      O17536   8.310   4.918   0.326
 5765WAT     H117537   8.246   4.991   0.348
 5765WAT     H217538   8.279   4.870   0.244
 5766WAT      O17539   6.050   2.674   6.702
 5766WAT     H117540   6.086   2.598   6.647
 5766WAT     H217541   5.978   2.640   6.762
 5767WAT      O17542   9.840   6.317   1.105
 5767WAT     H117543   9.745   6.288   1.097
 5767WAT     H217544   9.899   6.255   1.053
 5768WAT      O17545   8.376   7.955   4.448
 5768WAT     H117546   8.394   7.863   4.482
 5768WAT     H217547   8.302   7.997   4.501
 5769WAT      O17548   4.377   6.808   6.896
 5769WAT     H117549   4.307   6.856   6.949
 5769WAT     H217550   4.356   6.815   6.798
 5770WAT      O17551   0.831   6.643   1.604
 5770WAT     H117552   0.806   6.736   1.629
 5770WAT     H217553   0.757   6.601   1.552
 5771WAT      O17554   5.946   0.202   2.808
 5771WAT     H117555   5.877   0.260   2.766
 5771WAT     H217556   6.009   0.169   2.738
 5772WAT      O17557   2.195   6.475   0.627
 5772WAT     H117558   2.260   6.408   0.664
 5772WAT     H217559   2.212   6.487   0.529
 5773WAT      O17560   4.248   3.701   9.170
 5773WAT     H117561   4.331   3.737   9.212
 5773WAT     H217562   4.182   3.677   9.241
 5774WAT      O17563   4.899   0.068   3.100
 5774WAT     H117564   4.828   0.072   3.170
 5774WAT     H217565   4.972   0.007   3.129
 5775WAT      O17566   4.914   5.058   1.917
 5775WAT     H117567   4.852   5.131   1.946
 5775WAT     H217568   4.864   4.992   1.861
 5776WAT      O17569   0.918   8.775   1.420
 5776WAT     H117570   0.950   8.865   1.449
 5776WAT     H217571   0.996   8.721   1.388
 5777WAT      O17572   3.093   4.667   4.915
 5777WAT     H117573   3.026   4.662   4.988
 5777WAT     H217574   3.109   4.575   4.878
 5778WAT      O17575   0.100   0.037   3.469
 5778WAT     H117576   0.101  -0.062   3.456
 5778WAT     H217577   0.193   0.072   3.466
 5779WAT      O17578   0.962   2.798   1.389
 5779WAT     H117579   0.891   2.859   1.353
 5779WAT     H217580   0.919   2.721   1.435
 5780WAT      O17581   4.400   7.117   1.752
 5780WAT     H117582   4.405   7.031   1.701
 5780WAT     H217583   4.480   7.173   1.730
 5781WAT      O17584   6.176   3.406   2.540
 5781WAT     H117585   6.207   3.497   2.564
 5781WAT     H217586   6.081   3.393   2.570
 5782WAT      O17587   6.248   2.363   7.794
 5782WAT     H117588   6.337   2.324   7.770
 5782WAT     H217589   6.225   2.436   7.730
 5783WAT      O17590   9.127   9.769   5.117
 5783WAT     H117591   9.226   9.755   5.124
 5783WAT     H217592   9.086   9.692   5.069
 5784WAT      O17593   6.583   7.772   7.079
 5784WAT     H117594   6.628   7.775   7.168
 5784WAT     H217595   6.486   7.753   7.091
 5785WAT      O17596   7.747   5.731   8.058
 5785WAT     H117597   7.676   5.786   8.103
 5785WAT     H217598   7.818   5.707   8.125
 5786WAT      O17599   9.158   0.626   2.138
 5786WAT     H117600   9.172   0.724   2.146
 5786WAT     H217601   9.112   0.592   2.220
 5787WAT      O17602   8.127   2.137   4.412
 5787WAT     H117603   8.071   2.158   4.492
 5787WAT     H217604   8.208   2.195   4.411
 5788WAT      O17605   0.071   6.933   2.902
 5788WAT     H117606   0.169   6.918   2.915
 5788WAT     H217607   0.047   6.917   2.806
 5789WAT      O17608   8.918   1.919   7.258
 5789WAT     H117609   8.858   1.849   7.297
 5789WAT     H217610   8.987   1.945   7.326
 5790WAT      O17611   8.944   2.915   6.214
 5790WAT     H117612   8.852   2.930   6.251
 5790WAT     H217613   8.970   2.994   6.157
 5791WAT      O17614   3.280   7.280   4.275
 5791WAT     H117615   3.229   7.195   4.264
 5791WAT     H217616   3.357   7.265   4.338
 5792WAT      O17617   3.400   1.510   6.504
 5792WAT     H117618   3.453   1.588   6.534
 5792WAT     H217619   3.434   1.478   6.415
 5793WAT      O17620   0.489   2.175   0.697
 5793WAT     H117621   0.486   2.193   0.599
 5793WAT     H217622   0.425   2.236   0.744
 5794WAT      O17623   6.428   9.243   1.650
 5794WAT     H117624   6.420   9.298   1.733
 5794WAT     H217625   6.339   9.203   1.629
 5795WAT      O17626   0.267   0.782   1.588
 5795WAT     H117627   0.198   0.727   1.636
 5795WAT     H217628   0.278   0.747   1.495
 5796WAT      O17629   6.350   6.183   4.765
 5796WAT     H117630   6.409   6.123   4.820
 5796WAT     H217631   6.318   6.133   4.685
 5797WAT      O17632   0.176   0.235   6.127
 5797WAT     H117633   0.220   0.325   6.124
 5797WAT     H217634   0.246   0.164   6.115
 5798WAT      O17635   7.314   6.241   3.610
 5798WAT     H117636   7.332   6.277   3.518
 5798WAT     H217637   7.257   6.159   3.602
 5799WAT      O17638   1.088   7.021   0.322
 5799WAT     H117639   1.180   7.055   0.339
 5799WAT     H217640   1.032   7.032   0.404
 5800WAT      O17641   6.081   3.829   8.496
 5800WAT     H117642   6.094   3.736   8.462
 5800WAT     H217643   6.026   3.882   8.431
 5801WAT      O17644   0.770   4.232   4.813
 5801WAT     H117645   0.728   4.323   4.821
 5801WAT     H217646   0.810   4.222   4.722
 5802WAT      O17647   6.502   9.328   3.256
 5802WAT     H117648   6.534   9.416   3.219
 5802WAT     H217649   6.580   9.277   3.293
 5803WAT      O17650   0.650   1.693   7.028
 5803WAT     H117651   0.641   1.760   6.955
 5803WAT     H217652   0.742   1.653   7.026
 5804WAT      O17653   3.044   1.115   6.271
 5804WAT     H117654   3.000   1.061   6.198
 5804WAT     H217655   3.001   1.092   6.358
 5805WAT      O17656   5.697   6.930   0.267
 5805WAT     H117657   5.636   6.881   0.329
 5805WAT     H217658   5.781   6.877   0.254
 5806WAT      O17659   7.963   4.228   6.669
 5806WAT     H117660   7.931   4.314   6.709
 5806WAT     H217661   8.046   4.245   6.615
 5807WAT      O17662   2.661   5.457   7.860
 5807WAT     H117663   2.721   5.527   7.899
 5807WAT     H217664   2.653   5.472   7.761
 5808WAT      O17665   3.764   4.964   9.067
 5808WAT     H117666   3.694   4.987   8.999
 5808WAT     H217667   3.806   4.877   9.043
 5809WAT      O17668   5.041   8.056   0.968
 5809WAT     H117669   4.957   8.038   0.916
 5809WAT     H217670   5.119   8.014   0.920
 5810WAT      O17671   6.828   1.429   0.413
 5810WAT     H117672   6.857   1.333   0.403
 5810WAT     H217673   6.840   1.457   0.508
 5811WAT      O17674   8.383   8.042   1.297
 5811WAT     H117675   8.318   8.117   1.291
 5811WAT     H217676   8.386   7.993   1.210
 5812WAT      O17677   0.501   9.516   5.105
 5812WAT     H117678   0.534   9.595   5.156
 5812WAT     H217679   0.517   9.432   5.158
 5813WAT      O17680   1.966   5.396   9.808
 5813WAT     H117681   1.969   5.340   9.891
 5813WAT     H217682   2.037   5.466   9.813
 5814WAT      O17683   3.556   7.316   5.932
 5814WAT     H117684   3.651   7.346   5.927
 5814WAT     H217685   3.495   7.393   5.914
 5815WAT      O17686   5.825   2.265   7.566
 5815WAT     H117687   5.789   2.251   7.474
 5815WAT     H217688   5.893   2.338   7.564
 5816WAT      O17689   1.763   2.035   6.344
 5816WAT     H117690   1.674   2.073   6.322
 5816WAT     H217691   1.752   1.941   6.376
 5817WAT      O17692   0.307   8.401   8.936
 5817WAT     H117693   0.218   8.395   8.981
 5817WAT     H217694   0.343   8.494   8.944
 5818WAT      O17695   2.619   1.595   1.416
 5818WAT     H117696   2.693   1.648   1.375
 5818WAT     H217697   2.602   1.513   1.362
 5819WAT      O17698   1.293   6.786   3.487
 5819WAT     H117699   1.221   6.747   3.429
 5819WAT     H217700   1.355   6.713   3.517
 5820WAT      O17701   4.647   4.165   1.880
 5820WAT     H117702   4.645   4.187   1.977
 5820WAT     H217703   4.631   4.248   1.826
 5821WAT      O17704   2.508   6.804   8.295
 5821WAT     H117705   2.545   6.752   8.217
 5821WAT     H217706   2.408   6.809   8.287
 5822WAT      O17707   9.423   1.467   2.556
 5822WAT     H117708   9.444   1.457   2.653
 5822WAT     H217709   9.507   1.466   2.502
 5823WAT      O17710   3.699   6.025   7.550
 5823WAT     H117711   3.732   5.972   7.628
 5823WAT     H217712   3.663   6.113   7.583
 5824WAT      O17713   0.278   7.609   7.228
 5824WAT     H117714   0.255   7.539   7.295
 5824WAT     H217715   0.200   7.670   7.215
 5825WAT      O17716   6.813   6.253   0.528
 5825WAT     H117717   6.846   6.178   0.586
 5825WAT     H217718   6.891   6.302   0.490
 5826WAT      O17719   2.476   8.737   2.963
 5826WAT     H117720   2.464   8.641   2.940
 5826WAT     H217721   2.388   8.777   2.988
 5827WAT      O17722   7.999   8.701   3.859
 5827WAT     H117723   7.967   8.745   3.776
 5827WAT     H217724   8.085   8.652   3.840
 5828WAT      O17725   0.414   2.108   6.030
 5828WAT     H117726   0.447   2.197   6.000
 5828WAT     H217727   0.462   2.081   6.114
 5829WAT      O17728   1.601   1.064   1.971
 5829WAT     H117729   1.579   1.161   1.956
 5829WAT     H217730   1.557   1.033   2.055
 5830WAT      O17731   4.308   9.765   8.531
 5830WAT     H117732   4.328   9.863   8.530
 5830WAT     H217733   4.299   9.732   8.436
 5831WAT      O17734   8.068   0.350   5.429
 5831WAT     H117735   8.055   0.388   5.338
 5831WAT     H217736   7.980   0.320   5.466
 5832WAT      O17737   9.461   0.136   0.012
 5832WAT     H117738   9.558   0.148  -0.006
 5832WAT     H217739   9.421   0.076  -0.056
 5833WAT      O17740   2.902   2.951   4.926
 5833WAT     H117741   2.830   2.934   4.993
 5833WAT     H217742   2.916   2.870   4.870
 5834WAT      O17743   0.566   6.476   4.603
 5834WAT     H117744   0.468   6.481   4.618
 5834WAT     H217745   0.587   6.402   4.539
 5835WAT      O17746   9.429   1.391   6.150
 5835WAT     H117747   9.528   1.400   6.155
 5835WAT     H217748   9.403   1.295   6.166
 5836WAT      O17749   2.715   1.090   0.350
 5836WAT     H117750   2.713   0.995   0.382
 5836WAT     H217751   2.790   1.139   0.396
 5837WAT      O17752   6.031   6.609   1.914
 5837WAT     H117753   5.977   6.527   1.932
 5837WAT     H217754   6.043   6.660   1.999
 5838WAT      O17755   7.810   2.741   7.778
 5838WAT     H117756   7.835   2.831   7.743
 5838WAT     H217757   7.713   2.740   7.802
 5839WAT      O17758   9.115   8.425   5.081
 5839WAT     H117759   9.016   8.427   5.066
 5839WAT     H217760   9.139   8.489   5.154
 5840WAT      O17761   5.073   0.515   2.934
 5840WAT     H117762   5.127   0.567   3.001
 5840WAT     H217763   4.999   0.467   2.982
 5841WAT      O17764   3.139   7.088   7.293
 5841WAT     H117765   3.108   7.128   7.207
 5841WAT     H217766   3.213   7.144   7.332
 5842WAT      O17767   1.810   0.250   7.722
 5842WAT     H117768   1.810   0.290   7.814
 5842WAT     H217769   1.897   0.270   7.677
 5843WAT      O17770   4.049   5.372   1.472
 5843WAT     H117771   4.136   5.362   1.518
 5843WAT     H217772   4.017   5.282   1.440
 5844WAT      O17773   7.761   3.326   7.252
 5844WAT     H117774   7.761   3.394   7.326
 5844WAT     H217775   7.853   3.287   7.243
 5845WAT      O17776   4.447   1.273   8.493
 5845WAT     H117777   4.451   1.265   8.592
 5845WAT     H217778   4.419   1.186   8.453
 5846WAT      O17779   1.943   5.302   6.244
 5846WAT     H117780   1.985   5.367   6.307
 5846WAT     H217781   1.996   5.217   6.243
 5847WAT      O17782   9.662   0.455   3.162
 5847WAT     H117783   9.661   0.401   3.078
 5847WAT     H217784   9.688   0.396   3.238
 5848WAT      O17785   3.954   7.426   2.289
 5848WAT     H117786   3.862   7.420   2.251
 5848WAT     H217787   3.959   7.372   2.373
 5849WAT      O17788   7.335   5.294   5.187
 5849WAT     H117789   7.409   5.361   5.186
 5849WAT     H217790   7.254   5.333   5.143
 5850WAT      O17791   4.237   4.958   1.453
 5850WAT     H117792   4.300   5.034   1.436
 5850WAT     H217793   4.205   4.962   1.547
 5851WAT      O17794   5.599   2.969   7.570
 5851WAT     H117795   5.675   2.904   7.570
 5851WAT     H217796   5.519   2.926   7.526
 5852WAT      O17797   5.346   8.601   1.029
 5852WAT     H117798   5.350   8.553   1.116
 5852WAT     H217799   5.425   8.575   0.973
 5853WAT      O17800   5.178   0.489   8.243
 5853WAT     H117801   5.248   0.441   8.192
 5853WAT     H217802   5.087   0.460   8.211
 5854WAT      O17803   3.940   1.191   3.695
 5854WAT     H117804   3.936   1.103   3.647
 5854WAT     H217805   3.890   1.259   3.642
 5855WAT      O17806   1.216   2.434   0.311
 5855WAT     H117807   1.257   2.523   0.329
 5855WAT     H217808   1.117   2.444   0.299
 5856WAT      O17809   6.777   3.118   1.889
 5856WAT     H117810   6.853   3.061   1.858
 5856WAT     H217811   6.810   3.182   1.959
 5857WAT      O17812   8.958   1.838   2.848
 5857WAT     H117813   8.999   1.772   2.784
 5857WAT     H217814   9.024   1.862   2.918
 5858WAT      O17815   8.454   0.083   1.300
 5858WAT     H117816   8.393   0.147   1.254
 5858WAT     H217817   8.536   0.070   1.245
 5859WAT      O17818   0.265   7.306   5.326
 5859WAT     H117819   0.317   7.220   5.328
 5859WAT     H217820   0.170   7.287   5.351
 5860WAT      O17821   9.363   2.150   7.999
 5860WAT     H117822   9.299   2.190   8.065
 5860WAT     H217823   9.391   2.060   8.031
 5861WAT      O17824   6.174   5.338   3.555
 5861WAT     H117825   6.262   5.385   3.565
 5861WAT     H217826   6.169   5.295   3.465
 5862WAT      O17827   2.338   1.571   5.208
 5862WAT     H117828   2.274   1.563   5.131
 5862WAT     H217829   2.342   1.666   5.238
 5863WAT      O17830   8.195   6.806   4.104
 5863WAT     H117831   8.140   6.730   4.069
 5863WAT     H217832   8.177   6.818   4.202
 5864WAT      O17833   4.312   3.085   0.816
 5864WAT     H117834   4.251   3.133   0.753
 5864WAT     H217835   4.339   3.147   0.890
 5865WAT      O17836   8.953   4.135   2.411
 5865WAT     H117837   9.048   4.141   2.382
 5865WAT     H217838   8.922   4.224   2.445
 5866WAT      O17839   3.838   9.534   9.301
 5866WAT     H117840   3.766   9.469   9.325
 5866WAT     H217841   3.889   9.499   9.222
 5867WAT      O17842   4.511   1.313   5.796
 5867WAT     H117843   4.524   1.267   5.884
 5867WAT     H217844   4.455   1.255   5.736
 5868WAT      O17845   6.350   4.958   0.897
 5868WAT     H117846   6.418   4.946   0.970
 5868WAT     H217847   6.263   4.986   0.938
 5869WAT      O17848   5.819   5.519   5.245
 5869WAT     H117849   5.734   5.540   5.293
 5869WAT     H217850   5.815   5.558   5.153
 5870WAT      O17851   4.455   0.273   8.895
 5870WAT     H117852   4.358   0.250   8.884
 5870WAT     H217853   4.479   0.346   8.831
 5871WAT      O17854   4.533   1.864   5.771
 5871WAT     H117855   4.462   1.913   5.822
 5871WAT     H217856   4.517   1.765   5.778
 5872WAT      O17857   1.183   4.683   8.503
 5872WAT     H117858   1.193   4.782   8.513
 5872WAT     H217859   1.269   4.644   8.471
 5873WAT      O17860   5.448   8.370   1.564
 5873WAT     H117861   5.402   8.410   1.643
 5873WAT     H217862   5.424   8.422   1.482
 5874WAT      O17863   1.699   2.871   8.285
 5874WAT     H117864   1.655   2.783   8.265
 5874WAT     H217865   1.628   2.940   8.302
 5875WAT      O17866   0.568   4.879   8.328
 5875WAT     H117867   0.648   4.885   8.269
 5875WAT     H217868   0.569   4.955   8.394
 5876WAT      O17869   1.603   4.586   6.125
 5876WAT     H117870   1.513   4.569   6.166
 5876WAT     H217871   1.614   4.684   6.108
 5877WAT      O17872   7.345   5.851   6.811
 5877WAT     H117873   7.390   5.796   6.881
 5877WAT     H217874   7.287   5.792   6.754
 5878WAT      O17875   9.163   0.525   1.395
 5878WAT     H117876   9.154   0.587   1.317
 5878WAT     H217877   9.241   0.464   1.380
 5879WAT      O17878   7.842   3.958   9.351
 5879WAT     H117879   7.907   3.964   9.427
 5879WAT     H217880   7.883   4.000   9.269
 5880WAT      O17881   0.096   8.652   6.296
 5880WAT     H117882   0.012   8.668   6.245
 5880WAT     H217883   0.084   8.685   6.390
 5881WAT      O17884   0.290   1.085   9.489
 5881WAT     H117885   0.323   1.071   9.396
 5881WAT     H217886   0.310   1.004   9.544
 5882WAT      O17887   6.578   6.408   1.397
 5882WAT     H117888   6.591   6.430   1.494
 5882WAT     H217889   6.612   6.484   1.341
 5883WAT      O17890   8.537   3.481   8.711
 5883WAT     H117891   8.595   3.451   8.635
 5883WAT     H217892   8.447   3.439   8.703
 5884WAT      O17893   5.251   6.388   7.353
 5884WAT     H117894   5.315   6.330   7.303
 5884WAT     H217895   5.295   6.423   7.436
 5885WAT      O17896   7.965   1.486   8.098
 5885WAT     H117897   7.934   1.509   8.190
 5885WAT     H217898   7.900   1.423   8.056
 5886WAT      O17899   7.132   7.521   6.589
 5886WAT     H117900   7.138   7.565   6.499
 5886WAT     H217901   7.214   7.543   6.641
 5887WAT      O17902   7.834   0.107   8.701
 5887WAT     H117903   7.789   0.018   8.690
 5887WAT     H217904   7.871   0.136   8.612
 5888WAT      O17905   8.016   4.228   7.760
 5888WAT     H117906   7.917   4.236   7.766
 5888WAT     H217907   8.041   4.134   7.735
 5889WAT      O17908   0.729   0.984   6.734
 5889WAT     H117909   0.818   0.968   6.692
 5889WAT     H217910   0.662   0.919   6.696
 5890WAT      O17911   5.971   7.845   0.082
 5890WAT     H117912   5.901   7.775   0.071
 5890WAT     H217913   5.983   7.894  -0.004
 5891WAT      O17914   0.853   4.769   3.689
 5891WAT     H117915   0.856   4.869   3.677
 5891WAT     H217916   0.758   4.740   3.701
 5892WAT      O17917   5.187   6.309   3.913
 5892WAT     H117918   5.204   6.392   3.860
 5892WAT     H217919   5.150   6.238   3.852
 5893WAT      O17920   0.012   9.251   0.406
 5893WAT     H117921   0.051   9.337   0.439
 5893WAT     H217922   0.021   9.181   0.476
 5894WAT      O17923   4.414   6.010   8.945
 5894WAT     H117924   4.509   6.023   8.917
 5894WAT     H217925   4.395   5.913   8.957
 5895WAT      O17926   0.629   0.902   1.135
 5895WAT     H117927   0.605   0.929   1.042
 5895WAT     H217928   0.714   0.948   1.162
 5896WAT      O17929   9.517   7.455   9.010
 5896WAT     H117930   9.587   7.416   8.951
 5896WAT     H217931   9.438   7.483   8.954
 5897WAT      O17932   3.711   7.253   9.618
 5897WAT     H117933   3.643   7.270   9.547
 5897WAT     H217934   3.791   7.311   9.603
 5898WAT      O17935   0.162   2.725   9.481
 5898WAT     H117936   0.183   2.795   9.550
 5898WAT     H217937   0.083   2.671   9.512
 5899WAT      O17938   4.230   2.288   7.538
 5899WAT     H117939   4.241   2.377   7.492
 5899WAT     H217940   4.199   2.304   7.632
 5900WAT      O17941   3.325   7.600   8.676
 5900WAT     H117942   3.326   7.502   8.656
 5900WAT     H217943   3.315   7.614   8.775
 5901WAT      O17944   4.502   3.487   5.071
 5901WAT     H117945   4.425   3.480   5.007
 5901WAT     H217946   4.588   3.476   5.021
 5902WAT      O17947   9.308   0.905   8.136
 5902WAT     H117948   9.210   0.889   8.153
 5902WAT     H217949   9.319   0.952   8.048
 5903WAT      O17950   8.879   0.118   3.149
 5903WAT     H117951   8.796   0.169   3.125
 5903WAT     H217952   8.945   0.125   3.073
 5904WAT      O17953   0.646   5.989   9.234
 5904WAT     H117954   0.621   6.055   9.163
 5904WAT     H217955   0.583   5.912   9.232
 5905WAT      O17956   9.759   6.245   0.764
 5905WAT     H117957   9.704   6.204   0.692
 5905WAT     H217958   9.711   6.324   0.802
 5906WAT      O17959   2.005   0.738   8.835
 5906WAT     H117960   2.011   0.677   8.914
 5906WAT     H217961   1.936   0.809   8.852
 5907WAT      O17962   8.669   2.552   6.886
 5907WAT     H117963   8.722   2.468   6.871
 5907WAT     H217964   8.718   2.630   6.848
 5908WAT      O17965   6.908   0.190   8.309
 5908WAT     H117966   6.886   0.143   8.223
 5908WAT     H217967   6.878   0.285   8.304
 5909WAT      O17968   7.160   6.942   2.999
 5909WAT     H117969   7.155   6.867   2.934
 5909WAT     H217970   7.070   6.984   3.008
 5910WAT      O17971   3.603   7.187   0.911
 5910WAT     H117972   3.587   7.276   0.953
 5910WAT     H217973   3.619   7.119   0.982
 5911WAT      O17974   3.358   7.092   9.104
 5911WAT     H117975   3.405   7.019   9.152
 5911WAT     H217976   3.414   7.175   9.107
 5912WAT      O17977   7.971   8.738   5.592
 5912WAT     H117978   7.875   8.732   5.619
 5912WAT     H217979   7.983   8.813   5.527
 5913WAT      O17980   5.146   0.911   1.633
 5913WAT     H117981   5.142   0.919   1.733
 5913WAT     H217982   5.167   1.001   1.594
 5914WAT      O17983   8.255   4.018   2.887
 5914WAT     H117984   8.275   3.921   2.873
 5914WAT     H217985   8.332   4.073   2.855
 5915WAT      O17986   6.914   5.100   4.669
 5915WAT     H117987   6.921   5.051   4.582
 5915WAT     H217988   6.885   5.194   4.652
 5916WAT      O17989   5.742   7.181   3.395
 5916WAT     H117990   5.806   7.162   3.469
 5916WAT     H217991   5.684   7.258   3.420
 5917WAT      O17992   9.667   2.891   0.197
 5917WAT     H117993   9.727   2.896   0.118
 5917WAT     H217994   9.718   2.858   0.277
 5918WAT      O17995   5.212   1.009   8.790
 5918WAT     H117996   5.169   0.920   8.805
 5918WAT     H217997   5.257   1.038   8.874
 5919WAT      O17998   8.062   0.427   2.954
 5919WAT     H117999   7.995   0.415   2.880
 5919WAT     H218000   8.076   0.525   2.970
 5920WAT      O18001   3.394   1.856   1.251
 5920WAT     H118002   3.465   1.851   1.321
 5920WAT     H218003   3.304   1.848   1.294
 5921WAT      O18004   8.752   7.722   7.774
 5921WAT     H118005   8.682   7.653   7.793
 5921WAT     H218006   8.820   7.722   7.847
 5922WAT      O18007   9.600   2.404   9.276
 5922WAT     H118008   9.690   2.371   9.304
 5922WAT     H218009   9.529   2.342   9.311
 5923WAT      O18010   0.420   7.474   5.485
 5923WAT     H118011   0.509   7.468   5.439
 5923WAT     H218012   0.351   7.426   5.431
 5924WAT      O18013   1.736   0.136   2.737
 5924WAT     H118014   1.756   0.226   2.699
 5924WAT     H218015   1.794   0.068   2.693
 5925WAT      O18016   0.873   1.804   9.758
 5925WAT     H118017   0.969   1.816   9.783
 5925WAT     H218018   0.818   1.801   9.842
 5926WAT      O18019   2.117   8.170   1.419
 5926WAT     H118020   2.099   8.100   1.350
 5926WAT     H218021   2.145   8.126   1.504
 5927WAT      O18022   2.840   7.417   9.821
 5927WAT     H118023   2.745   7.386   9.810
 5927WAT     H218024   2.895   7.342   9.860
 5928WAT      O18025   3.297   3.137   0.685
 5928WAT     H118026   3.273   3.106   0.777
 5928WAT     H218027   3.215   3.168   0.637
 5929WAT      O18028   6.840   8.515   4.026
 5929WAT     H118029   6.843   8.599   3.971
 5929WAT     H218030   6.756   8.465   4.006
 5930WAT      O18031   7.183   8.840   2.436
 5930WAT     H118032   7.147   8.787   2.512
 5930WAT     H218033   7.108   8.882   2.385
 5931WAT      O18034   7.503   2.115   3.893
 5931WAT     H118035   7.558   2.184   3.939
 5931WAT     H218036   7.464   2.153   3.809
 5932WAT      O18037   2.991   4.526   3.966
 5932WAT     H118038   2.983   4.622   3.994
 5932WAT     H218039   3.084   4.509   3.934
 5933WAT      O18040   3.626   7.052   3.039
 5933WAT     H118041   3.671   7.037   2.951
 5933WAT     H218042   3.604   6.963   3.080
 5934WAT      O18043   6.823   9.776   3.919
 5934WAT     H118044   6.802   9.762   4.015
 5934WAT     H218045   6.742   9.809   3.871
 5935WAT      O18046   8.776   8.531   8.763
 5935WAT     H118047   8.740   8.591   8.691
 5935WAT     H218048   8.874   8.519   8.749
 5936WAT      O18049   6.894   8.996   2.599
 5936WAT     H118050   6.943   9.062   2.655
 5936WAT     H218051   6.923   8.903   2.621
 5937WAT      O18052   0.361   9.563   5.510
 5937WAT     H118053   0.455   9.584   5.537
 5937WAT     H218054   0.331   9.629   5.441
 5938WAT      O18055   5.371   3.879   2.742
 5938WAT     H118056   5.314   3.950   2.784
 5938WAT     H218057   5.362   3.794   2.794
 5939WAT      O18058   1.284   8.619   6.175
 5939WAT     H118059   1.190   8.621   6.211
 5939WAT     H218060   1.323   8.528   6.192
 5940WAT      O18061   2.993   9.326   9.572
 5940WAT     H118062   3.023   9.337   9.477
 5940WAT     H218063   2.899   9.359   9.581
 5941WAT      O18064   9.468   2.445   8.745
 5941WAT     H118065   9.483   2.351   8.715
 5941WAT     H218066   9.472   2.450   8.845
 5942WAT      O18067   5.379   8.346   8.456
 5942WAT     H118068   5.284   8.365   8.432
 5942WAT     H218069   5.411   8.266   8.405
 5943WAT      O18070   6.200   0.992   2.077
 5943WAT     H118071   6.287   0.963   2.037
 5943WAT     H218072   6.182   0.939   2.159
 5944WAT      O18073   8.135   4.852   5.301
 5944WAT     H118074   8.089   4.926   5.254
 5944WAT     H218075   8.068   4.783   5.330
 5945WAT      O18076   7.357   9.606   3.189
 5945WAT     H118077   7.299   9.549   3.131
 5945WAT     H218078   7.339   9.702   3.170
 5946WAT      O18079   5.108   2.460   8.451
 5946WAT     H118080   5.162   2.377   8.434
 5946WAT     H218081   5.041   2.441   8.523
 5947WAT      O18082   6.339   2.186   3.307
 5947WAT     H118083   6.419   2.238   3.337
 5947WAT     H218084   6.340   2.095   3.350
 5948WAT      O18085   6.903   9.636   1.366
 5948WAT     H118086   6.940   9.579   1.293
 5948WAT     H218087   6.947   9.726   1.365
 5949WAT      O18088   1.797   3.651   0.329
 5949WAT     H118089   1.859   3.622   0.402
 5949WAT     H218090   1.746   3.732   0.359
 5950WAT      O18091   7.578   6.370   7.735
 5950WAT     H118092   7.512   6.312   7.781
 5950WAT     H218093   7.641   6.410   7.802
 5951WAT      O18094   5.796   4.801   9.185
 5951WAT     H118095   5.790   4.891   9.228
 5951WAT     H218096   5.879   4.754   9.217
 5952WAT      O18097   2.636   1.412   1.756
 5952WAT     H118098   2.663   1.339   1.693
 5952WAT     H218099   2.601   1.372   1.841
 5953WAT      O18100   5.807   9.313   7.844
 5953WAT     H118101   5.827   9.217   7.830
 5953WAT     H218102   5.792   9.358   7.756
 5954WAT      O18103   5.936   7.030   5.760
 5954WAT     H118104   5.982   7.116   5.782
 5954WAT     H218105   5.967   6.959   5.822
 5955WAT      O18106   9.668   7.371   0.960
 5955WAT     H118107   9.693   7.291   1.015
 5955WAT     H218108   9.735   7.444   0.975
 5956WAT      O18109   9.272   3.686   9.239
 5956WAT     H118110   9.300   3.676   9.144
 5956WAT     H218111   9.206   3.615   9.263
 5957WAT      O18112   3.717   1.362   2.282
 5957WAT     H118113   3.779   1.424   2.329
 5957WAT     H218114   3.729   1.269   2.318
 5958WAT      O18115   4.820   0.441   1.887
 5958WAT     H118116   4.740   0.501   1.892
 5958WAT     H218117   4.882   0.462   1.963
 5959WAT      O18118   9.832   4.695   3.412
 5959WAT     H118119   9.824   4.613   3.355
 5959WAT     H218120   9.772   4.767   3.376
 5960WAT      O18121   9.053   1.992   1.603
 5960WAT     H118122   9.113   2.023   1.529
 5960WAT     H218123   9.086   2.031   1.690
 5961WAT      O18124   1.836   5.950   3.358
 5961WAT     H118125   1.817   5.984   3.450
 5961WAT     H218126   1.749   5.940   3.308
 5962WAT      O18127   3.864   9.147   1.394
 5962WAT     H118128   3.904   9.056   1.381
 5962WAT     H218129   3.787   9.159   1.333
 5963WAT      O18130   3.353   8.765   8.572
 5963WAT     H118131   3.418   8.757   8.497
 5963WAT     H218132   3.398   8.806   8.651
 5964WAT      O18133   9.634   2.698   7.949
 5964WAT     H118134   9.665   2.640   8.024
 5964WAT     H218135   9.545   2.666   7.917
 5965WAT      O18136   5.051   5.811   8.728
 5965WAT     H118137   4.956   5.833   8.709
 5965WAT     H218138   5.091   5.764   8.649
 5966WAT      O18139   0.862   3.470   1.657
 5966WAT     H118140   0.808   3.494   1.737
 5966WAT     H218141   0.801   3.444   1.582
 5967WAT      O18142   4.315   9.195   9.705
 5967WAT     H118143   4.362   9.283   9.696
 5967WAT     H218144   4.267   9.175   9.620
 5968WAT      O18145   0.309   4.846   8.314
 5968WAT     H118146   0.285   4.906   8.237
 5968WAT     H218147   0.406   4.856   8.335
 5969WAT      O18148   5.294   1.328   6.620
 5969WAT     H118149   5.357   1.354   6.547
 5969WAT     H218150   5.343   1.274   6.689
 5970WAT      O18151   2.481   9.114   0.758
 5970WAT     H118152   2.398   9.087   0.807
 5970WAT     H218153   2.550   9.043   0.767
 5971WAT      O18154   2.889   4.673   1.487
 5971WAT     H118155   2.878   4.576   1.467
 5971WAT     H218156   2.962   4.685   1.555
 5972WAT      O18157   6.182   0.891   2.326
 5972WAT     H118158   6.177   0.929   2.418
 5972WAT     H218159   6.134   0.803   2.324
 5973WAT      O18160   9.480   4.317   3.166
 5973WAT     H118161   9.452   4.271   3.250
 5973WAT     H218162   9.509   4.410   3.187
 5974WAT      O18163   9.687   6.080   5.847
 5974WAT     H118164   9.620   6.069   5.920
 5974WAT     H218165   9.649   6.046   5.761
 5975WAT      O18166   5.815   1.168   6.950
 5975WAT     H118167   5.800   1.213   7.038
 5975WAT     H218168   5.769   1.079   6.949
 5976WAT      O18169   8.068   6.822   8.311
 5976WAT     H118170   8.137   6.859   8.374
 5976WAT     H218171   8.000   6.893   8.292
 5977WAT      O18172   4.430   3.045   2.097
 5977WAT     H118173   4.529   3.044   2.086
 5977WAT     H218174   4.394   2.952   2.089
 5978WAT      O18175   8.680   3.796   0.033
 5978WAT     H118176   8.728   3.883   0.041
 5978WAT     H218177   8.587   3.812  -0.001
 5979WAT      O18178   4.068   1.254   3.055
 5979WAT     H118179   3.986   1.299   3.020
 5979WAT     H218180   4.085   1.170   3.003
 5980WAT      O18181   7.783   3.545   6.569
 5980WAT     H118182   7.730   3.622   6.604
 5980WAT     H218183   7.734   3.460   6.586
 5981WAT      O18184   7.980   8.537   4.963
 5981WAT     H118185   8.073   8.505   4.983
 5981WAT     H218186   7.977   8.636   4.971
 5982WAT      O18187   8.787   6.658   0.070
 5982WAT     H118188   8.876   6.698   0.048
 5982WAT     H218189   8.799   6.583   0.135
 5983WAT      O18190   1.924   9.176   3.684
 5983WAT     H118191   1.827   9.177   3.710
 5983WAT     H218192   1.939   9.241   3.610
 5984WAT      O18193   7.016   5.898   4.151
 5984WAT     H118194   7.002   5.831   4.078
 5984WAT     H218195   7.086   5.964   4.123
 5985WAT      O18196   6.659   7.048   2.687
 5985WAT     H118197   6.599   6.971   2.665
 5985WAT     H218198   6.753   7.025   2.662
 5986WAT      O18199   1.261   1.371   7.826
 5986WAT     H118200   1.316   1.315   7.764
 5986WAT     H218201   1.180   1.320   7.854
 5987WAT      O18202   5.711   0.439   0.860
 5987WAT     H118203   5.626   0.410   0.816
 5987WAT     H218204   5.700   0.436   0.960
 5988WAT      O18205   6.807   4.078   4.483
 5988WAT     H118206   6.854   4.166   4.473
 5988WAT     H218207   6.874   4.004   4.483
 5989WAT      O18208   7.625   9.232   3.110
 5989WAT     H118209   7.697   9.165   3.127
 5989WAT     H218210   7.662   9.309   3.059
 5990WAT      O18211   6.007   3.470   0.653
 5990WAT     H118212   6.074   3.518   0.710
 5990WAT     H218213   5.947   3.537   0.609
 5991WAT      O18214   9.136   5.482   8.612
 5991WAT     H118215   9.066   5.420   8.647
 5991WAT     H218216   9.141   5.473   8.512
 5992WAT      O18217   1.539   8.381   0.640
 5992WAT     H118218   1.637   8.374   0.662
 5992WAT     H218219   1.529   8.413   0.546
 5993WAT      O18220   4.935   3.930   5.678
 5993WAT     H118221   4.851   3.898   5.723
 5993WAT     H218222   4.921   3.928   5.579
 5994WAT      O18223   8.521   8.620   3.230
 5994WAT     H118224   8.438   8.654   3.184
 5994WAT     H218225   8.597   8.618   3.165
 5995WAT      O18226   3.177   4.933   4.532
 5995WAT     H118227   3.183   4.998   4.456
 5995WAT     H218228   3.252   4.867   4.525
 5996WAT      O18229   7.450   6.728   1.182
 5996WAT     H118230   7.452   6.631   1.204
 5996WAT     H218231   7.356   6.762   1.188
 5997WAT      O18232   7.369   8.224   9.466
 5997WAT     H118233   7.364   8.282   9.548
 5997WAT     H218234   7.398   8.280   9.388
 5998WAT      O18235   2.208   6.974   4.337
 5998WAT     H118236   2.252   7.043   4.393
 5998WAT     H218237   2.232   6.883   4.371
 5999WAT      O18238   5.250   1.647   5.910
 5999WAT     H118239   5.343   1.664   5.877
 5999WAT     H218240   5.213   1.565   5.865
 6000WAT      O18241   7.186   2.327   0.036
 6000WAT     H118242   7.215   2.268  -0.040
 6000WAT     H218243   7.086   2.335   0.034
 6001WAT      O18244   9.574   5.698   9.335
 6001WAT     H118245   9.556   5.763   9.262
 6001WAT     H218246   9.538   5.734   9.421
 6002WAT      O18247   9.667   6.347   5.808
 6002WAT     H118248   9.716   6.372   5.725
 6002WAT     H218249   9.675   6.248   5.823
 6003WAT      O18250   7.731   8.158   0.660
 6003WAT     H118251   7.792   8.146   0.739
 6003WAT     H218252   7.704   8.068   0.625
 6004WAT      O18253   2.396   0.761   4.303
 6004WAT     H118254   2.440   0.820   4.370
 6004WAT     H218255   2.451   0.759   4.219
 6005WAT      O18256   0.720   5.364   6.879
 6005WAT     H118257   0.754   5.331   6.967
 6005WAT     H218258   0.747   5.300   6.807
 6006WAT      O18259   4.722   7.067   1.350
 6006WAT     H118260   4.782   6.997   1.388
 6006WAT     H218261   4.775   7.131   1.294
 6007WAT      O18262   1.868   2.201   9.351
 6007WAT     H118263   1.946   2.153   9.391
 6007WAT     H218264   1.833   2.269   9.415
 6008WAT      O18265   2.359   6.037   0.091
 6008WAT     H118266   2.394   6.055  -0.001
 6008WAT     H218267   2.376   5.941   0.114
 6009WAT      O18268   4.673   8.963   2.780
 6009WAT     H118269   4.624   8.986   2.696
 6009WAT     H218270   4.764   9.004   2.777
 6010WAT      O18271   0.888   6.088   0.500
 6010WAT     H118272   0.848   6.078   0.409
 6010WAT     H218273   0.816   6.075   0.569
 6011WAT      O18274   6.524   5.454   6.400
 6011WAT     H118275   6.568   5.391   6.336
 6011WAT     H218276   6.565   5.545   6.391
 6012WAT      O18277   0.020   8.675   0.900
 6012WAT     H118278   0.019   8.695   0.998
 6012WAT     H218279  -0.054   8.725   0.855
 6013WAT      O18280   8.798   8.309   9.488
 6013WAT     H118281   8.712   8.309   9.539
 6013WAT     H218282   8.869   8.265   9.543
 6014WAT      O18283   1.520   4.031   5.428
 6014WAT     H118284   1.507   3.935   5.400
 6014WAT     H218285   1.488   4.043   5.522
 6015WAT      O18286   4.275   2.333   5.113
 6015WAT     H118287   4.330   2.256   5.146
 6015WAT     H218288   4.246   2.389   5.191
 6016WAT      O18289   9.214   0.469   4.770
 6016WAT     H118290   9.240   0.521   4.688
 6016WAT     H218291   9.115   0.450   4.767
 6017WAT      O18292   4.697   6.432   6.959
 6017WAT     H118293   4.619   6.469   6.909
 6017WAT     H218294   4.758   6.384   6.896
 6018WAT      O18295   0.166   4.896   3.441
 6018WAT     H118296   0.107   4.816   3.438
 6018WAT     H218297   0.259   4.868   3.463
 6019WAT      O18298   6.199   5.070   9.204
 6019WAT     H118299   6.140   5.095   9.282
 6019WAT     H218300   6.295   5.080   9.231
 6020WAT      O18301   0.067   7.888   1.430
 6020WAT     H118302  -0.013   7.947   1.440
 6020WAT     H218303   0.138   7.917   1.494
 6021WAT      O18304   1.276   8.757   7.836
 6021WAT     H118305   1.267   8.658   7.826
 6021WAT     H218306   1.236   8.802   7.756
 6022WAT      O18307   3.782   3.637   1.352
 6022WAT     H118308   3.753   3.732   1.362
 6022WAT     H218309   3.821   3.623   1.261
 6023WAT      O18310   7.521   7.519   5.346
 6023WAT     H118311   7.540   7.428   5.307
 6023WAT     H218312   7.492   7.509   5.441
 6024WAT      O18313   3.478   0.837   5.480
 6024WAT     H118314   3.525   0.818   5.566
 6024WAT     H218315   3.385   0.803   5.485
 6025WAT      O18316   4.399   4.620   9.232
 6025WAT     H118317   4.384   4.521   9.242
 6025WAT     H218318   4.422   4.659   9.320
 6026WAT      O18319   8.781   2.893   9.007
 6026WAT     H118320   8.803   2.953   8.930
 6026WAT     H218321   8.782   2.798   8.977
 6027WAT      O18322   5.960   3.689   5.254
 6027WAT     H118323   5.997   3.637   5.177
 6027WAT     H218324   6.035   3.725   5.310
 6028WAT      O18325   9.142   4.602   0.511
 6028WAT     H118326   9.065   4.550   0.548
 6028WAT     H218327   9.201   4.632   0.586
 6029WAT      O18328   4.731   3.949   0.883
 6029WAT     H118329   4.647   3.993   0.915
 6029WAT     H218330   4.810   3.995   0.924
 6030WAT      O18331   0.112   3.345   5.228
 6030WAT     H118332   0.134   3.352   5.131
 6030WAT     H218333   0.138   3.429   5.275
 6031WAT      O18334   7.237   0.212   7.894
 6031WAT     H118335   7.281   0.261   7.819
 6031WAT     H218336   7.217   0.276   7.968
 6032WAT      O18337   2.125   6.121   5.233
 6032WAT     H118338   2.127   6.080   5.325
 6032WAT     H218339   2.070   6.064   5.173
 6033WAT      O18340   4.552   5.094   0.433
 6033WAT     H118341   4.511   5.178   0.397
 6033WAT     H218342   4.644   5.114   0.468
 6034WAT      O18343   3.408   6.567   7.439
 6034WAT     H118344   3.443   6.650   7.396
 6034WAT     H218345   3.359   6.591   7.523
 6035WAT      O18346   5.124   3.639   6.676
 6035WAT     H118347   5.064   3.624   6.597
 6035WAT     H218348   5.213   3.669   6.645
 6036WAT      O18349   3.292   1.637   5.615
 6036WAT     H118350   3.220   1.671   5.555
 6036WAT     H218351   3.370   1.607   5.561
 6037WAT      O18352   2.627   6.038   0.349
 6037WAT     H118353   2.714   6.074   0.380
 6037WAT     H218354   2.561   6.113   0.338
 6038WAT      O18355   9.407   4.141   3.410
 6038WAT     H118356   9.499   4.106   3.390
 6038WAT     H218357   9.368   4.090   3.487
 6039WAT      O18358   2.956   6.081   7.084
 6039WAT     H118359   2.891   6.157   7.074
 6039WAT     H218360   2.920   6.000   7.038
 6040WAT      O18361   0.342   3.827   7.133
 6040WAT     H118362   0.392   3.905   7.096
 6040WAT     H218363   0.392   3.787   7.209
 6041WAT      O18364   6.690   5.547   3.830
 6041WAT     H118365   6.698   5.447   3.836
 6041WAT     H218366   6.614   5.578   3.887
 6042WAT      O18367   7.859   9.755   0.741
 6042WAT     H118368   7.916   9.836   0.746
 6042WAT     H218369   7.766   9.777   0.772
 6043WAT      O18370   8.283   8.310   7.262
 6043WAT     H118371   8.221   8.293   7.185
 6043WAT     H218372   8.240   8.375   7.325
 6044WAT      O18373   0.621   4.695   1.857
 6044WAT     H118374   0.687   4.717   1.930
 6044WAT     H218375   0.590   4.780   1.814
 6045WAT      O18376   8.458   7.114   2.923
 6045WAT     H118377   8.473   7.050   2.848
 6045WAT     H218378   8.419   7.199   2.887
 6046WAT      O18379   1.509   7.864   1.875
 6046WAT     H118380   1.547   7.955   1.862
 6046WAT     H218381   1.414   7.862   1.842
 6047WAT      O18382   5.608   0.414   0.008
 6047WAT     H118383   5.556   0.480   0.063
 6047WAT     H218384   5.698   0.452  -0.012
 6048WAT      O18385   8.192   9.349   8.504
 6048WAT     H118386   8.237   9.346   8.415
 6048WAT     H218387   8.099   9.383   8.494
 6049WAT      O18388   0.894   3.889   4.954
 6049WAT     H118389   0.811   3.912   4.903
 6049WAT     H218390   0.888   3.925   5.047
 6050WAT      O18391   4.970   5.028   9.749
 6050WAT     H118392   5.066   5.006   9.729
 6050WAT     H218393   4.923   4.946   9.781
 6051WAT      O18394   3.010   1.662   8.613
 6051WAT     H118395   2.949   1.584   8.595
 6051WAT     H218396   2.955   1.742   8.636
 6052WAT      O18397   2.895   8.698   7.337
 6052WAT     H118398   2.949   8.727   7.416
 6052WAT     H218399   2.816   8.645   7.368
 6053WAT      O18400   4.199   2.208   6.821
 6053WAT     H118401   4.213   2.130   6.761
 6053WAT     H218402   4.114   2.255   6.795
 6054WAT      O18403   5.700   5.646   6.454
 6054WAT     H118404   5.702   5.553   6.492
 6054WAT     H218405   5.627   5.699   6.499
 6055WAT      O18406   0.027   7.142   1.605
 6055WAT     H118407   0.073   7.084   1.672
 6055WAT     H218408   0.053   7.237   1.620
 6056WAT      O18409   7.898   8.390   5.420
 6056WAT     H118410   7.816   8.335   5.404
 6056WAT     H218411   7.888   8.478   5.374
 6057WAT      O18412   1.719   7.472   3.168
 6057WAT     H118413   1.724   7.535   3.090
 6057WAT     H218414   1.626   7.435   3.174
 6058WAT      O18415   4.028   7.045   2.214
 6058WAT     H118416   4.125   7.056   2.191
 6058WAT     H218417   3.974   7.040   2.130
 6059WAT      O18418   9.602   9.076   3.249
 6059WAT     H118419   9.679   9.119   3.297
 6059WAT     H218420   9.557   9.010   3.309
 6060WAT      O18421   0.939   3.833   3.652
 6060WAT     H118422   0.979   3.831   3.560
 6060WAT     H218423   0.906   3.742   3.676
 6061WAT      O18424   9.495   1.112   6.493
 6061WAT     H118425   9.525   1.093   6.586
 6061WAT     H218426   9.498   1.210   6.476
 6062WAT      O18427   2.334   1.246   5.680
 6062WAT     H118428   2.239   1.219   5.693
 6062WAT     H218429   2.348   1.276   5.586
 6063WAT      O18430   2.887   3.900   9.862
 6063WAT     H118431   2.887   3.845   9.778
 6063WAT     H218432   2.850   3.991   9.842
 6064WAT      O18433   6.673   7.291   2.144
 6064WAT     H118434   6.703   7.340   2.226
 6064WAT     H218435   6.752   7.248   2.100
 6065WAT      O18436   6.781   1.536   2.167
 6065WAT     H118437   6.744   1.447   2.141
 6065WAT     H218438   6.707   1.602   2.175
 6066WAT      O18439   2.188   0.091   8.361
 6066WAT     H118440   2.211   0.170   8.304
 6066WAT     H218441   2.239   0.096   8.447
 6067WAT      O18442   5.966   8.270   7.256
 6067WAT     H118443   5.891   8.205   7.249
 6067WAT     H218444   6.053   8.221   7.248
 6068WAT      O18445   0.390   9.701   0.849
 6068WAT     H118446   0.438   9.733   0.767
 6068WAT     H218447   0.367   9.780   0.906
 6069WAT      O18448   4.800   1.311   3.797
 6069WAT     H118449   4.753   1.338   3.881
 6069WAT     H218450   4.732   1.284   3.728
 6070WAT      O18451   4.363   9.147   4.577
 6070WAT     H118452   4.401   9.058   4.599
 6070WAT     H218453   4.411   9.187   4.499
 6071WAT      O18454   3.776   6.700   2.574
 6071WAT     H118455   3.798   6.603   2.557
 6071WAT     H218456   3.713   6.732   2.503
 6072WAT      O18457   2.610   2.179   1.569
 6072WAT     H118458   2.552   2.243   1.519
 6072WAT     H218459   2.703   2.215   1.576
 6073WAT      O18460   3.442   7.048   5.285
 6073WAT     H118461   3.348   7.053   5.319
 6073WAT     H218462   3.478   6.956   5.302
 6074WAT      O18463   1.436   0.075   5.495
 6074WAT     H118464   1.420   0.129   5.578
 6074WAT     H218465   1.511   0.010   5.511
 6075WAT      O18466   1.550   6.631   8.486
 6075WAT     H118467   1.632   6.687   8.498
 6075WAT     H218468   1.578   6.537   8.464
 6076WAT      O18469   8.027   7.960   0.851
 6076WAT     H118470   8.107   8.018   0.869
 6076WAT     H218471   8.022   7.940   0.753
 6077WAT      O18472   8.735   0.065   6.868
 6077WAT     H118473   8.775   0.007   6.797
 6077WAT     H218474   8.789   0.148   6.878
 6078WAT      O18475   5.920   4.760   1.563
 6078WAT     H118476   6.018   4.747   1.582
 6078WAT     H218477   5.880   4.673   1.534
 6079WAT      O18478   7.985   1.720   5.356
 6079WAT     H118479   8.032   1.801   5.323
 6079WAT     H218480   7.895   1.714   5.312
 6080WAT      O18481   5.329   7.837   0.048
 6080WAT     H118482   5.244   7.800   0.010
 6080WAT     H218483   5.399   7.841  -0.023
 6081WAT      O18484   8.313   5.777   5.787
 6081WAT     H118485   8.264   5.750   5.869
 6081WAT     H218486   8.383   5.845   5.810
 6082WAT      O18487   5.666   0.821   8.383
 6082WAT     H118488   5.595   0.858   8.323
 6082WAT     H218489   5.754   0.864   8.361
 6083WAT      O18490   0.405   1.782   9.704
 6083WAT     H118491   0.413   1.725   9.622
 6083WAT     H218492   0.441   1.874   9.684
 6084WAT      O18493   0.653   1.510   4.146
 6084WAT     H118494   0.561   1.543   4.123
 6084WAT     H218495   0.720   1.582   4.125
 6085WAT      O18496   8.094   9.463   2.332
 6085WAT     H118497   8.006   9.492   2.370
 6085WAT     H218498   8.169   9.505   2.384
 6086WAT      O18499   9.205   1.555   7.589
 6086WAT     H118500   9.254   1.506   7.661
 6086WAT     H218501   9.271   1.601   7.529
 6087WAT      O18502   5.286   8.094   8.969
 6087WAT     H118503   5.239   8.161   8.911
 6087WAT     H218504   5.382   8.120   8.979
 6088WAT      O18505   7.168   3.151   4.869
 6088WAT     H118506   7.216   3.089   4.806
 6088WAT     H218507   7.108   3.211   4.817
 6089WAT      O18508   7.141   7.310   0.440
 6089WAT     H118509   7.234   7.317   0.477
 6089WAT     H218510   7.077   7.356   0.501
 6090WAT      O18511   4.099   6.802   4.684
 6090WAT     H118512   4.035   6.829   4.757
 6090WAT     H218513   4.189   6.786   4.724
 6091WAT      O18514   4.700   4.942   4.712
 6091WAT     H118515   4.734   4.863   4.764
 6091WAT     H218516   4.730   4.935   4.617
 6092WAT      O18517   2.334   6.614   9.692
 6092WAT     H118518   2.357   6.689   9.630
 6092WAT     H218519   2.418   6.576   9.730
 6093WAT      O18520   5.034   2.848   7.341
 6093WAT     H118521   5.082   2.883   7.260
 6093WAT     H218522   4.951   2.902   7.356
 6094WAT      O18523   3.370   2.205   7.439
 6094WAT     H118524   3.450   2.161   7.480
 6094WAT     H218525   3.369   2.188   7.340
 6095WAT      O18526   4.444   9.567   4.495
 6095WAT     H118527   4.374   9.551   4.426
 6095WAT     H218528   4.532   9.535   4.461
 6096WAT      O18529   1.190   0.779   7.555
 6096WAT     H118530   1.099   0.757   7.591
 6096WAT     H218531   1.247   0.814   7.629
 6097WAT      O18532   1.082   8.589   2.535
 6097WAT     H118533   1.016   8.518   2.559
 6097WAT     H218534   1.174   8.557   2.555
 6098WAT      O18535   4.865   9.666   1.228
 6098WAT     H118536   4.894   9.755   1.264
 6098WAT     H218537   4.779   9.639   1.271
 6099WAT      O18538   0.080   9.798   7.634
 6099WAT     H118539  -0.010   9.756   7.624
 6099WAT     H218540   0.135   9.780   7.553
 6100WAT      O18541   8.893   6.874   0.957
 6100WAT     H118542   8.848   6.913   0.877
 6100WAT     H218543   8.884   6.937   1.034
 6101WAT      O18544   2.853   6.101   2.500
 6101WAT     H118545   2.897   6.189   2.482
 6101WAT     H218546   2.789   6.079   2.426
 6102WAT      O18547   2.463   2.780   7.383
 6102WAT     H118548   2.498   2.743   7.297
 6102WAT     H218549   2.403   2.858   7.364
 6103WAT      O18550   0.692   3.056   6.599
 6103WAT     H118551   0.785   3.083   6.576
 6103WAT     H218552   0.639   3.042   6.515
 6104WAT      O18553   6.435   9.640   2.502
 6104WAT     H118554   6.457   9.733   2.532
 6104WAT     H218555   6.366   9.601   2.563
 6105WAT      O18556   7.108   7.179   4.650
 6105WAT     H118557   7.041   7.232   4.702
 6105WAT     H218558   7.131   7.227   4.566
 6106WAT      O18559   2.907   8.637   2.246
 6106WAT     H118560   2.945   8.544   2.242
 6106WAT     H218561   2.965   8.698   2.192
 6107WAT      O18562   0.573   7.319   2.401
 6107WAT     H118563   0.540   7.399   2.352
 6107WAT     H218564   0.646   7.275   2.348
 6108WAT      O18565   3.194   1.388   4.817
 6108WAT     H118566   3.178   1.487   4.822
 6108WAT     H218567   3.255   1.368   4.741
 6109WAT      O18568   5.422   0.710   5.973
 6109WAT     H118569   5.503   0.720   6.031
 6109WAT     H218570   5.450   0.693   5.879
 6110WAT      O18571   9.726   0.093   2.550
 6110WAT     H118572   9.712   0.008   2.600
 6110WAT     H218573   9.819   0.126   2.565
 6111WAT      O18574   3.752   0.046   3.761
 6111WAT     H118575   3.757   0.145   3.765
 6111WAT     H218576   3.798   0.013   3.679
 6112WAT      O18577   3.066   8.000   7.667
 6112WAT     H118578   3.094   7.906   7.648
 6112WAT     H218579   3.075   8.054   7.584
 6113WAT      O18580   9.250   3.929   1.473
 6113WAT     H118581   9.205   3.934   1.384
 6113WAT     H218582   9.338   3.882   1.463
 6114WAT      O18583   4.999   4.507   9.730
 6114WAT     H118584   5.072   4.495   9.797
 6114WAT     H218585   4.986   4.422   9.679
 6115WAT      O18586   5.650   3.068   9.795
 6115WAT     H118587   5.698   3.149   9.762
 6115WAT     H218588   5.717   3.000   9.825
 6116WAT      O18589   9.327   7.927   8.057
 6116WAT     H118590   9.397   7.994   8.032
 6116WAT     H218591   9.295   7.880   7.976
 6117WAT      O18592   9.177   5.602   2.532
 6117WAT     H118593   9.260   5.606   2.477
 6117WAT     H218594   9.186   5.664   2.611
 6118WAT      O18595   8.604   6.581   3.737
 6118WAT     H118596   8.608   6.484   3.763
 6118WAT     H218597   8.551   6.591   3.653
 6119WAT      O18598   4.459   7.340   4.031
 6119WAT     H118599   4.548   7.330   3.985
 6119WAT     H218600   4.450   7.435   4.064
 6120WAT      O18601   0.766   9.419   0.534
 6120WAT     H118602   0.750   9.414   0.435
 6120WAT     H218603   0.758   9.327   0.573
 6121WAT      O18604   4.175   9.194   2.975
 6121WAT     H118605   4.192   9.152   2.885
 6121WAT     H218606   4.160   9.122   3.042
 6122WAT      O18607   6.006   3.353   3.278
 6122WAT     H118608   5.923   3.300   3.296
 6122WAT     H218609   6.086   3.304   3.312
 6123WAT      O18610   8.751   3.472   6.592
 6123WAT     H118611   8.747   3.547   6.526
 6123WAT     H218612   8.670   3.413   6.581
 6124WAT      O18613   4.573   7.003   0.221
 6124WAT     H118614   4.635   7.079   0.236
 6124WAT     H218615   4.501   7.031   0.157
 6125WAT      O18616   7.502   4.023   2.528
 6125WAT     H118617   7.473   4.080   2.604
 6125WAT     H218618   7.530   4.082   2.451
 6126WAT      O18619   5.197   7.680   7.442
 6126WAT     H118620   5.148   7.754   7.394
 6126WAT     H218621   5.244   7.717   7.522
 6127WAT      O18622   8.064   0.807   3.496
 6127WAT     H118623   8.051   0.900   3.462
 6127WAT     H218624   8.148   0.769   3.458
 6128WAT      O18625   0.843   4.819   1.133
 6128WAT     H118626   0.869   4.898   1.188
 6128WAT     H218627   0.919   4.793   1.074
 6129WAT      O18628   1.733   2.145   4.568
 6129WAT     H118629   1.634   2.136   4.573
 6129WAT     H218630   1.771   2.068   4.518
 6130WAT      O18631   9.108   9.730   4.665
 6130WAT     H118632   9.161   9.719   4.581
 6130WAT     H218633   9.039   9.801   4.652
 6131WAT      O18634   8.339   1.998   2.591
 6131WAT     H118635   8.342   1.923   2.657
 6131WAT     H218636   8.317   1.962   2.500
 6132WAT      O18637   8.685   5.937   8.513
 6132WAT     H118638   8.689   6.012   8.448
 6132WAT     H218639   8.710   5.851   8.468
 6133WAT      O18640   2.284   8.536   7.011
 6133WAT     H118641   2.299   8.516   6.914
 6133WAT     H218642   2.361   8.503   7.065
 6134WAT      O18643   0.338   7.470   8.889
 6134WAT     H118644   0.407   7.410   8.849
 6134WAT     H218645   0.364   7.566   8.873
 6135WAT      O18646   7.564   4.773   1.738
 6135WAT     H118647   7.576   4.692   1.681
 6135WAT     H218648   7.468   4.798   1.742
 6136WAT      O18649   3.784   7.609   5.095
 6136WAT     H118650   3.745   7.690   5.051
 6136WAT     H218651   3.836   7.636   5.175
 6137WAT      O18652   4.427   2.957   7.789
 6137WAT     H118653   4.505   2.972   7.729
 6137WAT     H218654   4.439   3.011   7.872
 6138WAT      O18655   4.329   5.315   3.626
 6138WAT     H118656   4.236   5.286   3.646
 6138WAT     H218657   4.390   5.284   3.699
 6139WAT      O18658   7.557   7.978   3.559
 6139WAT     H118659   7.512   7.946   3.475
 6139WAT     H218660   7.551   7.907   3.629
 6140WAT      O18661   4.912   5.482   4.679
 6140WAT     H118662   4.933   5.397   4.729
 6140WAT     H218663   4.989   5.545   4.688
 6141WAT      O18664   5.896   5.470   7.585
 6141WAT     H118665   5.939   5.384   7.612
 6141WAT     H218666   5.907   5.485   7.487
 6142WAT      O18667   0.542   4.453   7.469
 6142WAT     H118668   0.564   4.544   7.502
 6142WAT     H218669   0.569   4.385   7.538
 6143WAT      O18670   5.987   2.559   4.633
 6143WAT     H118671   5.968   2.593   4.541
 6143WAT     H218672   6.086   2.547   4.645
 6144WAT      O18673   6.958   4.207   8.230
 6144WAT     H118674   6.946   4.109   8.218
 6144WAT     H218675   6.960   4.251   8.140
 6145WAT      O18676   0.021   6.368   5.671
 6145WAT     H118677   0.042   6.274   5.642
 6145WAT     H218678   0.047   6.432   5.599
 6146WAT      O18679   4.291   5.682   6.974
 6146WAT     H118680   4.246   5.702   6.888
 6146WAT     H218681   4.252   5.598   7.013
 6147WAT      O18682   3.406   5.241   4.151
 6147WAT     H118683   3.343   5.275   4.081
 6147WAT     H218684   3.360   5.173   4.208
 6148WAT      O18685   3.587   1.459   4.551
 6148WAT     H118686   3.680   1.440   4.580
 6148WAT     H218687   3.553   1.540   4.599
 6149WAT      O18688   5.196   1.328   8.750
 6149WAT     H118689   5.252   1.357   8.672
 6149WAT     H218690   5.203   1.229   8.760
 6150WAT      O18691   2.891   5.117   7.601
 6150WAT     H118692   2.822   5.048   7.620
 6150WAT     H218693   2.948   5.086   7.524
 6151WAT      O18694   4.901   5.467   4.208
 6151WAT     H118695   4.972   5.522   4.251
 6151WAT     H218696   4.940   5.383   4.172
 6152WAT      O18697   3.465   0.214   4.739
 6152WAT     H118698   3.529   0.167   4.798
 6152WAT     H218699   3.469   0.313   4.756
 6153WAT      O18700   6.618   8.668   7.050
 6153WAT     H118701   6.610   8.725   6.967
 6153WAT     H218702   6.639   8.574   7.024
 6154WAT      O18703   8.980   5.065   2.537
 6154WAT     H118704   9.054   5.103   2.482
 6154WAT     H218705   8.892   5.096   2.501
 6155WAT      O18706   9.850   6.078   7.330
 6155WAT     H118707   9.904   6.125   7.261
 6155WAT     H218708   9.790   6.143   7.376
 6156WAT      O18709   9.758   5.588   7.984
 6156WAT     H118710   9.815   5.630   7.914
 6156WAT     H218711   9.667   5.569   7.947
 6157WAT      O18712   3.104   0.337   2.971
 6157WAT     H118713   3.111   0.354   2.873
 6157WAT     H218714   3.165   0.398   3.021
 6158WAT      O18715   6.316   1.792   0.860
 6158WAT     H118716   6.328   1.859   0.934
 6158WAT     H218717   6.376   1.815   0.784
 6159WAT      O18718   6.575   6.188   1.683
 6159WAT     H118719   6.602   6.284   1.680
 6159WAT     H218720   6.494   6.175   1.626
 6160WAT      O18721   5.424   7.664   7.142
 6160WAT     H118722   5.347   7.700   7.090
 6160WAT     H218723   5.480   7.607   7.082
 6161WAT      O18724   6.755   1.308   1.674
 6161WAT     H118725   6.679   1.304   1.608
 6161WAT     H218726   6.731   1.254   1.755
 6162WAT      O18727   2.624   4.712   6.583
 6162WAT     H118728   2.526   4.694   6.593
 6162WAT     H218729   2.646   4.726   6.486
 6163WAT      O18730   0.041   5.424   2.156
 6163WAT     H118731   0.131   5.394   2.189
 6163WAT     H218732  -0.002   5.482   2.226
 6164WAT      O18733   8.437   5.954   9.849
 6164WAT     H118734   8.510   5.958   9.781
 6164WAT     H218735   8.384   6.039   9.847
 6165WAT      O18736   9.288   7.801   7.303
 6165WAT     H118737   9.364   7.820   7.242
 6165WAT     H218738   9.203   7.799   7.251
 6166WAT      O18739   5.815   9.046   3.875
 6166WAT     H118740   5.780   9.022   3.966
 6166WAT     H218741   5.850   9.140   3.877
 6167WAT      O18742   0.270   6.224   0.122
 6167WAT     H118743   0.309   6.157   0.060
 6167WAT     H218744   0.225   6.178   0.198
 6168WAT      O18745   6.495   9.409   7.906
 6168WAT     H118746   6.579   9.450   7.870
 6168WAT     H218747   6.419   9.474   7.896
 6169WAT      O18748   8.792   7.977   1.011
 6169WAT     H118749   8.719   7.972   0.943
 6169WAT     H218750   8.753   7.971   1.103
 6170WAT      O18751   2.383   6.382   8.359
 6170WAT     H118752   2.329   6.396   8.276
 6170WAT     H218753   2.342   6.310   8.415
 6171WAT      O18754   8.211   2.734   0.370
 6171WAT     H118755   8.159   2.694   0.295
 6171WAT     H218756   8.244   2.825   0.344
 6172WAT      O18757   8.239   0.193   9.250
 6172WAT     H118758   8.318   0.197   9.189
 6172WAT     H218759   8.155   0.181   9.197
 6173WAT      O18760   9.633   1.872   7.889
 6173WAT     H118761   9.577   1.917   7.958
 6173WAT     H218762   9.586   1.790   7.856
 6174WAT      O18763   0.568   4.256   0.396
 6174WAT     H118764   0.545   4.170   0.351
 6174WAT     H218765   0.534   4.254   0.490
 6175WAT      O18766   9.675   3.394   7.735
 6175WAT     H118767   9.731   3.411   7.817
 6175WAT     H218768   9.694   3.302   7.701
 6176WAT      O18769   2.758   7.825   8.556
 6176WAT     H118770   2.852   7.821   8.522
 6176WAT     H218771   2.755   7.785   8.648
 6177WAT      O18772   8.821   4.558   6.007
 6177WAT     H118773   8.781   4.517   5.925
 6177WAT     H218774   8.769   4.640   6.032
 6178WAT      O18775   7.812   1.072   1.061
 6178WAT     H118776   7.883   1.032   1.120
 6178WAT     H218777   7.837   1.060   0.965
 6179WAT      O18778   5.299   7.882   4.582
 6179WAT     H118779   5.203   7.895   4.607
 6179WAT     H218780   5.351   7.854   4.662
 6180WAT      O18781   1.521   9.196   0.674
 6180WAT     H118782   1.521   9.181   0.773
 6180WAT     H218783   1.589   9.266   0.652
 6181WAT      O18784   6.981   0.754   1.811
 6181WAT     H118785   6.914   0.738   1.884
 6181WAT     H218786   6.942   0.725   1.724
 6182WAT      O18787   4.761   2.398   9.439
 6182WAT     H118788   4.702   2.400   9.519
 6182WAT     H218789   4.714   2.443   9.362
 6183WAT      O18790   0.285   6.610   8.095
 6183WAT     H118791   0.340   6.659   8.027
 6183WAT     H218792   0.334   6.608   8.182
 6184WAT      O18793   2.586   6.133   0.835
 6184WAT     H118794   2.634   6.052   0.801
 6184WAT     H218795   2.643   6.178   0.904
 6185WAT      O18796   3.646   8.017   4.005
 6185WAT     H118797   3.661   7.919   3.989
 6185WAT     H218798   3.564   8.046   3.956
 6186WAT      O18799   1.606   5.791   3.788
 6186WAT     H118800   1.609   5.871   3.848
 6186WAT     H218801   1.694   5.744   3.792
 6187WAT      O18802   6.413   9.472   5.094
 6187WAT     H118803   6.386   9.485   4.999
 6187WAT     H218804   6.503   9.514   5.110
 6188WAT      O18805   1.590   9.161   4.032
 6188WAT     H118806   1.528   9.091   4.065
 6188WAT     H218807   1.684   9.134   4.053
 6189WAT      O18808   9.610   7.672   1.056
 6189WAT     H118809   9.662   7.739   1.108
 6189WAT     H218810   9.584   7.710   0.968
 6190WAT      O18811   6.056   1.784   2.880
 6190WAT     H118812   6.151   1.757   2.867
 6190WAT     H218813   6.005   1.770   2.795
 6191WAT      O18814   1.670   9.798   7.178
 6191WAT     H118815   1.582   9.846   7.177
 6191WAT     H218816   1.654   9.700   7.187
 6192WAT      O18817   1.706   7.844   2.070
 6192WAT     H118818   1.643   7.872   1.998
 6192WAT     H218819   1.666   7.864   2.159
 6193WAT      O18820   4.239   4.376   9.257
 6193WAT     H118821   4.268   4.367   9.352
 6193WAT     H218822   4.151   4.423   9.253
 6194WAT      O18823   7.281   4.216   3.976
 6194WAT     H118824   7.240   4.131   4.006
 6194WAT     H218825   7.273   4.285   4.048
 6195WAT      O18826   9.434   7.191   6.314
 6195WAT     H118827   9.410   7.094   6.325
 6195WAT     H218828   9.379   7.246   6.376
 6196WAT      O18829   9.734   6.155   3.850
 6196WAT     H118830   9.745   6.254   3.849
 6196WAT     H218831   9.795   6.114   3.781
 6197WAT      O18832   9.668   5.295   4.072
 6197WAT     H118833   9.631   5.207   4.042
 6197WAT     H218834   9.763   5.303   4.043
 6198WAT      O18835   2.223   7.052   5.695
 6198WAT     H118836   2.194   7.112   5.621
 6198WAT     H218837   2.151   6.986   5.716
 6199WAT      O18838   3.860   0.265   4.644
 6199WAT     H118839   3.822   0.340   4.697
 6199WAT     H218840   3.850   0.285   4.546
 6200WAT      O18841   7.509   3.284   5.215
 6200WAT     H118842   7.549   3.374   5.200
 6200WAT     H218843   7.415   3.293   5.246
 6201WAT      O18844   4.246   7.982   9.398
 6201WAT     H118845   4.244   8.067   9.346
 6201WAT     H218846   4.319   7.924   9.363
 6202WAT      O18847   9.580   2.607   4.316
 6202WAT     H118848   9.515   2.533   4.329
 6202WAT     H218849   9.567   2.647   4.225
 6203WAT      O18850   6.073   7.938   7.066
 6203WAT     H118851   6.062   7.995   6.985
 6203WAT     H218852   6.000   7.869   7.069
 6204WAT      O18853   2.202   3.714   0.494
 6204WAT     H118854   2.241   3.658   0.420
 6204WAT     H218855   2.202   3.810   0.467
 6205WAT      O18856   4.280   0.703   3.800
 6205WAT     H118857   4.356   0.680   3.740
 6205WAT     H218858   4.240   0.790   3.771
 6206WAT      O18859   2.349   2.305   0.926
 6206WAT     H118860   2.282   2.374   0.955
 6206WAT     H218861   2.308   2.214   0.935
 6207WAT      O18862   4.994   1.963   8.142
 6207WAT     H118863   5.013   1.953   8.240
 6207WAT     H218864   4.905   1.922   8.121
 6208WAT      O18865   5.440   7.433   3.411
 6208WAT     H118866   5.394   7.516   3.443
 6208WAT     H218867   5.515   7.457   3.350
 6209WAT      O18868   6.596   5.535   9.076
 6209WAT     H118869   6.692   5.515   9.095
 6209WAT     H218870   6.550   5.451   9.047
 6210WAT      O18871   5.614   9.774   5.218
 6210WAT     H118872   5.631   9.676   5.233
 6210WAT     H218873   5.583   9.816   5.303
 6211WAT      O18874   7.857   2.690   6.715
 6211WAT     H118875   7.881   2.759   6.782
 6211WAT     H218876   7.865   2.599   6.756
 6212WAT      O18877   1.674   1.348   7.929
 6212WAT     H118878   1.615   1.315   8.003
 6212WAT     H218879   1.667   1.287   7.851
 6213WAT      O18880   0.712   6.216   2.597
 6213WAT     H118881   0.666   6.159   2.529
 6213WAT     H218882   0.766   6.286   2.551
 6214WAT      O18883   8.092   3.790   3.148
 6214WAT     H118884   7.992   3.782   3.146
 6214WAT     H218885   8.121   3.822   3.238
 6215WAT      O18886   8.895   2.624   5.820
 6215WAT     H118887   8.950   2.609   5.902
 6215WAT     H218888   8.831   2.548   5.808
 6216WAT      O18889   3.432   3.575   8.179
 6216WAT     H118890   3.398   3.643   8.244
 6216WAT     H218891   3.401   3.599   8.087
 6217WAT      O18892   0.726   1.490   7.505
 6217WAT     H118893   0.741   1.530   7.415
 6217WAT     H218894   0.628   1.495   7.527
 6218WAT      O18895   8.031   4.255   9.217
 6218WAT     H118896   8.103   4.311   9.175
 6218WAT     H218897   7.976   4.212   9.145
 6219WAT      O18898   7.039   7.311   3.623
 6219WAT     H118899   7.034   7.274   3.530
 6219WAT     H218900   6.983   7.394   3.629
 6220WAT      O18901   4.357   3.329   0.472
 6220WAT     H118902   4.430   3.397   0.481
 6220WAT     H218903   4.315   3.336   0.382
 6221WAT      O18904   4.030   5.451   3.766
 6221WAT     H118905   4.009   5.360   3.731
 6221WAT     H218906   4.078   5.503   3.696
 6222WAT      O18907   5.920   3.187   5.112
 6222WAT     H118908   5.944   3.109   5.170
 6222WAT     H218909   5.854   3.246   5.159
 6223WAT      O18910   8.714   3.052   9.299
 6223WAT     H118911   8.638   3.074   9.238
 6223WAT     H218912   8.797   3.041   9.245
 6224WAT      O18913   6.290   8.944   6.771
 6224WAT     H118914   6.227   8.902   6.837
 6224WAT     H218915   6.260   8.925   6.678
 6225WAT      O18916   1.639   4.687   0.530
 6225WAT     H118917   1.676   4.752   0.464
 6225WAT     H218918   1.709   4.662   0.596
 6226WAT      O18919   4.243   4.546   0.266
 6226WAT     H118920   4.254   4.645   0.263
 6226WAT     H218921   4.176   4.523   0.337
 6227WAT      O18922   7.771   5.703   0.636
 6227WAT     H118923   7.714   5.685   0.556
 6227WAT     H218924   7.773   5.622   0.694
 6228WAT      O18925   0.638   3.667   5.827
 6228WAT     H118926   0.621   3.666   5.925
 6228WAT     H218927   0.716   3.727   5.808
 6229WAT      O18928   3.762   3.215   6.705
 6229WAT     H118929   3.806   3.250   6.787
 6229WAT     H218930   3.769   3.283   6.632
 6230WAT      O18931   0.809   2.777   9.815
 6230WAT     H118932   0.730   2.782   9.754
 6230WAT     H218933   0.778   2.762   9.909
 6231WAT      O18934   0.429   6.229   3.157
 6231WAT     H118935   0.472   6.144   3.186
 6231WAT     H218936   0.496   6.288   3.112
 6232WAT      O18937   6.033   1.280   7.685
 6232WAT     H118938   6.086   1.350   7.636
 6232WAT     H218939   6.028   1.198   7.629
 6233WAT      O18940   7.473   7.032   0.983
 6233WAT     H118941   7.533   7.059   0.908
 6233WAT     H218942   7.455   6.934   0.978
 6234WAT      O18943   5.941   7.238   6.912
 6234WAT     H118944   5.895   7.172   6.971
 6234WAT     H218945   5.874   7.280   6.850
 6235WAT      O18946   1.615   3.084   8.520
 6235WAT     H118947   1.552   3.075   8.442
 6235WAT     H218948   1.577   3.148   8.586
 6236WAT      O18949   2.233   2.175   8.895
 6236WAT     H118950   2.327   2.204   8.910
 6236WAT     H218951   2.204   2.114   8.969
 6237WAT      O18952   3.026   1.445   9.559
 6237WAT     H118953   3.073   1.532   9.575
 6237WAT     H218954   3.063   1.376   9.622
 6238WAT      O18955   4.050   4.532   0.486
 6238WAT     H118956   3.962   4.563   0.448
 6238WAT     H218957   4.045   4.435   0.508
 6239WAT      O18958   2.313   0.797   9.476
 6239WAT     H118959   2.294   0.861   9.550
 6239WAT     H218960   2.252   0.816   9.399
 6240WAT      O18961   0.251   8.337   3.052
 6240WAT     H118962   0.296   8.392   3.122
 6240WAT     H218963   0.270   8.240   3.069
 6241WAT      O18964   6.790   9.754   6.584
 6241WAT     H118965   6.889   9.755   6.600
 6241WAT     H218966   6.749   9.678   6.635
 6242WAT      O18967   7.131   9.216   3.592
 6242WAT     H118968   7.174   9.127   3.607
 6242WAT     H218969   7.062   9.232   3.663
 6243WAT      O18970   0.102   2.265   3.588
 6243WAT     H118971   0.189   2.281   3.635
 6243WAT     H218972   0.079   2.167   3.592
 6244WAT      O18973   3.525   8.186   0.798
 6244WAT     H118974   3.611   8.140   0.776
 6244WAT     H218975   3.521   8.204   0.897
 6245WAT      O18976   0.443   2.235   1.018
 6245WAT     H118977   0.510   2.295   0.977
 6245WAT     H218978   0.360   2.287   1.040
 6246WAT      O18979   3.375   9.294   5.060
 6246WAT     H118980   3.377   9.394   5.071
 6246WAT     H218981   3.280   9.263   5.064
 6247WAT      O18982   4.859   1.516   8.931
 6247WAT     H118983   4.932   1.517   8.862
 6247WAT     H218984   4.806   1.432   8.921
 6248WAT      O18985   2.552   1.089   2.217
 6248WAT     H118986   2.585   1.037   2.295
 6248WAT     H218987   2.616   1.162   2.196
 6249WAT      O18988   7.118   3.100   2.647
 6249WAT     H118989   7.043   3.155   2.682
 6249WAT     H218990   7.082   3.022   2.596
 6250WAT      O18991   8.705   9.238   0.875
 6250WAT     H118992   8.627   9.222   0.935
 6250WAT     H218993   8.682   9.213   0.781
 6251WAT      O18994   6.112   6.069   0.766
 6251WAT     H118995   6.055   6.073   0.849
 6251WAT     H218996   6.199   6.025   0.788
 6252WAT      O18997   3.357   2.086   7.175
 6252WAT     H118998   3.455   2.071   7.164
 6252WAT     H218999   3.324   2.144   7.100
 6253WAT      O19000   3.530   4.344   1.905
 6253WAT     H119001   3.540   4.246   1.919
 6253WAT     H219002   3.614   4.381   1.864
 6254WAT      O19003   3.986   3.264   0.963
 6254WAT     H119004   4.058   3.325   0.930
 6254WAT     H219005   4.019   3.216   1.045
 6255WAT      O19006   9.121   6.563   2.971
 6255WAT     H119007   9.167   6.636   3.021
 6255WAT     H219008   9.163   6.552   2.881
 6256WAT      O19009   9.353   9.380   0.500
 6256WAT     H119010   9.321   9.355   0.592
 6256WAT     H219011   9.448   9.353   0.489
 6257WAT      O19012   2.532   2.697   1.083
 6257WAT     H119013   2.536   2.778   1.025
 6257WAT     H219014   2.444   2.693   1.130
 6258WAT      O19015   6.258   3.981   2.908
 6258WAT     H119016   6.253   4.081   2.910
 6258WAT     H219017   6.245   3.945   3.000
 6259WAT      O19018   6.519   0.870   7.476
 6259WAT     H119019   6.555   0.791   7.526
 6259WAT     H219020   6.424   0.886   7.502
 6260WAT      O19021   1.564   1.805   4.596
 6260WAT     H119022   1.620   1.809   4.679
 6260WAT     H219023   1.620   1.773   4.520
 6261WAT      O19024   7.898   2.042   9.797
 6261WAT     H119025   7.801   2.066   9.792
 6261WAT     H219026   7.909   1.958   9.850
 6262WAT      O19027   6.665   9.075   1.602
 6262WAT     H119028   6.569   9.048   1.613
 6262WAT     H219029   6.723   8.993   1.603
 6263WAT      O19030   7.509   3.637   5.392
 6263WAT     H119031   7.498   3.680   5.303
 6263WAT     H219032   7.532   3.706   5.461
 6264WAT      O19033   9.059   8.742   0.910
 6264WAT     H119034   9.013   8.688   0.839
 6264WAT     H219035   9.119   8.809   0.868
 6265WAT      O19036   9.688   8.258   1.061
 6265WAT     H119037   9.608   8.216   1.103
 6265WAT     H219038   9.691   8.355   1.087
 6266WAT      O19039   7.934   8.819   0.827
 6266WAT     H119040   7.980   8.759   0.762
 6266WAT     H219041   7.878   8.885   0.778
 6267WAT      O19042   4.709   5.228   1.969
 6267WAT     H119043   4.645   5.304   1.966
 6267WAT     H219044   4.681   5.164   2.041
 6268WAT      O19045   6.059   0.390   2.997
 6268WAT     H119046   5.999   0.328   2.947
 6268WAT     H219047   6.150   0.350   3.004
 6269WAT      O19048   0.232   7.439   7.430
 6269WAT     H119049   0.170   7.368   7.396
 6269WAT     H219050   0.193   7.481   7.512
 6270WAT      O19051   7.436   5.259   6.842
 6270WAT     H119052   7.516   5.205   6.818
 6270WAT     H219053   7.415   5.323   6.769
 6271WAT      O19054   0.603   4.123   5.330
 6271WAT     H119055   0.571   4.103   5.423
 6271WAT     H219056   0.700   4.100   5.323
 6272WAT      O19057   1.054   7.784   0.679
 6272WAT     H119058   1.112   7.857   0.714
 6272WAT     H219059   0.963   7.792   0.720
 6273WAT      O19060   1.775   8.975   5.233
 6273WAT     H119061   1.856   8.970   5.175
 6273WAT     H219062   1.777   8.900   5.300
 6274WAT      O19063   5.141   4.859   9.372
 6274WAT     H119064   5.087   4.802   9.434
 6274WAT     H219065   5.086   4.882   9.293
 6275WAT      O19066   9.029   7.446   5.704
 6275WAT     H119067   8.952   7.509   5.702
 6275WAT     H219068   8.994   7.352   5.706
 6276WAT      O19069   7.999   1.963   5.504
 6276WAT     H119070   8.065   2.038   5.515
 6276WAT     H219071   8.022   1.890   5.568
 6277WAT      O19072   4.502   4.927   3.035
 6277WAT     H119073   4.598   4.898   3.032
 6277WAT     H219074   4.475   4.961   2.945
 6278WAT      O19075   4.607   2.140   9.186
 6278WAT     H119076   4.587   2.056   9.137
 6278WAT     H219077   4.580   2.130   9.282
 6279WAT      O19078   4.145   2.666   7.939
 6279WAT     H119079   4.149   2.630   8.033
 6279WAT     H219080   4.236   2.699   7.912
 6280WAT      O19081   1.899   5.608   2.527
 6280WAT     H119082   1.854   5.665   2.457
 6280WAT     H219083   1.835   5.539   2.560
 6281WAT      O19084   0.422   1.079   7.943
 6281WAT     H119085   0.447   0.982   7.940
 6281WAT     H219086   0.327   1.090   7.914
 6282WAT      O19087   1.828   1.834   1.072
 6282WAT     H119088   1.787   1.917   1.034
 6282WAT     H219089   1.770   1.756   1.051
 6283WAT      O19090   2.435   9.768   0.138
 6283WAT     H119091   2.385   9.760   0.052
 6283WAT     H219092   2.487   9.853   0.140
 6284WAT      O19093   4.889   8.927   6.008
 6284WAT     H119094   4.853   9.018   5.989
 6284WAT     H219095   4.981   8.934   6.047
 6285WAT      O19096   1.254   4.374   2.834
 6285WAT     H119097   1.200   4.360   2.917
 6285WAT     H219098   1.244   4.294   2.774
 6286WAT      O19099   0.197   9.067   2.680
 6286WAT     H119100   0.124   9.079   2.613
 6286WAT     H219101   0.158   9.060   2.771
 6287WAT      O19102   1.429   0.628   5.480
 6287WAT     H119103   1.346   0.672   5.515
 6287WAT     H219104   1.486   0.697   5.434
 6288WAT      O19105   0.019   3.096   9.333
 6288WAT     H119106   0.105   3.095   9.384
 6288WAT     H219107  -0.027   3.008   9.344
 6289WAT      O19108   0.510   5.395   1.092
 6289WAT     H119109   0.486   5.309   1.045
 6289WAT     H219110   0.517   5.468   1.025
 6290WAT      O19111   0.935   2.174   3.413
 6290WAT     H119112   0.967   2.092   3.460
 6290WAT     H219113   0.974   2.255   3.457
 6291WAT      O19114   7.052   7.851   1.087
 6291WAT     H119115   6.970   7.858   1.030
 6291WAT     H219116   7.031   7.880   1.180
 6292WAT      O19117   7.120   7.910   5.238
 6292WAT     H119118   7.173   7.978   5.188
 6292WAT     H219119   7.182   7.857   5.297
 6293WAT      O19120   9.784   2.533   6.356
 6293WAT     H119121   9.765   2.524   6.259
 6293WAT     H219122   9.699   2.528   6.408
 6294WAT      O19123   5.753   9.253   3.296
 6294WAT     H119124   5.678   9.261   3.229
 6294WAT     H219125   5.832   9.211   3.252
 6295WAT      O19126   9.630   6.940   4.286
 6295WAT     H119127   9.615   6.879   4.364
 6295WAT     H219128   9.665   7.028   4.319
 6296WAT      O19129   0.338   6.985   1.636
 6296WAT     H119130   0.316   7.059   1.572
 6296WAT     H219131   0.292   6.901   1.608
 6297WAT      O19132   7.323   1.951   5.570
 6297WAT     H119133   7.241   1.904   5.539
 6297WAT     H219134   7.300   2.046   5.594
 6298WAT      O19135   2.813   0.391   4.251
 6298WAT     H119136   2.911   0.411   4.245
 6298WAT     H219137   2.788   0.327   4.178
 6299WAT      O19138   7.066   6.753   7.196
 6299WAT     H119139   6.970   6.728   7.201
 6299WAT     H219140   7.116   6.685   7.142
 6300WAT      O19141   7.356   8.126   6.326
 6300WAT     H119142   7.422   8.195   6.296
 6300WAT     H219143   7.377   8.098   6.419
 6301WAT      O19144   8.403   3.790   8.267
 6301WAT     H119145   8.365   3.709   8.221
 6301WAT     H219146   8.389   3.870   8.210
 6302WAT      O19147   5.529   5.475   8.811
 6302WAT     H119148   5.511   5.549   8.746
 6302WAT     H219149   5.444   5.425   8.829
 6303WAT      O19150   1.420   2.463   2.146
 6303WAT     H119151   1.442   2.518   2.226
 6303WAT     H219152   1.496   2.402   2.126
 6304WAT      O19153   5.590   8.587   0.439
 6304WAT     H119154   5.541   8.582   0.526
 6304WAT     H219155   5.581   8.679   0.400
 6305WAT      O19156   6.332   8.933   3.362
 6305WAT     H119157   6.404   8.888   3.309
 6305WAT     H219158   6.297   8.870   3.431
 6306WAT      O19159   6.213   8.134   1.814
 6306WAT     H119160   6.298   8.164   1.858
 6306WAT     H219161   6.135   8.176   1.860
 6307WAT      O19162   3.624   0.979   8.688
 6307WAT     H119163   3.552   0.934   8.741
 6307WAT     H219164   3.608   0.962   8.590
 6308WAT      O19165   2.118   4.239   8.626
 6308WAT     H119166   2.217   4.227   8.615
 6308WAT     H219167   2.088   4.190   8.708
 6309WAT      O19168   3.712   0.718   0.082
 6309WAT     H119169   3.663   0.768   0.154
 6309WAT     H219170   3.783   0.661   0.124
 6310WAT      O19171   3.417   2.942   4.481
 6310WAT     H119172   3.400   3.041   4.485
 6310WAT     H219173   3.432   2.915   4.386
 6311WAT      O19174   1.821   8.111   8.315
 6311WAT     H119175   1.893   8.176   8.339
 6311WAT     H219176   1.850   8.056   8.237
 6312WAT      O19177   6.448   1.965   6.337
 6312WAT     H119178   6.396   1.952   6.422
 6312WAT     H219179   6.386   1.990   6.263
 6313WAT      O19180   5.908   3.716   5.708
 6313WAT     H119181   5.918   3.808   5.671
 6313WAT     H219182   5.924   3.649   5.636
 6314WAT      O19183   6.982   3.247   6.843
 6314WAT     H119184   7.034   3.181   6.897
 6314WAT     H219185   7.001   3.234   6.746
 6315WAT      O19186   5.897   9.572   4.977
 6315WAT     H119187   5.898   9.669   5.000
 6315WAT     H219188   5.972   9.552   4.914
 6316WAT      O19189   2.877   4.481   6.345
 6316WAT     H119190   2.923   4.485   6.434
 6316WAT     H219191   2.808   4.409   6.347
 6317WAT      O19192   7.791   8.744   8.138
 6317WAT     H119193   7.693   8.764   8.130
 6317WAT     H219194   7.807   8.649   8.112
 6318WAT      O19195   9.512   9.563   1.084
 6318WAT     H119196   9.557   9.606   1.163
 6318WAT     H219197   9.419   9.597   1.076
 6319WAT      O19198   8.226   0.018   7.419
 6319WAT     H119199   8.179  -0.055   7.370
 6319WAT     H219200   8.319  -0.012   7.442
 6320WAT      O19201   7.326   1.561   5.826
 6320WAT     H119202   7.268   1.637   5.799
 6320WAT     H219203   7.268   1.485   5.858
 6321WAT      O19204   3.109   0.148   3.187
 6321WAT     H119205   3.105   0.174   3.091
 6321WAT     H219206   3.093   0.050   3.196
 6322WAT      O19207   5.527   4.084   0.235
 6322WAT     H119208   5.493   4.061   0.144
 6322WAT     H219209   5.469   4.041   0.304
 6323WAT      O19210   5.450   3.735   4.007
 6323WAT     H119211   5.522   3.701   4.068
 6323WAT     H219212   5.474   3.827   3.976
 6324WAT      O19213   9.006   3.852   7.646
 6324WAT     H119214   9.096   3.812   7.627
 6324WAT     H219215   8.943   3.779   7.673
 6325WAT      O19216   5.108   7.523   7.174
 6325WAT     H119217   5.175   7.456   7.141
 6325WAT     H219218   5.150   7.577   7.247
 6326WAT      O19219   9.311   6.679   8.457
 6326WAT     H119220   9.270   6.660   8.546
 6326WAT     H219221   9.250   6.645   8.385
 6327WAT      O19222   2.246   2.687   7.576
 6327WAT     H119223   2.307   2.679   7.497
 6327WAT     H219224   2.300   2.710   7.657
 6328WAT      O19225   7.836   1.661   3.595
 6328WAT     H119226   7.745   1.668   3.636
 6328WAT     H219227   7.906   1.677   3.665
 6329WAT      O19228   1.168   1.690   1.938
 6329WAT     H119229   1.160   1.659   2.032
 6329WAT     H219230   1.128   1.782   1.929
 6330WAT      O19231   5.335   0.148   5.784
 6330WAT     H119232   5.435   0.151   5.790
 6330WAT     H219233   5.307   0.064   5.738
 6331WAT      O19234   5.420   7.268   4.663
 6331WAT     H119235   5.444   7.306   4.573
 6331WAT     H219236   5.463   7.178   4.673
 6332WAT      O19237   1.416   2.637   8.505
 6332WAT     H119238   1.434   2.644   8.407
 6332WAT     H219239   1.462   2.711   8.554
 6333WAT      O19240   0.881   6.532   9.376
 6333WAT     H119241   0.847   6.448   9.333
 6333WAT     H219242   0.854   6.534   9.472
 6334WAT      O19243   7.790   1.401   1.578
 6334WAT     H119244   7.768   1.381   1.673
 6334WAT     H219245   7.706   1.427   1.530
 6335WAT      O19246   0.078   4.472   2.214
 6335WAT     H119247   0.032   4.408   2.276
 6335WAT     H219248   0.177   4.463   2.225
 6336WAT      O19249   2.041   1.592   4.401
 6336WAT     H119250   2.073   1.609   4.307
 6336WAT     H219251   1.941   1.590   4.402
 6337WAT      O19252   9.104   4.167   3.107
 6337WAT     H119253   9.169   4.218   3.051
 6337WAT     H219254   9.123   4.182   3.204
 6338WAT      O19255   2.064   3.346   8.906
 6338WAT     H119256   2.144   3.350   8.847
 6338WAT     H219257   2.048   3.252   8.934
 6339WAT      O19258   9.262   4.624   3.293
 6339WAT     H119259   9.267   4.720   3.320
 6339WAT     H219260   9.167   4.597   3.282
 6340WAT      O19261   4.007   6.906   3.768
 6340WAT     H119262   4.075   6.967   3.807
 6340WAT     H219263   3.988   6.932   3.674
 6341WAT      O19264   3.251   5.734   2.990
 6341WAT     H119265   3.250   5.671   3.067
 6341WAT     H219266   3.229   5.683   2.906
 6342WAT      O19267   6.440   5.953   4.950
 6342WAT     H119268   6.448   6.008   5.033
 6342WAT     H219269   6.487   5.866   4.963
 6343WAT      O19270   5.444   4.897   9.362
 6343WAT     H119271   5.478   4.814   9.317
 6343WAT     H219272   5.344   4.897   9.361
 6344WAT      O19273   2.886   8.121   7.251
 6344WAT     H119274   2.793   8.121   7.288
 6344WAT     H219275   2.889   8.179   7.169
 6345WAT      O19276   8.325   6.418   3.904
 6345WAT     H119277   8.403   6.470   3.939
 6345WAT     H219278   8.246   6.479   3.892
 6346WAT      O19279   7.496   4.841   8.574
 6346WAT     H119280   7.457   4.901   8.505
 6346WAT     H219281   7.514   4.751   8.533
 6347WAT      O19282   3.344   8.950   2.602
 6347WAT     H119283   3.250   8.917   2.601
 6347WAT     H219284   3.377   8.955   2.697
 6348WAT      O19285   1.450   9.819   6.529
 6348WAT     H119286   1.538   9.817   6.575
 6348WAT     H219287   1.382   9.862   6.589
 6349WAT      O19288   2.578   5.660   8.156
 6349WAT     H119289   2.536   5.627   8.071
 6349WAT     H219290   2.675   5.679   8.140
 6350WAT      O19291   7.131   9.589   0.476
 6350WAT     H119292   7.110   9.578   0.573
 6350WAT     H219293   7.129   9.500   0.431
 6351WAT      O19294   0.790   8.081   8.106
 6351WAT     H119295   0.763   8.132   8.188
 6351WAT     H219296   0.855   8.136   8.052
 6352WAT      O19297   1.953   1.698   2.108
 6352WAT     H119298   1.940   1.702   2.009
 6352WAT     H219299   1.872   1.733   2.154
 6353WAT      O19300   1.932   3.686   1.926
 6353WAT     H119301   1.979   3.767   1.961
 6353WAT     H219302   1.899   3.705   1.833
 6354WAT      O19303   7.371   2.534   9.702
 6354WAT     H119304   7.334   2.594   9.773
 6354WAT     H219305   7.448   2.482   9.740
 6355WAT      O19306   7.761   6.278   5.506
 6355WAT     H119307   7.690   6.290   5.575
 6355WAT     H219308   7.742   6.338   5.428
 6356WAT      O19309   1.637   9.721   5.495
 6356WAT     H119310   1.659   9.643   5.437
 6356WAT     H219311   1.627   9.691   5.590
 6357WAT      O19312   1.141   6.085   8.179
 6357WAT     H119313   1.221   6.068   8.236
 6357WAT     H219314   1.098   5.998   8.154
 6358WAT      O19315   5.589   3.815   6.477
 6358WAT     H119316   5.637   3.733   6.446
 6358WAT     H219317   5.600   3.888   6.410
 6359WAT      O19318   1.531   1.051   1.518
 6359WAT     H119319   1.465   1.123   1.540
 6359WAT     H219320   1.621   1.076   1.556
 6360WAT      O19321   9.801   4.914   6.000
 6360WAT     H119322   9.738   4.878   6.068
 6360WAT     H219323   9.843   4.997   6.034
 6361WAT      O19324   3.804   7.797   2.639
 6361WAT     H119325   3.709   7.768   2.631
 6361WAT     H219326   3.861   7.747   2.574
 6362WAT      O19327   8.137   9.711   7.726
 6362WAT     H119328   8.173   9.782   7.787
 6362WAT     H219329   8.213   9.667   7.678
 6363WAT      O19330   4.994   2.084   0.058
 6363WAT     H119331   5.071   2.020   0.065
 6363WAT     H219332   5.028   2.173   0.027
 6364WAT      O19333   5.514   6.231   4.485
 6364WAT     H119334   5.613   6.219   4.483
 6364WAT     H219335   5.471   6.168   4.421
 6365WAT      O19336   6.826   6.323   6.514
 6365WAT     H119337   6.814   6.232   6.552
 6365WAT     H219338   6.768   6.388   6.563
 6366WAT      O19339   4.020   9.366   6.081
 6366WAT     H119340   4.111   9.398   6.105
 6366WAT     H219341   4.012   9.268   6.096
 6367WAT      O19342   5.701   4.841   5.474
 6367WAT     H119343   5.732   4.860   5.380
 6367WAT     H219344   5.766   4.780   5.519
 6368WAT      O19345   1.613   0.704   2.247
 6368WAT     H119346   1.645   0.799   2.255
 6368WAT     H219347   1.608   0.664   2.338
 6369WAT      O19348   5.400   0.296   0.226
 6369WAT     H119349   5.454   0.380   0.230
 6369WAT     H219350   5.343   0.298   0.143
 6370WAT      O19351   0.898   3.938   2.466
 6370WAT     H119352   0.980   3.902   2.511
 6370WAT     H219353   0.820   3.930   2.528
 6371WAT      O19354   6.688   7.647   0.970
 6371WAT     H119355   6.722   7.739   0.992
 6371WAT     H219356   6.733   7.614   0.887
 6372WAT      O19357   0.508   8.118   3.218
 6372WAT     H119358   0.532   8.074   3.305
 6372WAT     H219359   0.409   8.121   3.208
 6373WAT      O19360   7.006   6.078   2.925
 6373WAT     H119361   6.928   6.122   2.881
 6373WAT     H219362   7.041   6.006   2.865
 6374WAT      O19363   4.405   3.566   6.407
 6374WAT     H119364   4.356   3.481   6.390
 6374WAT     H219365   4.441   3.602   6.321
 6375WAT      O19366   7.757   9.153   4.432
 6375WAT     H119367   7.717   9.110   4.513
 6375WAT     H219368   7.685   9.193   4.377
 6376WAT      O19369   6.483   2.782   3.550
 6376WAT     H119370   6.534   2.802   3.466
 6376WAT     H219371   6.548   2.756   3.622
 6377WAT      O19372   4.783   0.920   1.328
 6377WAT     H119373   4.757   0.993   1.390
 6377WAT     H219374   4.734   0.836   1.353
 6378WAT      O19375   0.687   0.358   0.688
 6378WAT     H119376   0.704   0.304   0.605
 6378WAT     H219377   0.717   0.306   0.768
 6379WAT      O19378   9.522   7.814   1.884
 6379WAT     H119379   9.544   7.824   1.981
 6379WAT     H219380   9.506   7.717   1.863
 6380WAT      O19381   3.094   6.212   8.585
 6380WAT     H119382   3.038   6.152   8.528
 6380WAT     H219383   3.118   6.294   8.533
 6381WAT      O19384   3.434   8.883   8.824
 6381WAT     H119385   3.453   8.800   8.877
 6381WAT     H219386   3.510   8.947   8.834
 6382WAT      O19387   5.652   0.634   3.393
 6382WAT     H119388   5.658   0.602   3.298
 6382WAT     H219389   5.743   0.660   3.425
 6383WAT      O19390   8.412   8.179   9.134
 6383WAT     H119391   8.442   8.179   9.039
 6383WAT     H219392   8.484   8.218   9.192
 6384WAT      O19393   4.254   0.910   4.853
 6384WAT     H119394   4.214   0.818   4.850
 6384WAT     H219395   4.334   0.909   4.913
 6385WAT      O19396   2.865   7.161   5.143
 6385WAT     H119397   2.948   7.217   5.141
 6385WAT     H219398   2.789   7.216   5.179
 6386WAT      O19399   8.868   9.065   2.650
 6386WAT     H119400   8.805   9.014   2.591
 6386WAT     H219401   8.956   9.017   2.655
 6387WAT      O19402   3.647   1.939   0.688
 6387WAT     H119403   3.655   1.876   0.611
 6387WAT     H219404   3.691   2.026   0.665
 6388WAT      O19405   0.825   2.507   1.669
 6388WAT     H119406   0.831   2.607   1.670
 6388WAT     H219407   0.733   2.480   1.639
 6389WAT      O19408   5.066   3.756   5.989
 6389WAT     H119409   5.051   3.827   6.058
 6389WAT     H219410   5.019   3.672   6.017
 6390WAT      O19411   5.836   9.182   3.594
 6390WAT     H119412   5.800   9.254   3.653
 6390WAT     H219413   5.812   9.201   3.499
 6391WAT      O19414   5.583   0.754   6.742
 6391WAT     H119415   5.600   0.841   6.697
 6391WAT     H219416   5.656   0.735   6.808
 6392WAT      O19417   5.214   0.307   9.365
 6392WAT     H119418   5.160   0.369   9.422
 6392WAT     H219419   5.177   0.214   9.372
 6393WAT      O19420   7.558   2.247   2.950
 6393WAT     H119421   7.596   2.164   2.910
 6393WAT     H219422   7.458   2.239   2.954
 6394WAT      O19423   6.294   5.248   7.603
 6394WAT     H119424   6.329   5.311   7.672
 6394WAT     H219425   6.341   5.161   7.611
 6395WAT      O19426   5.386   1.774   2.088
 6395WAT     H119427   5.320   1.780   2.162
 6395WAT     H219428   5.415   1.679   2.077
 6396WAT      O19429   1.012   5.931   3.649
 6396WAT     H119430   1.035   6.024   3.677
 6396WAT     H219431   0.937   5.897   3.707
 6397WAT      O19432   6.850   5.678   1.674
 6397WAT     H119433   6.848   5.590   1.627
 6397WAT     H219434   6.938   5.722   1.657
 6398WAT      O19435   5.678   3.975   5.959
 6398WAT     H119436   5.750   3.908   5.979
 6398WAT     H219437   5.673   3.990   5.861
 6399WAT      O19438   9.571   9.550   4.814
 6399WAT     H119439   9.579   9.645   4.845
 6399WAT     H219440   9.545   9.492   4.891
 6400WAT      O19441   5.369   3.429   9.638
 6400WAT     H119442   5.453   3.475   9.608
 6400WAT     H219443   5.309   3.415   9.560
 6401WAT      O19444   5.667   5.841   2.656
 6401WAT     H119445   5.601   5.824   2.582
 6401WAT     H219446   5.644   5.784   2.735
 6402WAT      O19447   8.257   5.065   5.455
 6402WAT     H119448   8.202   5.138   5.416
 6402WAT     H219449   8.225   4.977   5.420
 6403WAT      O19450   1.947   4.615   3.405
 6403WAT     H119451   2.019   4.606   3.474
 6403WAT     H219452   1.899   4.701   3.418
 6404WAT      O19453   7.830   1.228   0.131
 6404WAT     H119454   7.828   1.129   0.123
 6404WAT     H219455   7.813   1.255   0.225
 6405WAT      O19456   3.483   6.333   8.647
 6405WAT     H119457   3.533   6.246   8.647
 6405WAT     H219458   3.449   6.352   8.555
 6406WAT      O19459   0.098   7.704   8.617
 6406WAT     H119460   0.103   7.769   8.541
 6406WAT     H219461   0.010   7.657   8.614
 6407WAT      O19462   8.269   8.367   1.085
 6407WAT     H119463   8.364   8.377   1.054
 6407WAT     H219464   8.213   8.335   1.009
 6408WAT      O19465   3.982   9.065   6.054
 6408WAT     H119466   3.963   9.059   5.956
 6408WAT     H219467   3.898   9.091   6.102
 6409WAT      O19468   7.294   3.032   9.509
 6409WAT     H119469   7.342   3.064   9.427
 6409WAT     H219470   7.301   3.101   9.581
 6410WAT      O19471   7.757   2.396   0.939
 6410WAT     H119472   7.743   2.297   0.948
 6410WAT     H219473   7.831   2.413   0.874
 6411WAT      O19474   1.890   8.243   3.553
 6411WAT     H119475   1.881   8.146   3.531
 6411WAT     H219476   1.931   8.253   3.643
 6412WAT      O19477   6.210   4.714   5.232
 6412WAT     H119478   6.210   4.734   5.330
 6412WAT     H219479   6.121   4.676   5.206
 6413WAT      O19480   8.675   1.124   3.310
 6413WAT     H119481   8.768   1.149   3.334
 6413WAT     H219482   8.613   1.201   3.328
 6414WAT      O19483   3.684   8.070   5.364
 6414WAT     H119484   3.706   8.073   5.461
 6414WAT     H219485   3.596   8.025   5.351
 6415WAT      O19486   5.198   8.716   5.587
 6415WAT     H119487   5.192   8.693   5.684
 6415WAT     H219488   5.121   8.673   5.538
 6416WAT      O19489   7.178   8.680   0.152
 6416WAT     H119490   7.173   8.640   0.243
 6416WAT     H219491   7.270   8.715   0.135
 6417WAT      O19492   5.381   9.642   9.419
 6417WAT     H119493   5.388   9.669   9.515
 6417WAT     H219494   5.318   9.564   9.411
 6418WAT      O19495   1.553   7.702   7.730
 6418WAT     H119496   1.608   7.621   7.712
 6418WAT     H219497   1.491   7.684   7.807
 6419WAT      O19498   7.502   4.580   9.657
 6419WAT     H119499   7.558   4.664   9.655
 6419WAT     H219500   7.446   4.575   9.575
 6420WAT      O19501   9.501   4.205   2.641
 6420WAT     H119502   9.405   4.177   2.653
 6420WAT     H219503   9.556   4.167   2.715
 6421WAT      O19504   9.134   6.918   6.508
 6421WAT     H119505   9.232   6.923   6.490
 6421WAT     H219506   9.093   6.849   6.448
 6422WAT      O19507   7.318   7.431   0.901
 6422WAT     H119508   7.411   7.417   0.933
 6422WAT     H219509   7.261   7.462   0.977
 6423WAT      O19510   2.463   7.656   0.909
 6423WAT     H119511   2.420   7.621   0.992
 6423WAT     H219512   2.455   7.755   0.906
 6424WAT      O19513   4.362   3.253   7.811
 6424WAT     H119514   4.401   3.293   7.894
 6424WAT     H219515   4.262   3.259   7.815
 6425WAT      O19516   7.541   8.257   3.282
 6425WAT     H119517   7.572   8.306   3.364
 6425WAT     H219518   7.610   8.190   3.255
 6426WAT      O19519   7.598   0.594   7.189
 6426WAT     H119520   7.644   0.637   7.110
 6426WAT     H219521   7.667   0.549   7.246
 6427WAT      O19522   7.266   8.288   4.410
 6427WAT     H119523   7.246   8.377   4.453
 6427WAT     H219524   7.252   8.215   4.477
 6428WAT      O19525   0.321   5.273   8.142
 6428WAT     H119526   0.421   5.273   8.135
 6428WAT     H219527   0.294   5.314   8.229
 6429WAT      O19528   2.425   8.652   4.407
 6429WAT     H119529   2.336   8.671   4.366
 6429WAT     H219530   2.497   8.685   4.346
 6430WAT      O19531   9.563   1.661   2.919
 6430WAT     H119532   9.593   1.701   3.005
 6430WAT     H219533   9.464   1.674   2.909
 6431WAT      O19534   1.925   2.741   8.233
 6431WAT     H119535   1.837   2.787   8.244
 6431WAT     H219536   1.999   2.801   8.263
 6432WAT      O19537   5.692   5.850   1.160
 6432WAT     H119538   5.739   5.870   1.074
 6432WAT     H219539   5.700   5.928   1.222
 6433WAT      O19540   5.409   1.582   8.271
 6433WAT     H119541   5.343   1.560   8.200
 6433WAT     H219542   5.368   1.647   8.335
 6434WAT      O19543   9.769   2.765   4.049
 6434WAT     H119544   9.801   2.750   4.143
 6434WAT     H219545   9.847   2.764   3.987
 6435WAT      O19546   9.796   9.013   0.093
 6435WAT     H119547   9.884   9.038   0.133
 6435WAT     H219548   9.754   9.094   0.052
 6436WAT      O19549   0.660   4.383   6.348
 6436WAT     H119550   0.634   4.479   6.358
 6436WAT     H219551   0.591   4.326   6.393
 6437WAT      O19552   8.527   9.399   2.273
 6437WAT     H119553   8.569   9.484   2.306
 6437WAT     H219554   8.575   9.368   2.191
 6438WAT      O19555   3.844   7.157   8.888
 6438WAT     H119556   3.865   7.134   8.793
 6438WAT     H219557   3.924   7.200   8.930
 6439WAT      O19558   0.820   2.901   2.771
 6439WAT     H119559   0.899   2.946   2.813
 6439WAT     H219560   0.852   2.828   2.710
 6440WAT      O19561   0.012   5.599   3.942
 6440WAT     H119562  -0.075   5.588   3.991
 6440WAT     H219563   0.086   5.616   4.007
 6441WAT      O19564   2.599   6.351   1.615
 6441WAT     H119565   2.516   6.379   1.566
 6441WAT     H219566   2.588   6.258   1.649
 6442WAT      O19567   1.190   1.360   3.490
 6442WAT     H119568   1.221   1.449   3.524
 6442WAT     H219569   1.091   1.354   3.499
 6443WAT      O19570   0.308   2.237   8.029
 6443WAT     H119571   0.375   2.311   8.040
 6443WAT     H219572   0.308   2.181   8.111
 6444WAT      O19573   2.030   0.919   9.835
 6444WAT     H119574   2.071   0.934   9.925
 6444WAT     H219575   2.096   0.944   9.764
 6445WAT      O19576   8.586   5.922   4.406
 6445WAT     H119577   8.624   6.000   4.455
 6445WAT     H219578   8.624   5.837   4.445
 6446WAT      O19579   9.441   2.883   6.647
 6446WAT     H119580   9.369   2.818   6.671
 6446WAT     H219581   9.455   2.881   6.548
 6447WAT      O19582   1.408   6.066   4.776
 6447WAT     H119583   1.339   6.019   4.832
 6447WAT     H219584   1.363   6.109   4.697
 6448WAT      O19585   1.606   7.812   4.529
 6448WAT     H119586   1.644   7.904   4.543
 6448WAT     H219587   1.510   7.820   4.502
 6449WAT      O19588   1.629   8.721   1.777
 6449WAT     H119589   1.566   8.661   1.729
 6449WAT     H219590   1.644   8.687   1.870
 6450WAT      O19591   6.286   3.621   3.681
 6450WAT     H119592   6.346   3.694   3.648
 6450WAT     H219593   6.234   3.653   3.761
 6451WAT      O19594   5.624   0.259   7.420
 6451WAT     H119595   5.614   0.338   7.480
 6451WAT     H219596   5.569   0.272   7.337
 6452WAT      O19597   2.151   3.333   6.113
 6452WAT     H119598   2.101   3.283   6.043
 6452WAT     H219599   2.108   3.423   6.126
 6453WAT      O19600   2.426   4.161   9.320
 6453WAT     H119601   2.509   4.107   9.338
 6453WAT     H219602   2.361   4.105   9.268
 6454WAT      O19603   8.221   5.911   3.852
 6454WAT     H119604   8.317   5.922   3.878
 6454WAT     H219605   8.181   6.001   3.836
 6455WAT      O19606   2.751   3.393   0.001
 6455WAT     H119607   2.700   3.455   0.061
 6455WAT     H219608   2.835   3.439  -0.031
 6456WAT      O19609   8.801   3.542   9.291
 6456WAT     H119610   8.723   3.503   9.340
 6456WAT     H219611   8.790   3.529   9.193
 6457WAT      O19612   3.626   6.768   3.516
 6457WAT     H119613   3.686   6.847   3.511
 6457WAT     H219614   3.538   6.790   3.474
 6458WAT      O19615   9.566   6.071   9.389
 6458WAT     H119616   9.645   6.127   9.414
 6458WAT     H219617   9.553   6.000   9.458
 6459WAT      O19618   3.353   1.159   7.014
 6459WAT     H119619   3.369   1.096   6.937
 6459WAT     H219620   3.264   1.139   7.055
 6460WAT      O19621   9.133   5.091   4.382
 6460WAT     H119622   9.042   5.080   4.340
 6460WAT     H219623   9.126   5.075   4.480
 6461WAT      O19624   7.844   7.885   7.488
 6461WAT     H119625   7.776   7.915   7.421
 6461WAT     H219626   7.814   7.910   7.580
 6462WAT      O19627   2.510   7.713   9.675
 6462WAT     H119628   2.478   7.808   9.670
 6462WAT     H219629   2.608   7.711   9.692
 6463WAT      O19630   8.867   6.467   0.236
 6463WAT     H119631   8.934   6.403   0.198
 6463WAT     H219632   8.782   6.418   0.256
 6464WAT      O19633   3.820   4.949   8.219
 6464WAT     H119634   3.861   4.933   8.309
 6464WAT     H219635   3.743   5.012   8.228
 6465WAT      O19636   4.871   2.749   4.465
 6465WAT     H119637   4.823   2.667   4.498
 6465WAT     H219638   4.967   2.727   4.450
 6466WAT      O19639   8.671   5.068   4.612
 6466WAT     H119640   8.720   4.998   4.664
 6466WAT     H219641   8.735   5.136   4.578
 6467WAT      O19642   1.077   1.812   2.463
 6467WAT     H119643   1.116   1.878   2.527
 6467WAT     H219644   0.978   1.823   2.460
 6468WAT      O19645   9.072   8.666   6.066
 6468WAT     H119646   9.062   8.568   6.047
 6468WAT     H219647   9.001   8.717   6.018
 6469WAT      O19648   6.351   5.677   5.275
 6469WAT     H119649   6.399   5.754   5.317
 6469WAT     H219650   6.273   5.710   5.223
 6470WAT      O19651   7.635   5.464   3.456
 6470WAT     H119652   7.727   5.498   3.476
 6470WAT     H219653   7.634   5.423   3.365
 6471WAT      O19654   2.199   0.805   1.566
 6471WAT     H119655   2.109   0.787   1.605
 6471WAT     H219656   2.192   0.881   1.500
 6472WAT      O19657   7.646   0.155   2.640
 6472WAT     H119658   7.694   0.207   2.711
 6472WAT     H219659   7.701   0.074   2.616
 6473WAT      O19660   0.739   9.408   3.454
 6473WAT     H119661   0.731   9.506   3.469
 6473WAT     H219662   0.776   9.390   3.363
 6474WAT      O19663   7.599   3.350   6.621
 6474WAT     H119664   7.587   3.255   6.594
 6474WAT     H219665   7.509   3.391   6.638
 6475WAT      O19666   0.602   0.603   0.695
 6475WAT     H119667   0.575   0.624   0.789
 6475WAT     H219668   0.639   0.510   0.691
 6476WAT      O19669   2.526   6.600   3.672
 6476WAT     H119670   2.579   6.685   3.667
 6476WAT     H219671   2.578   6.526   3.632
 6477WAT      O19672   1.605   0.726   4.227
 6477WAT     H119673   1.589   0.797   4.294
 6477WAT     H219674   1.518   0.688   4.197
 6478WAT      O19675   6.589   5.253   7.221
 6478WAT     H119676   6.497   5.243   7.258
 6478WAT     H219677   6.617   5.169   7.175
 6479WAT      O19678   8.474   4.010   4.727
 6479WAT     H119679   8.516   3.925   4.696
 6479WAT     H219680   8.530   4.051   4.799
 6480WAT      O19681   4.801   7.465   5.506
 6480WAT     H119682   4.800   7.540   5.572
 6480WAT     H219683   4.773   7.500   5.416
 6481WAT      O19684   0.586   0.034   5.143
 6481WAT     H119685   0.593   0.121   5.192
 6481WAT     H219686   0.605  -0.041   5.207
 6482WAT      O19687   4.756   8.275   6.746
 6482WAT     H119688   4.727   8.213   6.819
 6482WAT     H219689   4.717   8.244   6.659
 6483WAT      O19690   2.283   4.935   1.939
 6483WAT     H119691   2.266   4.849   1.891
 6483WAT     H219692   2.378   4.937   1.971
 6484WAT      O19693   3.483   7.030   4.094
 6484WAT     H119694   3.470   7.094   4.018
 6484WAT     H219695   3.531   7.077   4.169
 6485WAT      O19696   5.292   7.350   2.050
 6485WAT     H119697   5.302   7.257   2.014
 6485WAT     H219698   5.338   7.414   1.989
 6486WAT      O19699   1.963   5.360   7.310
 6486WAT     H119700   2.004   5.285   7.258
 6486WAT     H219701   2.022   5.384   7.387
 6487WAT      O19702   6.063   6.969   4.905
 6487WAT     H119703   6.097   6.877   4.884
 6487WAT     H219704   5.963   6.968   4.909
 6488WAT      O19705   2.394   7.740   0.351
 6488WAT     H119706   2.458   7.707   0.421
 6488WAT     H219707   2.431   7.721   0.260
 6489WAT      O19708   2.348   3.247   3.121
 6489WAT     H119709   2.360   3.148   3.121
 6489WAT     H219710   2.257   3.269   3.158
 6490WAT      O19711   7.848   7.288   3.753
 6490WAT     H119712   7.858   7.222   3.678
 6490WAT     H219713   7.871   7.379   3.720
 6491WAT      O19714   7.533   7.785   3.758
 6491WAT     H119715   7.620   7.792   3.807
 6491WAT     H219716   7.501   7.691   3.759
 6492WAT      O19717   0.121   5.624   5.498
 6492WAT     H119718   0.163   5.534   5.511
 6492WAT     H219719   0.187   5.695   5.523
 6493WAT      O19720   3.080   3.932   4.184
 6493WAT     H119721   3.130   4.017   4.197
 6493WAT     H219722   3.032   3.907   4.268
 6494WAT      O19723   2.606   8.266   9.596
 6494WAT     H119724   2.598   8.284   9.498
 6494WAT     H219725   2.633   8.351   9.643
 6495WAT      O19726   3.424   5.415   3.532
 6495WAT     H119727   3.499   5.354   3.556
 6495WAT     H219728   3.408   5.480   3.607
 6496WAT      O19729   7.798   7.002   8.587
 6496WAT     H119730   7.845   6.920   8.620
 6496WAT     H219731   7.715   7.016   8.641
 6497WAT      O19732   4.528   7.640   2.274
 6497WAT     H119733   4.611   7.585   2.289
 6497WAT     H219734   4.448   7.586   2.300
 6498WAT      O19735   3.248   0.468   5.711
 6498WAT     H119736   3.217   0.559   5.739
 6498WAT     H219737   3.249   0.461   5.612
 6499WAT      O19738   0.089   2.713   2.302
 6499WAT     H119739   0.031   2.634   2.322
 6499WAT     H219740   0.100   2.721   2.203
 6500WAT      O19741   5.223   2.124   7.723
 6500WAT     H119742   5.154   2.111   7.794
 6500WAT     H219743   5.285   2.198   7.749
 6501WAT      O19744   3.363   3.135   8.539
 6501WAT     H119745   3.308   3.217   8.525
 6501WAT     H219746   3.340   3.094   8.628
 6502WAT      O19747   8.931   4.429   8.512
 6502WAT     H119748   9.005   4.367   8.537
 6502WAT     H219749   8.867   4.437   8.589
 6503WAT      O19750   0.874   7.686   8.770
 6503WAT     H119751   0.810   7.615   8.799
 6503WAT     H219752   0.967   7.657   8.789
 6504WAT      O19753   1.538   7.126   0.771
 6504WAT     H119754   1.558   7.217   0.737
 6504WAT     H219755   1.511   7.132   0.867
 6505WAT      O19756   0.914   7.172   4.442
 6505WAT     H119757   0.828   7.205   4.482
 6505WAT     H219758   0.955   7.245   4.387
 6506WAT      O19759   4.891   8.148   2.668
 6506WAT     H119760   4.835   8.068   2.686
 6506WAT     H219761   4.843   8.211   2.607
 6507WAT      O19762   8.162   1.422   3.063
 6507WAT     H119763   8.131   1.399   2.971
 6507WAT     H219764   8.190   1.518   3.066
 6508WAT      O19765   3.624   2.342   4.261
 6508WAT     H119766   3.546   2.370   4.317
 6508WAT     H219767   3.598   2.342   4.164
 6509WAT      O19768   0.442   6.045   8.381
 6509WAT     H119769   0.368   6.088   8.329
 6509WAT     H219770   0.492   6.115   8.432
 6510WAT      O19771   3.140   7.945   2.960
 6510WAT     H119772   3.134   7.872   2.891
 6510WAT     H219773   3.091   7.916   3.042
 6511WAT      O19774   7.579   5.525   6.378
 6511WAT     H119775   7.631   5.610   6.385
 6511WAT     H219776   7.601   5.479   6.292
 6512WAT      O19777   7.431   9.648   4.243
 6512WAT     H119778   7.470   9.597   4.319
 6512WAT     H219779   7.504   9.675   4.180
 6513WAT      O19780   3.400   0.608   3.495
 6513WAT     H119781   3.324   0.589   3.433
 6513WAT     H219782   3.460   0.676   3.453
 6514WAT      O19783   5.487   0.597   3.649
 6514WAT     H119784   5.526   0.649   3.573
 6514WAT     H219785   5.430   0.524   3.613
 6515WAT      O19786   1.344   0.578   6.497
 6515WAT     H119787   1.281   0.620   6.562
 6515WAT     H219788   1.386   0.497   6.539
 6516WAT      O19789   6.271   7.058   0.717
 6516WAT     H119790   6.197   7.111   0.757
 6516WAT     H219791   6.234   6.998   0.646
 6517WAT      O19792   0.811   1.850   4.664
 6517WAT     H119793   0.897   1.854   4.716
 6517WAT     H219794   0.761   1.935   4.677
 6518WAT      O19795   5.186   4.202   5.123
 6518WAT     H119796   5.183   4.278   5.058
 6518WAT     H219797   5.260   4.140   5.098
 6519WAT      O19798   7.351   4.594   7.754
 6519WAT     H119799   7.336   4.495   7.751
 6519WAT     H219800   7.395   4.623   7.669
 6520WAT      O19801   3.249   1.104   9.158
 6520WAT     H119802   3.324   1.038   9.150
 6520WAT     H219803   3.166   1.056   9.187
 6521WAT      O19804   4.694   1.984   1.270
 6521WAT     H119805   4.718   1.976   1.367
 6521WAT     H219806   4.617   2.046   1.259
 6522WAT      O19807   8.485   6.942   3.885
 6522WAT     H119808   8.425   6.946   3.805
 6522WAT     H219809   8.579   6.923   3.855
 6523WAT      O19810   7.413   7.296   1.185
 6523WAT     H119811   7.485   7.324   1.121
 6523WAT     H219812   7.451   7.293   1.277
 6524WAT      O19813   6.361   4.524   7.407
 6524WAT     H119814   6.399   4.432   7.401
 6524WAT     H219815   6.426   4.585   7.452
 6525WAT      O19816   3.153   0.485   2.325
 6525WAT     H119817   3.069   0.525   2.361
 6525WAT     H219818   3.132   0.399   2.279
 6526WAT      O19819   5.618   4.374   9.265
 6526WAT     H119820   5.681   4.322   9.323
 6526WAT     H219821   5.599   4.463   9.307
 6527WAT      O19822   8.855   8.031   1.542
 6527WAT     H119823   8.867   7.975   1.624
 6527WAT     H219824   8.872   7.975   1.461
 6528WAT      O19825   0.192   4.058   8.213
 6528WAT     H119826   0.122   4.035   8.145
 6528WAT     H219827   0.152   4.113   8.286
 6529WAT      O19828   9.282   8.474   0.632
 6529WAT     H119829   9.350   8.471   0.559
 6529WAT     H219830   9.227   8.557   0.623
 6530WAT      O19831   1.940   0.878   1.160
 6530WAT     H119832   1.862   0.898   1.219
 6530WAT     H219833   1.913   0.884   1.064
 6531WAT      O19834   9.599   8.952   8.280
 6531WAT     H119835   9.523   9.002   8.237
 6531WAT     H219836   9.668   9.018   8.310
 6532WAT      O19837   8.042   9.328   2.729
 6532WAT     H119838   8.117   9.383   2.765
 6532WAT     H219839   8.079   9.263   2.662
 6533WAT      O19840   1.728   6.141   6.974
 6533WAT     H119841   1.726   6.171   7.070
 6533WAT     H219842   1.690   6.213   6.916
 6534WAT      O19843   8.550   3.205   2.361
 6534WAT     H119844   8.533   3.225   2.264
 6534WAT     H219845   8.641   3.236   2.386
 6535WAT      O19846   4.960   6.651   2.136
 6535WAT     H119847   4.918   6.595   2.207
 6535WAT     H219848   4.932   6.616   2.046
 6536WAT      O19849   1.938   1.005   4.770
 6536WAT     H119850   1.928   0.914   4.810
 6536WAT     H219851   2.025   1.009   4.719
 6537WAT      O19852   5.956   7.970   0.707
 6537WAT     H119853   6.051   7.978   0.739
 6537WAT     H219854   5.937   8.044   0.643
 6538WAT      O19855   2.159   0.524   9.733
 6538WAT     H119856   2.091   0.583   9.689
 6538WAT     H219857   2.157   0.433   9.691
 6539WAT      O19858   9.019   2.406   1.144
 6539WAT     H119859   8.945   2.412   1.211
 6539WAT     H219860   9.068   2.320   1.157
 6540WAT      O19861   1.202   7.743   7.382
 6540WAT     H119862   1.285   7.756   7.438
 6540WAT     H219863   1.133   7.809   7.411
 6541WAT      O19864   6.253   1.331   8.379
 6541WAT     H119865   6.238   1.357   8.284
 6541WAT     H219866   6.165   1.308   8.421
 6542WAT      O19867   9.006   7.039   9.661
 6542WAT     H119868   9.028   7.029   9.564
 6542WAT     H219869   9.064   7.110   9.702
 6543WAT      O19870   5.525   2.315   2.015
 6543WAT     H119871   5.435   2.358   2.005
 6543WAT     H219872   5.526   2.230   1.962
 6544WAT      O19873   0.824   5.599   6.739
 6544WAT     H119874   0.796   5.525   6.800
 6544WAT     H219875   0.923   5.600   6.731
 6545WAT      O19876   9.481   0.994   9.367
 6545WAT     H119877   9.495   0.977   9.464
 6545WAT     H219878   9.565   1.028   9.326
 6546WAT      O19879   9.295   7.369   4.862
 6546WAT     H119880   9.277   7.436   4.934
 6546WAT     H219881   9.284   7.277   4.899
 6547WAT      O19882   5.302   8.290   2.713
 6547WAT     H119883   5.281   8.386   2.692
 6547WAT     H219884   5.252   8.263   2.796
 6548WAT      O19885   8.869   0.091   7.749
 6548WAT     H119886   8.843   0.188   7.754
 6548WAT     H219887   8.968   0.084   7.733
 6549WAT      O19888   1.203   5.448   2.907
 6549WAT     H119889   1.162   5.537   2.887
 6549WAT     H219890   1.131   5.378   2.909
 6550WAT      O19891   5.406   8.851   0.578
 6550WAT     H119892   5.465   8.922   0.538
 6550WAT     H219893   5.310   8.878   0.568
 6551WAT      O19894   1.748   7.699   8.335
 6551WAT     H119895   1.748   7.607   8.375
 6551WAT     H219896   1.794   7.695   8.246
 6552WAT      O19897   3.670   8.984   7.171
 6552WAT     H119898   3.617   9.023   7.096
 6552WAT     H219899   3.619   8.994   7.257
 6553WAT      O19900   9.385   5.112   1.434
 6553WAT     H119901   9.430   5.178   1.494
 6553WAT     H219902   9.453   5.072   1.372
 6554WAT      O19903   8.135   9.670   9.810
 6554WAT     H119904   8.091   9.600   9.753
 6554WAT     H219905   8.232   9.676   9.785
 6555WAT      O19906   4.221   9.457   8.187
 6555WAT     H119907   4.152   9.457   8.259
 6555WAT     H219908   4.298   9.399   8.214
 6556WAT      O19909   2.974   7.930   3.189
 6556WAT     H119910   3.026   7.976   3.260
 6556WAT     H219911   3.005   7.835   3.182
 6557WAT      O19912   3.053   5.829   0.665
 6557WAT     H119913   3.030   5.773   0.744
 6557WAT     H219914   3.044   5.774   0.582
 6558WAT      O19915   3.729   6.080   4.918
 6558WAT     H119916   3.686   6.132   4.991
 6558WAT     H219917   3.808   6.031   4.953
 6559WAT      O19918   5.161   9.532   5.084
 6559WAT     H119919   5.113   9.576   5.008
 6559WAT     H219920   5.182   9.601   5.154
 6560WAT      O19921   9.603   6.508   6.241
 6560WAT     H119922   9.648   6.432   6.287
 6560WAT     H219923   9.506   6.509   6.265
 6561WAT      O19924   6.989   6.335   2.700
 6561WAT     H119925   6.914   6.275   2.727
 6561WAT     H219926   6.968   6.377   2.612
 6562WAT      O19927   0.569   6.500   3.512
 6562WAT     H119928   0.577   6.467   3.418
 6562WAT     H219929   0.583   6.599   3.514
 6563WAT      O19930   3.484   5.128   4.599
 6563WAT     H119931   3.576   5.167   4.607
 6563WAT     H219932   3.453   5.097   4.688
 6564WAT      O19933   1.784   1.228   8.541
 6564WAT     H119934   1.732   1.313   8.545
 6564WAT     H219935   1.726   1.154   8.509
 6565WAT      O19936   2.767   7.394   8.571
 6565WAT     H119937   2.819   7.317   8.536
 6565WAT     H219938   2.829   7.462   8.611
 6566WAT      O19939   2.201   7.286   0.056
 6566WAT     H119940   2.245   7.375   0.049
 6566WAT     H219941   2.256   7.226   0.115
 6567WAT      O19942   6.687   0.947   2.721
 6567WAT     H119943   6.607   0.988   2.676
 6567WAT     H219944   6.732   0.884   2.658
 6568WAT      O19945   6.778   6.626   4.563
 6568WAT     H119946   6.776   6.619   4.463
 6568WAT     H219947   6.745   6.716   4.591
 6569WAT      O19948   6.385   2.238   7.128
 6569WAT     H119949   6.287   2.259   7.121
 6569WAT     H219950   6.418   2.206   7.039
 6570WAT      O19951   6.481   5.168   4.295
 6570WAT     H119952   6.490   5.268   4.288
 6570WAT     H219953   6.499   5.140   4.390
 6571WAT      O19954   6.935   6.441   7.119
 6571WAT     H119955   6.938   6.342   7.128
 6571WAT     H219956   6.840   6.472   7.127
 6572WAT      O19957   4.424   5.695   7.549
 6572WAT     H119958   4.519   5.675   7.576
 6572WAT     H219959   4.385   5.615   7.503
 6573WAT      O19960   1.645   5.373   4.161
 6573WAT     H119961   1.678   5.361   4.067
 6573WAT     H219962   1.592   5.458   4.167
 6574WAT      O19963   3.709   7.338   1.621
 6574WAT     H119964   3.672   7.387   1.541
 6574WAT     H219965   3.792   7.289   1.594
 6575WAT      O19966   3.533   3.014   0.383
 6575WAT     H119967   3.502   3.038   0.292
 6575WAT     H219968   3.514   2.917   0.401
 6576WAT      O19969   0.737   6.514   5.159
 6576WAT     H119970   0.649   6.487   5.198
 6576WAT     H219971   0.810   6.496   5.226
 6577WAT      O19972   4.566   3.150   1.808
 6577WAT     H119973   4.523   3.237   1.784
 6577WAT     H219974   4.527   3.076   1.753
 6578WAT      O19975   8.505   5.164   2.541
 6578WAT     H119976   8.495   5.257   2.574
 6578WAT     H219977   8.416   5.118   2.543
 6579WAT      O19978   4.329   9.563   8.696
 6579WAT     H119979   4.335   9.600   8.789
 6579WAT     H219980   4.323   9.639   8.631
 6580WAT      O19981   6.701   1.537   4.396
 6580WAT     H119982   6.632   1.582   4.453
 6580WAT     H219983   6.669   1.533   4.302
 6581WAT      O19984   2.037   8.817   5.431
 6581WAT     H119985   1.967   8.849   5.495
 6581WAT     H219986   2.009   8.728   5.393
 6582WAT      O19987   0.854   5.429   8.168
 6582WAT     H119988   0.952   5.425   8.184
 6582WAT     H219989   0.829   5.521   8.137
 6583WAT      O19990   7.672   0.647   4.445
 6583WAT     H119991   7.654   0.582   4.370
 6583WAT     H219992   7.769   0.647   4.467
 6584WAT      O19993   3.503   0.430   9.758
 6584WAT     H119994   3.463   0.343   9.730
 6584WAT     H219995   3.574   0.457   9.692
 6585WAT      O19996   6.985   4.792   1.903
 6585WAT     H119997   6.970   4.773   1.806
 6585WAT     H219998   6.902   4.772   1.954
 6586WAT      O19999   6.708   7.633   3.133
 6586WAT     H120000   6.782   7.678   3.083
 6586WAT     H220001   6.649   7.584   3.068
 6587WAT      O20002   1.067   2.124   6.061
 6587WAT     H120003   1.083   2.203   6.120
 6587WAT     H220004   1.031   2.048   6.116
 6588WAT      O20005   9.461   2.651   3.425
 6588WAT     H120006   9.380   2.644   3.367
 6588WAT     H220007   9.438   2.698   3.510
 6589WAT      O20008   3.914   9.515   4.275
 6589WAT     H120009   3.957   9.605   4.273
 6589WAT     H220010   3.970   9.453   4.330
 6590WAT      O20011   9.418   3.312   1.276
 6590WAT     H120012   9.485   3.240   1.264
 6590WAT     H220013   9.398   3.324   1.374
 6591WAT      O20014   8.299   4.605   9.228
 6591WAT     H120015   8.345   4.675   9.174
 6591WAT     H220016   8.201   4.627   9.235
 6592WAT      O20017   2.287   6.768   7.448
 6592WAT     H120018   2.240   6.843   7.401
 6592WAT     H220019   2.352   6.725   7.385
 6593WAT      O20020   6.960   1.786   4.208
 6593WAT     H120021   7.031   1.856   4.214
 6593WAT     H220022   6.909   1.782   4.294
 6594WAT      O20023   0.053   8.249   2.226
 6594WAT     H120024   0.129   8.188   2.249
 6594WAT     H220025  -0.026   8.227   2.284
 6595WAT      O20026   1.501   4.544   3.354
 6595WAT     H120027   1.403   4.535   3.371
 6595WAT     H220028   1.520   4.526   3.258
 6596WAT      O20029   4.461   9.609   1.797
 6596WAT     H120030   4.369   9.582   1.768
 6596WAT     H220031   4.508   9.529   1.835
 6597WAT      O20032   8.386   9.074   2.093
 6597WAT     H120033   8.456   9.092   2.025
 6597WAT     H220034   8.344   9.161   2.121
 6598WAT      O20035   0.995   9.829   7.674
 6598WAT     H120036   0.927   9.793   7.738
 6598WAT     H220037   1.086   9.822   7.715
 6599WAT      O20038   1.290   9.479   4.581
 6599WAT     H120039   1.295   9.578   4.588
 6599WAT     H220040   1.267   9.452   4.488
 6600WAT      O20041   3.249   2.801   0.399
 6600WAT     H120042   3.188   2.832   0.472
 6600WAT     H220043   3.287   2.712   0.423
 6601WAT      O20044   8.305   3.566   8.112
 6601WAT     H120045   8.290   3.506   8.190
 6601WAT     H220046   8.216   3.594   8.074
 6602WAT      O20047   3.968   8.165   3.960
 6602WAT     H120048   3.876   8.202   3.973
 6602WAT     H220049   4.005   8.135   4.048
 6603WAT      O20050   6.264   4.895   0.440
 6603WAT     H120051   6.236   4.930   0.529
 6603WAT     H220052   6.321   4.962   0.394
 6604WAT      O20053   9.402   7.642   8.410
 6604WAT     H120054   9.483   7.594   8.378
 6604WAT     H220055   9.322   7.584   8.398
 6605WAT      O20056   2.392   9.039   2.649
 6605WAT     H120057   2.436   9.103   2.586
 6605WAT     H220058   2.425   9.056   2.742
 6606WAT      O20059   9.055   0.811   0.836
 6606WAT     H120060   9.032   0.727   0.885
 6606WAT     H220061   9.064   0.886   0.902
 6607WAT      O20062   1.331   0.337   7.066
 6607WAT     H120063   1.316   0.372   6.973
 6607WAT     H220064   1.257   0.368   7.126
 6608WAT      O20065   0.252   3.825   9.723
 6608WAT     H120066   0.177   3.863   9.778
 6608WAT     H220067   0.260   3.728   9.742
 6609WAT      O20068   8.390   6.422   6.609
 6609WAT     H120069   8.463   6.488   6.627
 6609WAT     H220070   8.429   6.330   6.609
 6610WAT      O20071   5.610   6.249   3.088
 6610WAT     H120072   5.530   6.199   3.054
 6610WAT     H220073   5.692   6.193   3.074
 6611WAT      O20074   7.496   3.958   3.884
 6611WAT     H120075   7.410   3.949   3.832
 6611WAT     H220076   7.511   4.054   3.906
 6612WAT      O20077   4.055   3.509   1.652
 6612WAT     H120078   4.058   3.602   1.616
 6612WAT     H220079   4.029   3.446   1.579
 6613WAT      O20080   1.349   5.008   7.054
 6613WAT     H120081   1.325   5.084   6.994
 6613WAT     H220082   1.322   4.922   7.012
 6614WAT      O20083   5.839   1.437   7.558
 6614WAT     H120084   5.824   1.507   7.628
 6614WAT     H220085   5.921   1.385   7.579
 6615WAT      O20086   6.092   9.153   7.616
 6615WAT     H120087   6.114   9.083   7.547
 6615WAT     H220088   6.033   9.222   7.575
 6616WAT      O20089   8.833   6.061   8.029
 6616WAT     H120090   8.776   6.128   7.982
 6616WAT     H220091   8.775   5.998   8.081
 6617WAT      O20092   8.832   7.201   3.209
 6617WAT     H120093   8.903   7.270   3.214
 6617WAT     H220094   8.851   7.129   3.276
 6618WAT      O20095   2.124   5.058   6.365
 6618WAT     H120096   2.087   5.106   6.444
 6618WAT     H220097   2.049   5.027   6.306
 6619WAT      O20098   0.539   4.972   2.973
 6619WAT     H120099   0.510   4.946   3.065
 6619WAT     H220100   0.545   4.890   2.916
 6620WAT      O20101   9.853   2.976   4.374
 6620WAT     H120102   9.757   3.002   4.367
 6620WAT     H220103   9.865   2.885   4.332
 6621WAT      O20104   5.447   8.902   6.497
 6621WAT     H120105   5.464   8.998   6.476
 6621WAT     H220106   5.353   8.878   6.472
 6622WAT      O20107   9.813   4.626   8.354
 6622WAT     H120108   9.873   4.657   8.280
 6622WAT     H220109   9.718   4.628   8.323
 6623WAT      O20110   2.106   9.473   5.590
 6623WAT     H120111   2.043   9.427   5.528
 6623WAT     H220112   2.060   9.550   5.633
 6624WAT      O20113   6.229   3.108   4.564
 6624WAT     H120114   6.262   3.057   4.484
 6624WAT     H220115   6.216   3.204   4.540
 6625WAT      O20116   4.012   5.664   7.710
 6625WAT     H120117   4.020   5.764   7.716
 6625WAT     H220118   3.922   5.641   7.673
 6626WAT      O20119   9.678   9.177   2.560
 6626WAT     H120120   9.766   9.145   2.525
 6626WAT     H220121   9.607   9.162   2.491
 6627WAT      O20122   3.422   5.035   0.696
 6627WAT     H120123   3.481   5.081   0.763
 6627WAT     H220124   3.430   4.936   0.707
 6628WAT      O20125   5.624   7.582   2.926
 6628WAT     H120126   5.525   7.596   2.932
 6628WAT     H220127   5.650   7.499   2.974
 6629WAT      O20128   3.709   7.453   8.709
 6629WAT     H120129   3.640   7.422   8.645
 6629WAT     H220130   3.715   7.389   8.786
 6630WAT      O20131   6.722   1.932   8.460
 6630WAT     H120132   6.642   1.907   8.514
 6630WAT     H220133   6.784   1.854   8.456
 6631WAT      O20134   4.238   3.448   2.667
 6631WAT     H120135   4.174   3.496   2.727
 6631WAT     H220136   4.238   3.491   2.577
 6632WAT      O20137   9.563   1.835   2.601
 6632WAT     H120138   9.545   1.840   2.503
 6632WAT     H220139   9.618   1.754   2.621
 6633WAT      O20140   1.205   0.284   8.667
 6633WAT     H120141   1.119   0.325   8.638
 6633WAT     H220142   1.187   0.210   8.731
 6634WAT      O20143   3.113   2.324   7.496
 6634WAT     H120144   3.138   2.411   7.455
 6634WAT     H220145   3.189   2.260   7.489
 6635WAT      O20146   2.093   3.138   5.670
 6635WAT     H120147   2.065   3.186   5.753
 6635WAT     H220148   2.177   3.087   5.688
 6636WAT      O20149   7.479   3.916   1.735
 6636WAT     H120150   7.454   3.882   1.644
 6636WAT     H220151   7.538   3.849   1.780
 6637WAT      O20152   3.149   3.463   0.926
 6637WAT     H120153   3.155   3.466   0.827
 6637WAT     H220154   3.059   3.498   0.955
 6638WAT      O20155   7.144   2.413   9.192
 6638WAT     H120156   7.200   2.468   9.130
 6638WAT     H220157   7.173   2.317   9.187
 6639WAT      O20158   8.949   8.035   4.485
 6639WAT     H120159   8.989   8.068   4.571
 6639WAT     H220160   8.849   8.036   4.493
 6640WAT      O20161   7.457   9.474   3.691
 6640WAT     H120162   7.407   9.404   3.743
 6640WAT     H220163   7.420   9.480   3.598
 6641WAT      O20164   3.396   6.058   6.086
 6641WAT     H120165   3.469   5.991   6.070
 6641WAT     H220166   3.353   6.040   6.174
 6642WAT      O20167   7.794   8.081   1.956
 6642WAT     H120168   7.743   7.996   1.971
 6642WAT     H220169   7.739   8.143   1.899
 6643WAT      O20170   7.038   7.873   9.228
 6643WAT     H120171   7.115   7.923   9.267
 6643WAT     H220172   7.012   7.799   9.290
 6644WAT      O20173   7.279   0.604   4.902
 6644WAT     H120174   7.240   0.617   4.993
 6644WAT     H220175   7.207   0.618   4.833
 6645WAT      O20176   9.028   4.656   5.818
 6645WAT     H120177   8.941   4.675   5.771
 6645WAT     H220178   9.017   4.670   5.916
 6646WAT      O20179   1.571   8.521   8.755
 6646WAT     H120180   1.614   8.494   8.669
 6646WAT     H220181   1.615   8.603   8.791
 6647WAT      O20182   6.495   6.808   5.374
 6647WAT     H120183   6.483   6.765   5.463
 6647WAT     H220184   6.584   6.783   5.337
 6648WAT      O20185   0.290   2.187   1.510
 6648WAT     H120186   0.375   2.136   1.524
 6648WAT     H220187   0.257   2.221   1.598
 6649WAT      O20188   5.071   9.362   0.512
 6649WAT     H120189   5.105   9.291   0.451
 6649WAT     H220190   4.983   9.396   0.478
 6650WAT      O20191   6.554   5.938   9.402
 6650WAT     H120192   6.493   5.967   9.328
 6650WAT     H220193   6.593   6.019   9.447
 6651WAT      O20194   8.152   4.944   8.237
 6651WAT     H120195   8.077   4.879   8.225
 6651WAT     H220196   8.148   4.983   8.329
 6652WAT      O20197   6.414   0.029   7.664
 6652WAT     H120198   6.466   0.040   7.579
 6652WAT     H220199   6.477   0.014   7.740
 6653WAT      O20200   2.409   9.057   3.164
 6653WAT     H120201   2.426   9.064   3.262
 6653WAT     H220202   2.310   9.059   3.147
 6654WAT      O20203   8.424   6.366   1.851
 6654WAT     H120204   8.330   6.334   1.853
 6654WAT     H220205   8.460   6.373   1.944
 6655WAT      O20206   9.328   3.890   5.765
 6655WAT     H120207   9.243   3.925   5.725
 6655WAT     H220208   9.317   3.793   5.787
 6656WAT      O20209   5.217   9.703   5.285
 6656WAT     H120210   5.205   9.801   5.304
 6656WAT     H220211   5.284   9.665   5.349
 6657WAT      O20212   9.639   1.308   6.868
 6657WAT     H120213   9.600   1.219   6.891
 6657WAT     H220214   9.602   1.378   6.929
 6658WAT      O20215   1.732   7.591   2.183
 6658WAT     H120216   1.819   7.588   2.233
 6658WAT     H220217   1.724   7.679   2.136
 6659WAT      O20218   6.950   0.256   6.717
 6659WAT     H120219   6.881   0.193   6.680
 6659WAT     H220220   6.907   0.317   6.784
 6660WAT      O20221   8.533   4.326   5.431
 6660WAT     H120222   8.455   4.315   5.369
 6660WAT     H220223   8.527   4.415   5.476
 6661WAT      O20224   8.712   5.879   2.189
 6661WAT     H120225   8.723   5.883   2.289
 6661WAT     H220226   8.621   5.846   2.167
 6662WAT      O20227   4.655   9.725   7.008
 6662WAT     H120228   4.568   9.770   7.025
 6662WAT     H220229   4.648   9.628   7.028
 6663WAT      O20230   1.398   7.475   2.530
 6663WAT     H120231   1.394   7.385   2.487
 6663WAT     H220232   1.318   7.529   2.502
 6664WAT      O20233   1.518   7.267   1.482
 6664WAT     H120234   1.566   7.226   1.404
 6664WAT     H220235   1.561   7.237   1.567
 6665WAT      O20236   1.126   9.809   7.133
 6665WAT     H120237   1.139   9.874   7.208
 6665WAT     H220238   1.041   9.758   7.146
 6666WAT      O20239   8.317   1.810   9.091
 6666WAT     H120240   8.375   1.737   9.056
 6666WAT     H220241   8.275   1.859   9.015
 6667WAT      O20242   6.175   7.044   1.812
 6667WAT     H120243   6.149   7.110   1.882
 6667WAT     H220244   6.131   7.068   1.725
 6668WAT      O20245   0.735   3.647   8.550
 6668WAT     H120246   0.779   3.636   8.461
 6668WAT     H220247   0.796   3.613   8.622
 6669WAT      O20248   7.073   8.560   8.100
 6669WAT     H120249   7.037   8.586   8.010
 6669WAT     H220250   7.005   8.580   8.170
 6670WAT      O20251   7.191   8.234   1.281
 6670WAT     H120252   7.201   8.325   1.320
 6670WAT     H220253   7.269   8.177   1.308
 6671WAT      O20254   1.379   0.579   2.177
 6671WAT     H120255   1.472   0.613   2.186
 6671WAT     H220256   1.381   0.480   2.163
 6672WAT      O20257   3.951   4.278   3.909
 6672WAT     H120258   3.922   4.185   3.890
 6672WAT     H220259   4.010   4.280   3.990
 6673WAT      O20260   9.766   1.250   2.689
 6673WAT     H120261   9.700   1.306   2.738
 6673WAT     H220262   9.852   1.245   2.740
 6674WAT      O20263   0.089   6.080   5.646
 6674WAT     H120264   0.111   6.023   5.724
 6674WAT     H220265   0.050   6.024   5.572
 6675WAT      O20266   8.648   4.424   0.710
 6675WAT     H120267   8.594   4.501   0.675
 6675WAT     H220268   8.657   4.433   0.809
 6676WAT      O20269   7.016   0.435   0.569
 6676WAT     H120270   7.096   0.488   0.540
 6676WAT     H220271   6.964   0.406   0.489
 6677WAT      O20272   8.505   4.474   7.737
 6677WAT     H120273   8.490   4.389   7.789
 6677WAT     H220274   8.548   4.542   7.797
 6678WAT      O20275   3.009   3.136   0.596
 6678WAT     H120276   2.919   3.119   0.639
 6678WAT     H220277   2.996   3.182   0.509
 6679WAT      O20278   8.898   8.813   5.534
 6679WAT     H120279   8.923   8.905   5.504
 6679WAT     H220280   8.882   8.754   5.454
 6680WAT      O20281   5.951   7.380   6.573
 6680WAT     H120282   5.961   7.479   6.580
 6680WAT     H220283   5.884   7.348   6.640
 6681WAT      O20284   0.386   8.489   6.457
 6681WAT     H120285   0.341   8.400   6.472
 6681WAT     H220286   0.485   8.478   6.468
 6682WAT      O20287   1.731   1.571   4.897
 6682WAT     H120288   1.813   1.516   4.910
 6682WAT     H220289   1.667   1.553   4.971
 6683WAT      O20290   0.191   7.549   4.961
 6683WAT     H120291   0.203   7.513   4.869
 6683WAT     H220292   0.201   7.649   4.959
 6684WAT      O20293   9.075   3.600   2.177
 6684WAT     H120294   9.121   3.667   2.120
 6684WAT     H220295   8.981   3.587   2.145
 6685WAT      O20296   3.172   3.169   1.469
 6685WAT     H120297   3.251   3.219   1.435
 6685WAT     H220298   3.145   3.100   1.402
 6686WAT      O20299   6.051   3.946   3.474
 6686WAT     H120300   6.038   3.881   3.548
 6686WAT     H220301   5.994   4.027   3.490
 6687WAT      O20302   3.809   6.020   4.664
 6687WAT     H120303   3.783   6.033   4.759
 6687WAT     H220304   3.755   6.081   4.606
 6688WAT      O20305   3.721   4.218   1.292
 6688WAT     H120306   3.724   4.205   1.193
 6688WAT     H220307   3.646   4.281   1.315
 6689WAT      O20308   4.945   8.130   8.108
 6689WAT     H120309   4.873   8.200   8.104
 6689WAT     H220310   4.956   8.089   8.017
 6690WAT      O20311   4.912   8.738   0.321
 6690WAT     H120312   4.934   8.819   0.267
 6690WAT     H220313   4.816   8.741   0.348
 6691WAT      O20314   4.013   0.795   0.844
 6691WAT     H120315   4.102   0.833   0.823
 6691WAT     H220316   3.968   0.766   0.759
 6692WAT      O20317   9.546   4.688   7.870
 6692WAT     H120318   9.496   4.650   7.948
 6692WAT     H220319   9.481   4.728   7.805
 6693WAT      O20320   3.360   5.874   3.794
 6693WAT     H120321   3.403   5.796   3.749
 6693WAT     H220322   3.394   5.882   3.887
 6694WAT      O20323   3.006   9.260   8.893
 6694WAT     H120324   2.951   9.192   8.942
 6694WAT     H220325   3.012   9.343   8.949
 6695WAT      O20326   0.615   0.019   5.483
 6695WAT     H120327   0.656   0.109   5.467
 6695WAT     H220328   0.661  -0.049   5.426
 6696WAT      O20329   5.422   8.776   3.332
 6696WAT     H120330   5.325   8.775   3.309
 6696WAT     H220331   5.453   8.870   3.343
 6697WAT      O20332   5.702   9.661   3.140
 6697WAT     H120333   5.646   9.656   3.057
 6697WAT     H220334   5.689   9.750   3.183
 6698WAT      O20335   6.664   3.960   2.892
 6698WAT     H120336   6.606   3.913   2.958
 6698WAT     H220337   6.622   3.955   2.801
 6699WAT      O20338   3.056   3.659   3.742
 6699WAT     H120339   3.031   3.754   3.721
 6699WAT     H220340   3.099   3.655   3.832
 6700WAT      O20341   6.247   4.230   6.891
 6700WAT     H120342   6.339   4.226   6.850
 6700WAT     H220343   6.179   4.228   6.818
 6701WAT      O20344   1.824   9.143   6.445
 6701WAT     H120345   1.797   9.072   6.380
 6701WAT     H220346   1.759   9.145   6.522
 6702WAT      O20347   3.986   2.963   3.386
 6702WAT     H120348   3.936   2.879   3.367
 6702WAT     H220349   4.075   2.940   3.425
 6703WAT      O20350   0.842   6.392   4.566
 6703WAT     H120351   0.793   6.476   4.542
 6703WAT     H220352   0.853   6.387   4.665
 6704WAT      O20353   4.171   6.436   1.066
 6704WAT     H120354   4.247   6.498   1.049
 6704WAT     H220355   4.158   6.377   0.987
 6705WAT      O20356   6.174   7.713   2.374
 6705WAT     H120357   6.139   7.759   2.293
 6705WAT     H220358   6.159   7.615   2.366
 6706WAT      O20359   0.860   5.821   2.464
 6706WAT     H120360   0.864   5.872   2.550
 6706WAT     H220361   0.953   5.793   2.437
 6707WAT      O20362   3.695   7.647   0.840
 6707WAT     H120363   3.655   7.639   0.931
 6707WAT     H220364   3.627   7.621   0.771
 6708WAT      O20365   6.525   3.052   6.757
 6708WAT     H120366   6.539   3.138   6.708
 6708WAT     H220367   6.428   3.040   6.776
 6709WAT      O20368   9.727   9.108   3.540
 6709WAT     H120369   9.685   9.018   3.544
 6709WAT     H220370   9.785   9.122   3.620
 6710WAT      O20371   0.003   9.529   7.452
 6710WAT     H120372   0.097   9.497   7.439
 6710WAT     H220373  -0.055   9.491   7.380
 6711WAT      O20374   7.571   2.341   8.931
 6711WAT     H120375   7.519   2.360   9.014
 6711WAT     H220376   7.663   2.381   8.940
 6712WAT      O20377   0.389   8.881   2.566
 6712WAT     H120378   0.328   8.946   2.611
 6712WAT     H220379   0.436   8.926   2.490
 6713WAT      O20380   5.185   3.910   1.418
 6713WAT     H120381   5.160   3.856   1.337
 6713WAT     H220382   5.153   3.862   1.500
 6714WAT      O20383   9.047   7.264   6.308
 6714WAT     H120384   9.012   7.295   6.219
 6714WAT     H220385   9.065   7.166   6.303
 6715WAT      O20386   7.065   7.212   8.874
 6715WAT     H120387   7.029   7.120   8.859
 6715WAT     H220388   7.143   7.227   8.812
 6716WAT      O20389   7.345   9.793   7.010
 6716WAT     H120390   7.310   9.786   6.917
 6716WAT     H220391   7.331   9.707   7.058
 6717WAT      O20392   3.574   2.953   8.515
 6717WAT     H120393   3.583   2.960   8.416
 6717WAT     H220394   3.513   3.025   8.548
 6718WAT      O20395   3.296   7.366   3.179
 6718WAT     H120396   3.286   7.293   3.247
 6718WAT     H220397   3.306   7.454   3.225
 6719WAT      O20398   6.620   0.288   3.676
 6719WAT     H120399   6.625   0.375   3.625
 6719WAT     H220400   6.660   0.300   3.767
 6720WAT      O20401   8.386   0.256   9.034
 6720WAT     H120402   8.326   0.332   9.008
 6720WAT     H220403   8.480   0.289   9.038
 6721WAT      O20404   5.081   3.225   8.255
 6721WAT     H120405   5.138   3.145   8.277
 6721WAT     H220406   5.001   3.226   8.314
 6722WAT      O20407   9.365   5.084   4.251
 6722WAT     H120408   9.287   5.063   4.310
 6722WAT     H220409   9.393   5.179   4.266
 6723WAT      O20410   9.582   6.578   1.617
 6723WAT     H120411   9.648   6.616   1.552
 6723WAT     H220412   9.582   6.479   1.611
 6724WAT      O20413   3.953   2.156   6.077
 6724WAT     H120414   4.024   2.226   6.070
 6724WAT     H220415   3.935   2.117   5.986
 6725WAT      O20416   8.088   4.573   4.179
 6725WAT     H120417   8.115   4.615   4.265
 6725WAT     H220418   8.093   4.641   4.106
 6726WAT      O20419   2.616   5.008   1.003
 6726WAT     H120420   2.627   5.094   1.052
 6726WAT     H220421   2.607   5.026   0.905
 6727WAT      O20422   2.944   3.965   9.291
 6727WAT     H120423   3.001   3.987   9.370
 6727WAT     H220424   2.861   4.021   9.292
 6728WAT      O20425   2.886   6.272   2.924
 6728WAT     H120426   2.977   6.309   2.944
 6728WAT     H220427   2.894   6.176   2.897
 6729WAT      O20428   4.461   3.552   2.358
 6729WAT     H120429   4.367   3.534   2.389
 6729WAT     H220430   4.521   3.479   2.391
 6730WAT      O20431   2.245   2.965   1.212
 6730WAT     H120432   2.270   3.045   1.267
 6730WAT     H220433   2.162   2.986   1.160
 6731WAT      O20434   6.962   2.875   9.822
 6731WAT     H120435   6.940   2.803   9.756
 6731WAT     H220436   7.061   2.880   9.834
 6732WAT      O20437   8.377   8.277   7.847
 6732WAT     H120438   8.388   8.181   7.869
 6732WAT     H220439   8.318   8.320   7.915
 6733WAT      O20440   2.630   1.530   9.420
 6733WAT     H120441   2.597   1.600   9.357
 6733WAT     H220442   2.722   1.503   9.393
 6734WAT      O20443   7.767   7.975   6.272
 6734WAT     H120444   7.777   8.030   6.355
 6734WAT     H220445   7.835   7.902   6.271
 6735WAT      O20446   8.446   2.253   3.159
 6735WAT     H120447   8.353   2.252   3.123
 6735WAT     H220448   8.450   2.197   3.242
 6736WAT      O20449   7.258   2.531   4.977
 6736WAT     H120450   7.260   2.625   5.010
 6736WAT     H220451   7.180   2.483   5.017
 6737WAT      O20452   4.721   3.533   2.092
 6737WAT     H120453   4.719   3.631   2.075
 6737WAT     H220454   4.721   3.517   2.191
 6738WAT      O20455   6.400   3.949   9.690
 6738WAT     H120456   6.378   4.037   9.733
 6738WAT     H220457   6.445   3.890   9.757
 6739WAT      O20458   3.246   5.754   6.333
 6739WAT     H120459   3.225   5.850   6.315
 6739WAT     H220460   3.216   5.730   6.425
 6740WAT      O20461   8.101   6.590   3.908
 6740WAT     H120462   8.061   6.636   3.829
 6740WAT     H220463   8.053   6.505   3.925
 6741WAT      O20464   7.152   1.489   3.900
 6741WAT     H120465   7.065   1.513   3.944
 6741WAT     H220466   7.169   1.391   3.913
 6742WAT      O20467   7.940   8.037   5.343
 6742WAT     H120468   8.003   8.086   5.404
 6742WAT     H220469   7.966   8.054   5.248
 6743WAT      O20470   2.561   8.266   1.680
 6743WAT     H120471   2.638   8.328   1.695
 6743WAT     H220472   2.477   8.320   1.670
 6744WAT      O20473   9.058   0.528   7.324
 6744WAT     H120474   8.986   0.498   7.262
 6744WAT     H220475   9.074   0.626   7.312
 6745WAT      O20476   8.602   1.074   4.785
 6745WAT     H120477   8.564   0.983   4.802
 6745WAT     H220478   8.588   1.099   4.689
 6746WAT      O20479   4.855   0.180   1.976
 6746WAT     H120480   4.822   0.262   1.929
 6746WAT     H220481   4.856   0.196   2.075
 6747WAT      O20482   3.549   3.833   1.499
 6747WAT     H120483   3.502   3.822   1.411
 6747WAT     H220484   3.481   3.841   1.572
 6748WAT      O20485   2.603   5.095   9.628
 6748WAT     H120486   2.543   5.043   9.568
 6748WAT     H220487   2.699   5.077   9.603
 6749WAT      O20488   8.051   7.871   0.582
 6749WAT     H120489   7.964   7.877   0.532
 6749WAT     H220490   8.127   7.873   0.518
 6750WAT      O20491   2.348   6.356   6.170
 6750WAT     H120492   2.417   6.320   6.108
 6750WAT     H220493   2.384   6.435   6.219
 6751WAT      O20494   1.776   3.466   1.678
 6751WAT     H120495   1.823   3.554   1.667
 6751WAT     H220496   1.822   3.397   1.622
 6752WAT      O20497   5.131   0.867   3.017
 6752WAT     H120498   5.097   0.937   3.081
 6752WAT     H220499   5.123   0.777   3.059
 6753WAT      O20500   0.881   9.238   5.740
 6753WAT     H120501   0.814   9.303   5.774
 6753WAT     H220502   0.844   9.146   5.745
 6754WAT      O20503   2.251   9.400   9.875
 6754WAT     H120504   2.320   9.452   9.825
 6754WAT     H220505   2.267   9.406   9.973
 6755WAT      O20506   3.115   8.296   8.656
 6755WAT     H120507   3.139   8.210   8.700
 6755WAT     H220508   3.186   8.364   8.674
 6756WAT      O20509   6.722   9.752   1.050
 6756WAT     H120510   6.710   9.814   1.127
 6756WAT     H220511   6.672   9.667   1.067
 6757WAT      O20512   8.001   7.506   9.703
 6757WAT     H120513   7.988   7.456   9.788
 6757WAT     H220514   7.998   7.442   9.626
 6758WAT      O20515   3.977   0.938   3.560
 6758WAT     H120516   4.071   0.931   3.594
 6758WAT     H220517   3.927   0.854   3.582
 6759WAT      O20518   8.700   1.680   3.821
 6759WAT     H120519   8.733   1.774   3.822
 6759WAT     H220520   8.728   1.636   3.736
 6760WAT      O20521   5.085   3.739   4.764
 6760WAT     H120522   4.985   3.740   4.773
 6760WAT     H220523   5.115   3.818   4.711
 6761WAT      O20524   1.198   4.272   5.718
 6761WAT     H120525   1.210   4.365   5.752
 6761WAT     H220526   1.169   4.212   5.793
 6762WAT      O20527   3.164   9.035   1.905
 6762WAT     H120528   3.246   9.082   1.937
 6762WAT     H220529   3.186   8.938   1.888
 6763WAT      O20530   2.067   1.070   0.337
 6763WAT     H120531   2.115   1.123   0.267
 6763WAT     H220532   2.027   0.988   0.295
 6764WAT      O20533   0.999   9.171   3.781
 6764WAT     H120534   0.997   9.259   3.828
 6764WAT     H220535   1.085   9.125   3.801
 6765WAT      O20536   2.171   1.369   0.735
 6765WAT     H120537   2.243   1.405   0.793
 6765WAT     H220538   2.204   1.361   0.641
 6766WAT      O20539   4.209   3.953   8.925
 6766WAT     H120540   4.183   4.036   8.877
 6766WAT     H220541   4.129   3.894   8.935
 6767WAT      O20542   4.585   4.695   7.969
 6767WAT     H120543   4.650   4.769   7.950
 6767WAT     H220544   4.624   4.608   7.942
 6768WAT      O20545   1.115   3.804   9.275
 6768WAT     H120546   1.047   3.861   9.322
 6768WAT     H220547   1.172   3.758   9.343
 6769WAT      O20548   4.929   1.927   2.182
 6769WAT     H120549   4.838   1.890   2.162
 6769WAT     H220550   4.956   1.989   2.108
 6770WAT      O20551   2.389   6.417   9.508
 6770WAT     H120552   2.362   6.493   9.567
 6770WAT     H220553   2.441   6.350   9.562
 6771WAT      O20554   4.322   7.789   5.521
 6771WAT     H120555   4.375   7.872   5.542
 6771WAT     H220556   4.234   7.794   5.570
 6772WAT      O20557   5.111   2.367   1.886
 6772WAT     H120558   5.156   2.282   1.860
 6772WAT     H220559   5.035   2.385   1.824
 6773WAT      O20560   8.323   8.742   9.298
 6773WAT     H120561   8.423   8.742   9.294
 6773WAT     H220562   8.287   8.659   9.255
 6774WAT      O20563   9.089   3.191   8.615
 6774WAT     H120564   9.074   3.159   8.709
 6774WAT     H220565   9.177   3.238   8.610
 6775WAT      O20566   8.216   1.136   8.307
 6775WAT     H120567   8.302   1.158   8.354
 6775WAT     H220568   8.219   1.174   8.214
 6776WAT      O20569   3.038   4.452   9.227
 6776WAT     H120570   3.060   4.550   9.229
 6776WAT     H220571   2.996   4.429   9.139
 6777WAT      O20572   1.126   2.527   3.361
 6777WAT     H120573   1.190   2.459   3.399
 6777WAT     H220574   1.176   2.590   3.302
 6778WAT      O20575   1.217   1.025   0.933
 6778WAT     H120576   1.184   1.100   0.990
 6778WAT     H220577   1.302   0.989   0.971
 6779WAT      O20578   0.034   7.553   5.186
 6779WAT     H120579   0.091   7.574   5.264
 6779WAT     H220580   0.091   7.537   5.105
 6780WAT      O20581   4.817   8.517   1.272
 6780WAT     H120582   4.904   8.526   1.321
 6780WAT     H220583   4.827   8.451   1.197
 6781WAT      O20584   5.836   0.905   3.376
 6781WAT     H120585   5.822   0.924   3.279
 6781WAT     H220586   5.748   0.886   3.420
 6782WAT      O20587   3.267   8.997   3.177
 6782WAT     H120588   3.345   9.033   3.228
 6782WAT     H220589   3.257   8.899   3.195
 6783WAT      O20590   1.878   4.486   4.314
 6783WAT     H120591   1.804   4.522   4.258
 6783WAT     H220592   1.927   4.562   4.357
 6784WAT      O20593   0.750   4.456   3.928
 6784WAT     H120594   0.789   4.373   3.969
 6784WAT     H220595   0.713   4.515   4.000
 6785WAT      O20596   5.365   0.645   4.424
 6785WAT     H120597   5.278   0.597   4.435
 6785WAT     H220598   5.392   0.683   4.512
 6786WAT      O20599   3.843   4.450   8.545
 6786WAT     H120600   3.831   4.519   8.473
 6786WAT     H220601   3.935   4.411   8.538
 6787WAT      O20602   0.430   3.289   6.232
 6787WAT     H120603   0.456   3.193   6.233
 6787WAT     H220604   0.506   3.345   6.268
 6788WAT      O20605   5.773   1.812   2.220
 6788WAT     H120606   5.785   1.895   2.275
 6788WAT     H220607   5.729   1.741   2.275
 6789WAT      O20608   1.047   2.484   3.083
 6789WAT     H120609   0.994   2.543   3.143
 6789WAT     H220610   1.130   2.454   3.130
 6790WAT      O20611   9.451   8.833   7.916
 6790WAT     H120612   9.357   8.811   7.891
 6790WAT     H220613   9.471   8.797   8.007
 6791WAT      O20614   1.952   2.037   1.804
 6791WAT     H120615   1.969   2.090   1.887
 6791WAT     H220616   2.039   2.006   1.766
 6792WAT      O20617   8.335   5.828   4.930
 6792WAT     H120618   8.240   5.839   4.901
 6792WAT     H220619   8.345   5.740   4.978
 6793WAT      O20620   8.136   4.593   7.180
 6793WAT     H120621   8.078   4.516   7.152
 6793WAT     H220622   8.162   4.583   7.276
 6794WAT      O20623   0.081   9.281   6.039
 6794WAT     H120624   0.022   9.351   5.999
 6794WAT     H220625   0.156   9.261   5.977
 6795WAT      O20626   5.144   3.357   8.506
 6795WAT     H120627   5.135   3.456   8.515
 6795WAT     H220628   5.171   3.334   8.413
 6796WAT      O20629   1.800   6.737   2.331
 6796WAT     H120630   1.811   6.638   2.340
 6796WAT     H220631   1.723   6.756   2.270
 6797WAT      O20632   6.242   1.053   5.935
 6797WAT     H120633   6.275   1.085   5.847
 6797WAT     H220634   6.282   0.964   5.956
 6798WAT      O20635   5.455   1.262   0.657
 6798WAT     H120636   5.506   1.185   0.695
 6798WAT     H220637   5.390   1.229   0.589
 6799WAT      O20638   8.240   4.264   4.470
 6799WAT     H120639   8.269   4.233   4.560
 6799WAT     H220640   8.318   4.262   4.407
 6800WAT      O20641   0.663   2.130   6.400
 6800WAT     H120642   0.752   2.111   6.441
 6800WAT     H220643   0.666   2.217   6.350
 6801WAT      O20644   1.042   8.436   9.304
 6801WAT     H120645   1.126   8.404   9.261
 6801WAT     H220646   1.000   8.361   9.355
 6802WAT      O20647   6.615   8.342   7.761
 6802WAT     H120648   6.615   8.386   7.850
 6802WAT     H220649   6.522   8.341   7.724
 6803WAT      O20650   1.362   8.748   6.773
 6803WAT     H120651   1.316   8.778   6.689
 6803WAT     H220652   1.423   8.671   6.752
 6804WAT      O20653   9.693   8.060   2.033
 6804WAT     H120654   9.670   8.120   2.109
 6804WAT     H220655   9.699   8.114   1.949
 6805WAT      O20656   1.303   8.249   1.306
 6805WAT     H120657   1.264   8.166   1.267
 6805WAT     H220658   1.402   8.248   1.294
 6806WAT      O20659   1.035   9.503   0.540
 6806WAT     H120660   0.937   9.493   0.559
 6806WAT     H220661   1.083   9.519   0.626
 6807WAT      O20662   2.814   2.223   0.359
 6807WAT     H120663   2.716   2.240   0.347
 6807WAT     H220664   2.834   2.210   0.457
 6808WAT      O20665   4.782   2.816   8.709
 6808WAT     H120666   4.782   2.916   8.702
 6808WAT     H220667   4.691   2.781   8.686
 6809WAT      O20668   7.115   2.163   0.643
 6809WAT     H120669   7.028   2.205   0.616
 6809WAT     H220670   7.180   2.235   0.666
 6810WAT      O20671   9.413   3.609   2.082
 6810WAT     H120672   9.417   3.709   2.082
 6810WAT     H220673   9.415   3.576   1.987
 6811WAT      O20674   9.774   8.864   3.690
 6811WAT     H120675   9.684   8.889   3.726
 6811WAT     H220676   9.843   8.928   3.726
 6812WAT      O20677   8.668   2.504   8.260
 6812WAT     H120678   8.571   2.529   8.265
 6812WAT     H220679   8.679   2.409   8.288
 6813WAT      O20680   5.615   8.915   1.627
 6813WAT     H120681   5.653   8.938   1.717
 6813WAT     H220682   5.613   8.815   1.617
 6814WAT      O20683   4.420   4.563   6.908
 6814WAT     H120684   4.444   4.640   6.967
 6814WAT     H220685   4.421   4.478   6.960
 6815WAT      O20686   5.424   4.170   5.386
 6815WAT     H120687   5.457   4.182   5.292
 6815WAT     H220688   5.502   4.154   5.446
 6816WAT      O20689   8.296   6.575   8.388
 6816WAT     H120690   8.374   6.514   8.404
 6816WAT     H220691   8.321   6.645   8.321
 6817WAT      O20692   8.733   8.809   6.837
 6817WAT     H120693   8.782   8.753   6.904
 6817WAT     H220694   8.634   8.800   6.852
 6818WAT      O20695   3.337   9.621   8.965
 6818WAT     H120696   3.289   9.696   8.920
 6818WAT     H220697   3.378   9.562   8.895
 6819WAT      O20698   4.900   7.808   3.930
 6819WAT     H120699   4.922   7.817   4.027
 6819WAT     H220700   4.984   7.799   3.877
 6820WAT      O20701   9.257   5.902   6.217
 6820WAT     H120702   9.217   5.882   6.306
 6820WAT     H220703   9.349   5.864   6.211
 6821WAT      O20704   2.368   1.566   4.068
 6821WAT     H120705   2.346   1.469   4.081
 6821WAT     H220706   2.452   1.587   4.120
 6822WAT      O20707   2.745   6.464   0.195
 6822WAT     H120708   2.826   6.411   0.221
 6822WAT     H220709   2.764   6.561   0.208
 6823WAT      O20710   6.121   0.278   4.740
 6823WAT     H120711   6.127   0.266   4.641
 6823WAT     H220712   6.070   0.362   4.761
 6824WAT      O20713   7.758   9.400   4.576
 6824WAT     H120714   7.751   9.392   4.676
 6824WAT     H220715   7.770   9.310   4.536
 6825WAT      O20716   8.824   8.470   9.785
 6825WAT     H120717   8.744   8.453   9.841
 6825WAT     H220718   8.904   8.427   9.827
 6826WAT      O20719   5.494   2.040   8.705
 6826WAT     H120720   5.417   2.084   8.658
 6826WAT     H220721   5.467   1.949   8.735
 6827WAT      O20722   2.658   6.765   5.091
 6827WAT     H120723   2.700   6.674   5.090
 6827WAT     H220724   2.729   6.834   5.075
 6828WAT      O20725   8.885   7.144   2.799
 6828WAT     H120726   8.906   7.085   2.720
 6828WAT     H220727   8.963   7.203   2.818
 6829WAT      O20728   5.483   3.787   7.007
 6829WAT     H120729   5.504   3.725   6.932
 6829WAT     H220730   5.568   3.828   7.042
 6830WAT      O20731   1.877   7.453   6.136
 6830WAT     H120732   1.928   7.440   6.221
 6830WAT     H220733   1.794   7.397   6.138
 6831WAT      O20734   6.089   1.629   5.999
 6831WAT     H120735   6.166   1.678   6.041
 6831WAT     H220736   6.120   1.540   5.966
 6832WAT      O20737   2.730   5.143   8.621
 6832WAT     H120738   2.718   5.197   8.705
 6832WAT     H220739   2.818   5.166   8.580
 6833WAT      O20740   9.408   6.878   9.793
 6833WAT     H120741   9.422   6.967   9.837
 6833WAT     H220742   9.439   6.805   9.853
 6834WAT      O20743   4.428   7.464   6.812
 6834WAT     H120744   4.512   7.420   6.842
 6834WAT     H220745   4.364   7.395   6.780
 6835WAT      O20746   5.642   2.700   8.545
 6835WAT     H120747   5.563   2.728   8.598
 6835WAT     H220748   5.674   2.777   8.490
 6836WAT      O20749   9.688   3.751   6.573
 6836WAT     H120750   9.746   3.750   6.654
 6836WAT     H220751   9.726   3.688   6.505
 6837WAT      O20752   2.947   9.735   2.455
 6837WAT     H120753   2.885   9.726   2.533
 6837WAT     H220754   2.971   9.645   2.420
 6838WAT      O20755   1.260   0.501   8.396
 6838WAT     H120756   1.343   0.541   8.357
 6838WAT     H220757   1.268   0.401   8.394
 6839WAT      O20758   7.459   3.131   0.201
 6839WAT     H120759   7.471   3.211   0.260
 6839WAT     H220760   7.449   3.161   0.107
 6840WAT      O20761   1.997   2.483   7.892
 6840WAT     H120762   1.933   2.527   7.829
 6840WAT     H220763   2.083   2.463   7.846
 6841WAT      O20764   6.496   1.733   1.244
 6841WAT     H120765   6.572   1.761   1.304
 6841WAT     H220766   6.456   1.814   1.201
 6842WAT      O20767   3.599   5.884   5.997
 6842WAT     H120768   3.560   5.793   5.985
 6842WAT     H220769   3.678   5.879   6.059
 6843WAT      O20770   6.518   9.040   0.795
 6843WAT     H120771   6.606   9.069   0.756
 6843WAT     H220772   6.509   9.078   0.887
 6844WAT      O20773   1.546   0.667   9.771
 6844WAT     H120774   1.617   0.597   9.776
 6844WAT     H220775   1.582   0.747   9.724
 6845WAT      O20776   1.690   4.849   6.310
 6845WAT     H120777   1.620   4.887   6.371
 6845WAT     H220778   1.651   4.835   6.219
 6846WAT      O20779   1.852   8.823   2.559
 6846WAT     H120780   1.902   8.897   2.514
 6846WAT     H220781   1.917   8.767   2.612
 6847WAT      O20782   8.008   5.973   3.040
 6847WAT     H120783   8.008   5.979   3.140
 6847WAT     H220784   7.914   5.979   3.006
 6848WAT      O20785   0.885   9.772   4.717
 6848WAT     H120786   0.921   9.739   4.804
 6848WAT     H220787   0.813   9.711   4.685
 6849WAT      O20788   1.751   1.153   9.477
 6849WAT     H120789   1.746   1.060   9.513
 6849WAT     H220790   1.715   1.155   9.384
 6850WAT      O20791   6.545   5.820   0.159
 6850WAT     H120792   6.569   5.877   0.238
 6850WAT     H220793   6.623   5.815   0.097
 6851WAT      O20794   9.295   3.394   1.049
 6851WAT     H120795   9.210   3.439   1.076
 6851WAT     H220796   9.348   3.371   1.130
 6852WAT      O20797   0.143   3.466   6.309
 6852WAT     H120798   0.176   3.487   6.400
 6852WAT     H220799   0.056   3.416   6.315
 6853WAT      O20800   8.951   2.632   2.568
 6853WAT     H120801   9.029   2.570   2.569
 6853WAT     H220802   8.886   2.604   2.497
 6854WAT      O20803   6.185   0.574   6.483
 6854WAT     H120804   6.161   0.661   6.525
 6854WAT     H220805   6.280   0.552   6.505
 6855WAT      O20806   3.340   1.573   8.135
 6855WAT     H120807   3.314   1.535   8.046
 6855WAT     H220808   3.283   1.652   8.155
 6856WAT      O20809   2.236   8.924   0.551
 6856WAT     H120810   2.262   8.849   0.489
 6856WAT     H220811   2.148   8.904   0.592
 6857WAT      O20812   0.398   2.512   0.274
 6857WAT     H120813   0.302   2.541   0.271
 6857WAT     H220814   0.446   2.547   0.194
 6858WAT      O20815   9.513   5.811   0.721
 6858WAT     H120816   9.521   5.722   0.676
 6858WAT     H220817   9.505   5.883   0.652
 6859WAT      O20818   8.169   9.577   6.474
 6859WAT     H120819   8.130   9.648   6.533
 6859WAT     H220820   8.128   9.583   6.383
 6860WAT      O20821   4.359   5.835   0.824
 6860WAT     H120822   4.302   5.759   0.854
 6860WAT     H220823   4.302   5.907   0.785
 6861WAT      O20824   6.658   9.001   6.300
 6861WAT     H120825   6.626   9.096   6.306
 6861WAT     H220826   6.727   8.985   6.371
 6862WAT      O20827   4.981   7.529   3.223
 6862WAT     H120828   4.929   7.502   3.304
 6862WAT     H220829   4.924   7.590   3.166
 6863WAT      O20830   9.647   9.033   4.150
 6863WAT     H120831   9.552   9.030   4.121
 6863WAT     H220832   9.685   8.940   4.152
 6864WAT      O20833   1.881   0.170   0.623
 6864WAT     H120834   1.833   0.096   0.671
 6864WAT     H220835   1.841   0.258   0.648
 6865WAT      O20836   6.338   0.736   9.734
 6865WAT     H120837   6.295   0.647   9.745
 6865WAT     H220838   6.302   0.800   9.802
 6866WAT      O20839   9.380   5.868   7.934
 6866WAT     H120840   9.449   5.922   7.884
 6866WAT     H220841   9.289   5.890   7.900
 6867WAT      O20842   1.111   8.870   5.825
 6867WAT     H120843   1.076   8.909   5.740
 6867WAT     H220844   1.211   8.868   5.822
 6868WAT      O20845   6.489   7.714   1.659
 6868WAT     H120846   6.431   7.771   1.717
 6868WAT     H220847   6.533   7.771   1.590
 6869WAT      O20848   9.379   5.072   4.645
 6869WAT     H120849   9.360   5.160   4.601
 6869WAT     H220850   9.295   5.036   4.685
 6870WAT      O20851   7.850   1.615   6.862
 6870WAT     H120852   7.865   1.619   6.763
 6870WAT     H220853   7.752   1.604   6.880
 6871WAT      O20854   2.761   6.385   9.325
 6871WAT     H120855   2.676   6.420   9.286
 6871WAT     H220856   2.833   6.387   9.255
 6872WAT      O20857   5.341   6.555   0.305
 6872WAT     H120858   5.340   6.525   0.400
 6872WAT     H220859   5.250   6.542   0.266
 6873WAT      O20860   4.380   7.151   2.923
 6873WAT     H120861   4.386   7.218   2.850
 6873WAT     H220862   4.413   7.062   2.890
 6874WAT      O20863   2.707   5.142   3.539
 6874WAT     H120864   2.788   5.193   3.567
 6874WAT     H220865   2.731   5.046   3.526
 6875WAT      O20866   3.627   4.865   0.973
 6875WAT     H120867   3.637   4.769   1.001
 6875WAT     H220868   3.531   4.891   0.979
 6876WAT      O20869   6.505   2.117   8.469
 6876WAT     H120870   6.596   2.144   8.500
 6876WAT     H220871   6.436   2.155   8.531
 6877WAT      O20872   7.302   0.589   5.315
 6877WAT     H120873   7.358   0.581   5.232
 6877WAT     H220874   7.247   0.507   5.326
 6878WAT      O20875   8.320   6.878   9.583
 6878WAT     H120876   8.270   6.840   9.505
 6878WAT     H220877   8.258   6.890   9.661
 6879WAT      O20878   5.558   1.802   9.088
 6879WAT     H120879   5.567   1.886   9.034
 6879WAT     H220880   5.473   1.804   9.139
 6880WAT      O20881   1.299   6.068   5.855
 6880WAT     H120882   1.211   6.074   5.807
 6880WAT     H220883   1.333   6.161   5.872
 6881WAT      O20884   2.595   0.340   6.489
 6881WAT     H120885   2.595   0.293   6.400
 6881WAT     H220886   2.674   0.310   6.543
 6882WAT      O20887   5.439   3.999   3.114
 6882WAT     H120888   5.390   4.027   3.031
 6882WAT     H220889   5.537   3.998   3.097
 6883WAT      O20890   3.710   9.758   7.781
 6883WAT     H120891   3.760   9.756   7.868
 6883WAT     H220892   3.674   9.850   7.765
 6884WAT      O20893   7.091   5.892   2.739
 6884WAT     H120894   7.190   5.903   2.743
 6884WAT     H220895   7.068   5.794   2.738
 6885WAT      O20896   3.161   2.991   2.532
 6885WAT     H120897   3.231   3.001   2.603
 6885WAT     H220898   3.107   3.075   2.527
 6886WAT      O20899   5.262   5.188   2.414
 6886WAT     H120900   5.205   5.268   2.398
 6886WAT     H220901   5.210   5.105   2.395
 6887WAT      O20902   5.470   9.353   2.217
 6887WAT     H120903   5.570   9.349   2.222
 6887WAT     H220904   5.433   9.390   2.302
 6888WAT      O20905   0.534   4.678   0.495
 6888WAT     H120906   0.594   4.630   0.559
 6888WAT     H220907   0.508   4.617   0.420
 6889WAT      O20908   4.529   6.518   1.098
 6889WAT     H120909   4.483   6.454   1.159
 6889WAT     H220910   4.462   6.580   1.058
 6890WAT      O20911   5.241   6.820   2.543
 6890WAT     H120912   5.186   6.762   2.603
 6890WAT     H220913   5.266   6.768   2.461
 6891WAT      O20914   7.903   1.990   7.211
 6891WAT     H120915   7.819   1.938   7.226
 6891WAT     H220916   7.982   1.934   7.237
 6892WAT      O20917   2.346   4.339   0.318
 6892WAT     H120918   2.254   4.323   0.282
 6892WAT     H220919   2.387   4.251   0.343
 6893WAT      O20920   7.212   0.300   8.387
 6893WAT     H120921   7.251   0.350   8.464
 6893WAT     H220922   7.202   0.203   8.410
 6894WAT      O20923   3.736   4.825   2.138
 6894WAT     H120924   3.831   4.831   2.108
 6894WAT     H220925   3.732   4.784   2.229
 6895WAT      O20926   0.861   5.529   2.489
 6895WAT     H120927   0.797   5.508   2.416
 6895WAT     H220928   0.914   5.611   2.465
 6896WAT      O20929   4.464   1.220   4.315
 6896WAT     H120930   4.385   1.264   4.357
 6896WAT     H220931   4.501   1.279   4.243
 6897WAT      O20932   4.739   3.414   4.985
 6897WAT     H120933   4.794   3.496   5.001
 6897WAT     H220934   4.800   3.336   4.970
 6898WAT      O20935   3.851   8.217   3.107
 6898WAT     H120936   3.924   8.240   3.170
 6898WAT     H220937   3.855   8.120   3.085
 6899WAT      O20938   5.816   8.073   1.861
 6899WAT     H120939   5.890   8.141   1.856
 6899WAT     H220940   5.789   8.061   1.957
 6900WAT      O20941   8.522   8.515   7.064
 6900WAT     H120942   8.501   8.436   7.121
 6900WAT     H220943   8.608   8.499   7.016
 6901WAT      O20944   9.399   7.430   6.173
 6901WAT     H120945   9.304   7.461   6.181
 6901WAT     H220946   9.404   7.333   6.197
 6902WAT      O20947   4.846   2.014   1.581
 6902WAT     H120948   4.863   1.933   1.637
 6902WAT     H220949   4.933   2.057   1.557
 6903WAT      O20950   6.504   6.128   5.799
 6903WAT     H120951   6.565   6.078   5.861
 6903WAT     H220952   6.442   6.185   5.853
 6904WAT      O20953   4.047   0.958   0.089
 6904WAT     H120954   3.952   0.988   0.094
 6904WAT     H220955   4.104   1.032   0.054
 6905WAT      O20956   7.059   9.621   6.957
 6905WAT     H120957   7.009   9.640   6.873
 6905WAT     H220958   7.096   9.528   6.954
 6906WAT      O20959   8.234   2.496   6.822
 6906WAT     H120960   8.275   2.406   6.831
 6906WAT     H220961   8.220   2.535   6.913
 6907WAT      O20962   0.184   1.157   5.904
 6907WAT     H120963   0.155   1.248   5.933
 6907WAT     H220964   0.109   1.112   5.855
 6908WAT      O20965   8.271   7.008   8.527
 6908WAT     H120966   8.215   7.034   8.606
 6908WAT     H220967   8.250   7.068   8.450
 6909WAT      O20968   2.749   7.537   9.506
 6909WAT     H120969   2.847   7.533   9.491
 6909WAT     H220970   2.730   7.551   9.604
 6910WAT      O20971   5.700   9.609   5.876
 6910WAT     H120972   5.663   9.636   5.964
 6910WAT     H220973   5.799   9.628   5.875
 6911WAT      O20974   1.737   6.607   2.599
 6911WAT     H120975   1.705   6.559   2.517
 6911WAT     H220976   1.682   6.690   2.613
 6912WAT      O20977   9.082   5.629   2.895
 6912WAT     H120978   9.067   5.712   2.841
 6912WAT     H220979   9.015   5.560   2.868
 6913WAT      O20980   0.502   8.531   1.414
 6913WAT     H120981   0.520   8.565   1.322
 6913WAT     H220982   0.507   8.431   1.415
 6914WAT      O20983   2.386   2.549   4.434
 6914WAT     H120984   2.462   2.605   4.468
 6914WAT     H220985   2.421   2.481   4.369
 6915WAT      O20986   3.967   7.936   7.285
 6915WAT     H120987   3.953   8.000   7.210
 6915WAT     H220988   3.946   7.843   7.254
 6916WAT      O20989   5.890   0.159   1.521
 6916WAT     H120990   5.818   0.223   1.495
 6916WAT     H220991   5.869   0.121   1.611
 6917WAT      O20992   2.070   8.498   6.146
 6917WAT     H120993   2.119   8.411   6.138
 6917WAT     H220994   2.126   8.564   6.196
 6918WAT      O20995   8.611   8.829   8.301
 6918WAT     H120996   8.595   8.751   8.241
 6918WAT     H220997   8.708   8.853   8.299
 6919WAT      O20998   1.406   9.548   7.328
 6919WAT     H120999   1.382   9.640   7.360
 6919WAT     H221000   1.432   9.552   7.231
 6920WAT      O21001   0.137   6.735   0.065
 6920WAT     H121002   0.161   6.638   0.077
 6920WAT     H221003   0.153   6.761  -0.030
 6921WAT      O21004   5.877   6.042   6.512
 6921WAT     H121005   5.916   6.126   6.474
 6921WAT     H221006   5.951   5.978   6.536
 6922WAT      O21007   3.652   0.982   4.371
 6922WAT     H121008   3.575   0.944   4.320
 6922WAT     H221009   3.701   1.048   4.313
 6923WAT      O21010   8.133   1.419   1.154
 6923WAT     H121011   8.108   1.444   1.247
 6923WAT     H221012   8.078   1.341   1.124
 6924WAT      O21013   9.118   2.472   4.104
 6924WAT     H121014   9.099   2.384   4.146
 6924WAT     H221015   9.214   2.478   4.079
 6925WAT      O21016   5.684   8.773   7.121
 6925WAT     H121017   5.772   8.726   7.119
 6925WAT     H221018   5.610   8.705   7.122
 6926WAT      O21019   9.000   1.227   8.253
 6926WAT     H121020   8.925   1.281   8.289
 6926WAT     H221021   9.059   1.284   8.196
 6927WAT      O21022   0.426   8.853   4.316
 6927WAT     H121023   0.442   8.819   4.224
 6927WAT     H221024   0.374   8.939   4.311
 6928WAT      O21025   2.831   5.711   1.348
 6928WAT     H121026   2.746   5.757   1.322
 6928WAT     H221027   2.810   5.617   1.377
 6929WAT      O21028   4.059   8.042   4.179
 6929WAT     H121029   4.057   7.943   4.186
 6929WAT     H221030   4.154   8.074   4.179
 6930WAT      O21031   3.284   0.761   0.678
 6930WAT     H121032   3.342   0.826   0.727
 6930WAT     H221033   3.303   0.668   0.711
 6931WAT      O21034   8.080   4.502   8.026
 6931WAT     H121035   8.144   4.578   8.013
 6931WAT     H221036   8.122   4.417   7.995
 6932WAT      O21037   5.570   0.154   4.948
 6932WAT     H121038   5.589   0.234   5.004
 6932WAT     H221039   5.480   0.163   4.905
 6933WAT      O21040   0.250   6.097   8.970
 6933WAT     H121041   0.224   6.193   8.987
 6933WAT     H221042   0.339   6.095   8.925
 6934WAT      O21043   7.675   5.444   1.320
 6934WAT     H121044   7.626   5.479   1.401
 6934WAT     H221045   7.610   5.395   1.261
 6935WAT      O21046   3.396   3.335   7.176
 6935WAT     H121047   3.459   3.258   7.164
 6935WAT     H221048   3.319   3.325   7.113
 6936WAT      O21049   9.222   5.136   8.882
 6936WAT     H121050   9.321   5.147   8.886
 6936WAT     H221051   9.178   5.209   8.934
 6937WAT      O21052   2.743   8.755   1.555
 6937WAT     H121053   2.758   8.675   1.498
 6937WAT     H221054   2.645   8.767   1.571
 6938WAT      O21055   5.045   0.704   6.350
 6938WAT     H121056   5.092   0.689   6.263
 6938WAT     H221057   4.949   0.676   6.342
 6939WAT      O21058   0.024   3.079   8.001
 6939WAT     H121059  -0.047   3.139   8.038
 6939WAT     H221060  -0.019   3.001   7.954
 6940WAT      O21061   6.078   6.044   4.584
 6940WAT     H121062   6.124   6.129   4.555
 6940WAT     H221063   6.034   6.002   4.505
 6941WAT      O21064   7.909   8.265   2.138
 6941WAT     H121065   7.994   8.306   2.104
 6941WAT     H221066   7.873   8.202   2.069
 6942WAT      O21067   9.184   6.960   1.210
 6942WAT     H121068   9.197   7.016   1.291
 6942WAT     H221069   9.154   6.869   1.236
 6943WAT      O21070   1.031   7.143   6.449
 6943WAT     H121071   1.058   7.050   6.473
 6943WAT     H221072   1.039   7.201   6.530
 6944WAT      O21073   4.979   4.908   6.010
 6944WAT     H121074   4.993   4.839   5.939
 6944WAT     H221075   4.908   4.877   6.073
 6945WAT      O21076   0.675   9.297   3.100
 6945WAT     H121077   0.760   9.296   3.153
 6945WAT     H221078   0.620   9.217   3.124
 6946WAT      O21079   5.330   0.760   8.168
 6946WAT     H121080   5.269   0.680   8.170
 6946WAT     H221081   5.329   0.805   8.257
 6947WAT      O21082   4.359   8.501   7.367
 6947WAT     H121083   4.372   8.569   7.440
 6947WAT     H221084   4.448   8.476   7.329
 6948WAT      O21085   1.584   9.468   1.741
 6948WAT     H121086   1.578   9.450   1.839
 6948WAT     H221087   1.647   9.403   1.699
 6949WAT      O21088   9.752   2.100   1.392
 6949WAT     H121089   9.826   2.075   1.329
 6949WAT     H221090   9.783   2.087   1.486
 6950WAT      O21091   5.606   2.643   7.931
 6950WAT     H121092   5.649   2.733   7.927
 6950WAT     H221093   5.597   2.614   8.026
 6951WAT      O21094   5.011   5.540   8.087
 6951WAT     H121095   5.057   5.623   8.055
 6951WAT     H221096   5.080   5.473   8.117
 6952WAT      O21097   3.537   8.250   2.838
 6952WAT     H121098   3.456   8.270   2.783
 6952WAT     H221099   3.509   8.207   2.924
 6953WAT      O21100   2.552   8.916   2.271
 6953WAT     H121101   2.628   8.953   2.325
 6953WAT     H221102   2.478   8.888   2.332
 6954WAT      O21103   7.699   4.164   2.386
 6954WAT     H121104   7.772   4.189   2.451
 6954WAT     H221105   7.740   4.116   2.308
 6955WAT      O21106   1.834   4.511   1.364
 6955WAT     H121107   1.853   4.608   1.348
 6955WAT     H221108   1.743   4.501   1.405
 6956WAT      O21109   3.665   3.416   1.401
 6956WAT     H121110   3.719   3.500   1.389
 6956WAT     H221111   3.727   3.337   1.403
 6957WAT      O21112   1.044   4.242   6.849
 6957WAT     H121113   0.944   4.247   6.850
 6957WAT     H221114   1.082   4.333   6.832
 6958WAT      O21115   8.006   4.281   8.331
 6958WAT     H121116   8.005   4.210   8.402
 6958WAT     H221117   8.026   4.239   8.242
 6959WAT      O21118   0.912   4.254   3.654
 6959WAT     H121119   0.813   4.245   3.671
 6959WAT     H221120   0.956   4.291   3.736
 6960WAT      O21121   4.184   4.263   1.934
 6960WAT     H121122   4.185   4.322   2.014
 6960WAT     H221123   4.107   4.199   1.940
 6961WAT      O21124   7.557   6.249   8.490
 6961WAT     H121125   7.543   6.195   8.407
 6961WAT     H221126   7.569   6.345   8.465
 6962WAT      O21127   7.481   9.209   6.133
 6962WAT     H121128   7.400   9.177   6.182
 6962WAT     H221129   7.557   9.219   6.197
 6963WAT      O21130   3.592   2.969   1.131
 6963WAT     H121131   3.650   2.913   1.072
 6963WAT     H221132   3.541   3.034   1.075
 6964WAT      O21133   1.447   7.612   8.351
 6964WAT     H121134   1.543   7.641   8.352
 6964WAT     H221135   1.427   7.559   8.433
 6965WAT      O21136   6.284   9.270   0.721
 6965WAT     H121137   6.209   9.295   0.659
 6965WAT     H221138   6.328   9.187   0.688
 6966WAT      O21139   7.248   1.029   4.459
 6966WAT     H121140   7.261   1.119   4.417
 6966WAT     H221141   7.158   0.993   4.432
 6967WAT      O21142   6.739   2.212   4.500
 6967WAT     H121143   6.721   2.185   4.405
 6967WAT     H221144   6.804   2.147   4.540
 6968WAT      O21145   0.741   4.756   1.377
 6968WAT     H121146   0.720   4.845   1.417
 6968WAT     H221147   0.774   4.768   1.284
 6969WAT      O21148   2.019   8.486   0.823
 6969WAT     H121149   2.036   8.448   0.914
 6969WAT     H221150   1.975   8.416   0.767
 6970WAT      O21151   3.264   2.486   8.298
 6970WAT     H121152   3.273   2.390   8.324
 6970WAT     H221153   3.256   2.542   8.380
 6971WAT      O21154   5.939   8.653   7.069
 6971WAT     H121155   5.968   8.629   7.162
 6971WAT     H221156   5.904   8.571   7.024
 6972WAT      O21157   7.131   1.789   8.923
 6972WAT     H121158   7.211   1.849   8.913
 6972WAT     H221159   7.161   1.697   8.947
 6973WAT      O21160   5.464   3.891   8.904
 6973WAT     H121161   5.428   3.925   8.817
 6973WAT     H221162   5.559   3.862   8.892
 6974WAT      O21163   5.809   7.087   8.058
 6974WAT     H121164   5.749   7.026   8.006
 6974WAT     H221165   5.904   7.061   8.041
 6975WAT      O21166   3.687   0.192   0.980
 6975WAT     H121167   3.625   0.230   1.049
 6975WAT     H221168   3.685   0.250   0.898
 6976WAT      O21169   6.806   8.787   7.271
 6976WAT     H121170   6.823   8.881   7.300
 6976WAT     H221171   6.804   8.782   7.172
 6977WAT      O21172   6.748   0.921   5.722
 6977WAT     H121173   6.844   0.894   5.714
 6977WAT     H221174   6.737   0.983   5.800
 6978WAT      O21175   7.225   7.982   4.220
 6978WAT     H121176   7.302   8.014   4.164
 6978WAT     H221177   7.258   7.955   4.310
 6979WAT      O21178   9.148   4.752   3.674
 6979WAT     H121179   9.122   4.785   3.584
 6979WAT     H221180   9.121   4.818   3.744
 6980WAT      O21181   4.185   1.143   1.114
 6980WAT     H121182   4.151   1.235   1.095
 6980WAT     H221183   4.282   1.147   1.137
 6981WAT      O21184   9.594   6.941   8.799
 6981WAT     H121185   9.504   6.985   8.804
 6981WAT     H221186   9.586   6.855   8.748
 6982WAT      O21187   3.926   8.240   6.729
 6982WAT     H121188   3.925   8.331   6.770
 6982WAT     H221189   3.871   8.241   6.645
 6983WAT      O21190   1.340   1.485   7.093
 6983WAT     H121191   1.395   1.485   7.009
 6983WAT     H221192   1.314   1.579   7.116
 6984WAT      O21193   3.755   4.524   7.657
 6984WAT     H121194   3.718   4.574   7.735
 6984WAT     H221195   3.816   4.452   7.689
 6985WAT      O21196   2.043   3.573   6.833
 6985WAT     H121197   1.980   3.647   6.855
 6985WAT     H221198   2.021   3.494   6.890
 6986WAT      O21199   2.350   1.390   7.061
 6986WAT     H121200   2.377   1.486   7.064
 6986WAT     H221201   2.251   1.384   7.051
 6987WAT      O21202   3.166   2.744   1.739
 6987WAT     H121203   3.195   2.835   1.710
 6987WAT     H221204   3.155   2.685   1.658
 6988WAT      O21205   0.533   7.214   7.755
 6988WAT     H121206   0.534   7.265   7.670
 6988WAT     H221207   0.624   7.216   7.797
 6989WAT      O21208   7.533   7.497   9.512
 6989WAT     H121209   7.607   7.433   9.490
 6989WAT     H221210   7.572   7.579   9.554
 6990WAT      O21211   1.700   1.188   7.683
 6990WAT     H121212   1.780   1.247   7.673
 6990WAT     H221213   1.676   1.148   7.595
 6991WAT      O21214   2.610   9.301   4.334
 6991WAT     H121215   2.659   9.234   4.390
 6991WAT     H221216   2.591   9.383   4.389
 6992WAT      O21217   2.828   1.824   4.552
 6992WAT     H121218   2.925   1.815   4.531
 6992WAT     H221219   2.787   1.733   4.559
 6993WAT      O21220   9.238   8.622   1.405
 6993WAT     H121221   9.175   8.669   1.343
 6993WAT     H221222   9.283   8.689   1.464
 6994WAT      O21223   9.828   5.294   5.835
 6994WAT     H121224   9.733   5.275   5.860
 6994WAT     H221225   9.849   5.390   5.857
 6995WAT      O21226   8.127   1.635   4.641
 6995WAT     H121227   8.171   1.724   4.632
 6995WAT     H221228   8.183   1.565   4.596
 6996WAT      O21229   7.768   6.193   4.621
 6996WAT     H121230   7.786   6.262   4.691
 6996WAT     H221231   7.709   6.122   4.658
 6997WAT      O21232   9.401   6.779   0.272
 6997WAT     H121233   9.466   6.734   0.334
 6997WAT     H221234   9.433   6.769   0.178
 6998WAT      O21235   4.526   8.033   5.058
 6998WAT     H121236   4.581   8.105   5.015
 6998WAT     H221237   4.478   7.981   4.988
 6999WAT      O21238   7.447   6.745   3.992
 6999WAT     H121239   7.419   6.678   4.061
 6999WAT     H221240   7.434   6.837   4.028
 7000WAT      O21241   6.356   3.691   4.984
 7000WAT     H121242   6.439   3.677   4.931
 7000WAT     H221243   6.377   3.750   5.062
 7001WAT      O21244   1.022   0.181   2.446
 7001WAT     H121245   0.946   0.227   2.401
 7001WAT     H221246   1.036   0.091   2.404
 7002WAT      O21247   0.099   0.592   1.679
 7002WAT     H121248   0.016   0.591   1.623
 7002WAT     H221249   0.085   0.535   1.760
 7003WAT      O21250   0.628   0.908   3.339
 7003WAT     H121251   0.529   0.904   3.329
 7003WAT     H221252   0.671   0.891   3.250
 7004WAT      O21253   9.652   2.495   1.918
 7004WAT     H121254   9.590   2.571   1.900
 7004WAT     H221255   9.645   2.428   1.844
 7005WAT      O21256   4.421   9.499   3.291
 7005WAT     H121257   4.377   9.577   3.246
 7005WAT     H221258   4.515   9.490   3.256
 7006WAT      O21259   8.618   2.749   4.151
 7006WAT     H121260   8.593   2.802   4.070
 7006WAT     H221261   8.707   2.779   4.184
 7007WAT      O21262   8.587   6.795   3.054
 7007WAT     H121263   8.609   6.889   3.080
 7007WAT     H221264   8.546   6.747   3.131
 7008WAT      O21265   1.427   2.779   6.597
 7008WAT     H121266   1.408   2.744   6.689
 7008WAT     H221267   1.429   2.879   6.600
 7009WAT      O21268   6.301   5.231   1.614
 7009WAT     H121269   6.252   5.158   1.661
 7009WAT     H221270   6.352   5.286   1.681
 7010WAT      O21271   8.802   8.600   0.876
 7010WAT     H121272   8.741   8.642   0.943
 7010WAT     H221273   8.763   8.513   0.845
 7011WAT      O21274   5.993   9.816   8.088
 7011WAT     H121275   6.008   9.842   7.993
 7011WAT     H221276   6.077   9.778   8.126
 7012WAT      O21277   4.019   7.113   5.069
 7012WAT     H121278   4.051   7.207   5.068
 7012WAT     H221279   3.946   7.103   5.137
 7013WAT      O21280   4.675   5.441   0.581
 7013WAT     H121281   4.629   5.523   0.547
 7013WAT     H221282   4.608   5.380   0.622
 7014WAT      O21283   2.606   9.552   4.639
 7014WAT     H121284   2.550   9.486   4.689
 7014WAT     H221285   2.565   9.571   4.550
 7015WAT      O21286   3.927   2.822   6.796
 7015WAT     H121287   3.903   2.887   6.868
 7015WAT     H221288   4.021   2.792   6.809
 7016WAT      O21289   7.026   8.972   0.281
 7016WAT     H121290   7.036   9.029   0.363
 7016WAT     H221291   6.952   9.008   0.224
 7017WAT      O21292   0.203   6.291   0.881
 7017WAT     H121293   0.261   6.285   0.961
 7017WAT     H221294   0.169   6.200   0.857
 7018WAT      O21295   7.025   3.721   6.568
 7018WAT     H121296   7.103   3.756   6.516
 7018WAT     H221297   6.995   3.789   6.634
 7019WAT      O21298   0.486   4.562   2.632
 7019WAT     H121299   0.561   4.601   2.579
 7019WAT     H221300   0.496   4.462   2.636
 7020WAT      O21301   2.266   7.145   1.674
 7020WAT     H121302   2.243   7.234   1.713
 7020WAT     H221303   2.320   7.092   1.739
 7021WAT      O21304   7.306   9.206   4.760
 7021WAT     H121305   7.247   9.184   4.682
 7021WAT     H221306   7.251   9.207   4.844
 7022WAT      O21307   5.694   6.231   7.682
 7022WAT     H121308   5.615   6.293   7.685
 7022WAT     H221309   5.662   6.139   7.657
 7023WAT      O21310   8.336   2.466   2.665
 7023WAT     H121311   8.305   2.374   2.687
 7023WAT     H221312   8.325   2.525   2.745
 7024WAT      O21313   1.130   5.953   9.609
 7024WAT     H121314   1.047   6.001   9.580
 7024WAT     H221315   1.210   5.992   9.563
 7025WAT      O21316   1.563   9.368   7.907
 7025WAT     H121317   1.486   9.407   7.958
 7025WAT     H221318   1.599   9.288   7.957
 7026WAT      O21319   4.072   8.979   3.514
 7026WAT     H121320   4.093   8.890   3.475
 7026WAT     H221321   3.974   8.996   3.508
 7027WAT      O21322   1.975   7.445   5.884
 7027WAT     H121323   2.009   7.351   5.884
 7027WAT     H221324   1.927   7.463   5.970
 7028WAT      O21325   4.220   6.775   8.500
 7028WAT     H121326   4.156   6.826   8.443
 7028WAT     H221327   4.171   6.732   8.576
 7029WAT      O21328   0.069   5.121   4.569
 7029WAT     H121329   0.001   5.188   4.538
 7029WAT     H221330   0.023   5.034   4.589
 7030WAT      O21331   1.769   1.840   9.254
 7030WAT     H121332   1.699   1.808   9.318
 7030WAT     H221333   1.854   1.791   9.270
 7031WAT      O21334   2.174   7.283   9.643
 7031WAT     H121335   2.153   7.274   9.740
 7031WAT     H221336   2.231   7.206   9.614
 7032WAT      O21337   2.697   2.072   5.141
 7032WAT     H121338   2.660   1.982   5.164
 7032WAT     H221339   2.647   2.142   5.193
 7033WAT      O21340   1.447   6.631   4.695
 7033WAT     H121341   1.384   6.556   4.713
 7033WAT     H221342   1.518   6.632   4.765
 7034WAT      O21343   7.718   1.829   0.568
 7034WAT     H121344   7.649   1.782   0.512
 7034WAT     H221345   7.794   1.766   0.586
 7035WAT      O21346   8.256   5.975   7.895
 7035WAT     H121347   8.206   5.993   7.979
 7035WAT     H221348   8.276   6.061   7.848
 7036WAT      O21349   6.849   4.354   7.439
 7036WAT     H121350   6.850   4.438   7.385
 7036WAT     H221351   6.870   4.375   7.535
 7037WAT      O21352   9.108   2.229   9.200
 7037WAT     H121353   9.008   2.232   9.194
 7037WAT     H221354   9.135   2.143   9.244
 7038WAT      O21355   1.662   7.297   6.097
 7038WAT     H121356   1.603   7.351   6.036
 7038WAT     H221357   1.605   7.246   6.161
 7039WAT      O21358   1.702   7.936   5.596
 7039WAT     H121359   1.674   8.025   5.560
 7039WAT     H221360   1.800   7.936   5.612
 7040WAT      O21361   0.974   7.388   7.268
 7040WAT     H121362   0.915   7.380   7.349
 7040WAT     H221363   0.983   7.485   7.243
 7041WAT      O21364   6.553   9.307   3.878
 7041WAT     H121365   6.565   9.383   3.814
 7041WAT     H221366   6.628   9.306   3.944
 7042WAT      O21367   7.263   2.035   8.174
 7042WAT     H121368   7.184   1.975   8.183
 7042WAT     H221369   7.238   2.118   8.123
 7043WAT      O21370   0.108   2.696   7.946
 7043WAT     H121371   0.034   2.749   7.903
 7043WAT     H221372   0.076   2.604   7.967
 7044WAT      O21373   2.657   9.262   5.255
 7044WAT     H121374   2.656   9.345   5.311
 7044WAT     H221375   2.732   9.203   5.283
 7045WAT      O21376   4.025   9.470   7.762
 7045WAT     H121377   4.088   9.544   7.739
 7045WAT     H221378   4.040   9.392   7.702
 7046WAT      O21379   2.834   2.698   6.624
 7046WAT     H121380   2.818   2.722   6.720
 7046WAT     H221381   2.860   2.780   6.574
 7047WAT      O21382   1.178   0.123   0.345
 7047WAT     H121383   1.223   0.045   0.302
 7047WAT     H221384   1.145   0.098   0.436
 7048WAT      O21385   4.893   1.316   5.479
 7048WAT     H121386   4.960   1.390   5.477
 7048WAT     H221387   4.826   1.334   5.551
 7049WAT      O21388   1.259   6.198   3.084
 7049WAT     H121389   1.254   6.113   3.136
 7049WAT     H221390   1.337   6.195   3.022
 7050WAT      O21391   9.259   1.190   2.244
 7050WAT     H121392   9.208   1.263   2.290
 7050WAT     H221393   9.348   1.179   2.288
 7051WAT      O21394   4.651   4.190   8.135
 7051WAT     H121395   4.595   4.231   8.063
 7051WAT     H221396   4.615   4.217   8.224
 7052WAT      O21397   1.128   4.419  -0.002
 7052WAT     H121398   1.179   4.355   0.055
 7052WAT     H221399   1.032   4.418   0.024
 7053WAT      O21400   7.601   7.963   4.399
 7053WAT     H121401   7.668   7.897   4.433
 7053WAT     H221402   7.510   7.936   4.429
 7054WAT      O21403   0.761   1.989   3.603
 7054WAT     H121404   0.857   1.962   3.597
 7054WAT     H221405   0.734   1.999   3.699
 7055WAT      O21406   5.702   7.776   2.263
 7055WAT     H121407   5.687   7.720   2.181
 7055WAT     H221408   5.663   7.729   2.342
 7056WAT      O21409   9.855   1.468   7.182
 7056WAT     H121410   9.764   1.475   7.222
 7056WAT     H221411   9.915   1.536   7.224
 7057WAT      O21412   6.987   6.227   2.244
 7057WAT     H121413   7.039   6.209   2.327
 7057WAT     H221414   6.965   6.141   2.198
 7058WAT      O21415   7.656   7.027   6.506
 7058WAT     H121416   7.614   7.053   6.593
 7058WAT     H221417   7.654   6.927   6.497
 7059WAT      O21418   8.050   1.874   0.968
 7059WAT     H121419   8.116   1.812   0.927
 7059WAT     H221420   8.003   1.925   0.895
 7060WAT      O21421   4.250   2.425   2.407
 7060WAT     H121422   4.293   2.497   2.462
 7060WAT     H221423   4.261   2.446   2.310
 7061WAT      O21424   4.409   0.446   4.381
 7061WAT     H121425   4.371   0.355   4.394
 7061WAT     H221426   4.472   0.446   4.303
 7062WAT      O21427   3.930   5.853   1.869
 7062WAT     H121428   3.894   5.773   1.822
 7062WAT     H221429   4.030   5.851   1.866
 7063WAT      O21430   5.638   2.104   3.575
 7063WAT     H121431   5.588   2.185   3.605
 7063WAT     H221432   5.723   2.096   3.627
 7064WAT      O21433   2.937   0.723   8.894
 7064WAT     H121434   2.937   0.625   8.917
 7064WAT     H221435   2.896   0.736   8.804
 7065WAT      O21436   6.164   4.093   6.341
 7065WAT     H121437   6.069   4.061   6.344
 7065WAT     H221438   6.222   4.019   6.308
 7066WAT      O21439   9.689   9.797   8.374
 7066WAT     H121440   9.593   9.776   8.395
 7066WAT     H221441   9.718   9.743   8.295
 7067WAT      O21442   0.247   1.038   8.725
 7067WAT     H121443   0.340   1.001   8.730
 7067WAT     H221444   0.182   0.963   8.717
 7068WAT      O21445   6.734   0.374   1.744
 7068WAT     H121446   6.740   0.444   1.815
 7068WAT     H221447   6.820   0.324   1.738
 7069WAT      O21448   7.739   2.515   5.537
 7069WAT     H121449   7.693   2.453   5.600
 7069WAT     H221450   7.719   2.609   5.562
 7070WAT      O21451   8.644   7.086   2.242
 7070WAT     H121452   8.660   7.103   2.339
 7070WAT     H221453   8.563   7.030   2.230
 7071WAT      O21454   1.069   8.766   7.621
 7071WAT     H121455   1.070   8.729   7.528
 7071WAT     H221456   1.080   8.866   7.617
 7072WAT      O21457   2.733   4.602   0.156
 7072WAT     H121458   2.768   4.677   0.099
 7072WAT     H221459   2.757   4.618   0.251
 7073WAT      O21460   9.511   1.575   6.716
 7073WAT     H121461   9.524   1.539   6.808
 7073WAT     H221462   9.501   1.499   6.652
 7074WAT      O21463   9.235   1.833   4.958
 7074WAT     H121464   9.319   1.880   4.929
 7074WAT     H221465   9.155   1.881   4.921
 7075WAT      O21466   0.760   2.938   0.513
 7075WAT     H121467   0.836   3.003   0.521
 7075WAT     H221468   0.751   2.909   0.417
 7076WAT      O21469   2.013   8.162   0.843
 7076WAT     H121470   2.042   8.066   0.833
 7076WAT     H221471   2.080   8.211   0.898
 7077WAT      O21472   4.491   3.464   2.781
 7077WAT     H121473   4.414   3.430   2.727
 7077WAT     H221474   4.548   3.387   2.809
 7078WAT      O21475   9.760   5.305   8.458
 7078WAT     H121476   9.784   5.401   8.449
 7078WAT     H221477   9.725   5.271   8.371
 7079WAT      O21478   2.437   8.037   5.162
 7079WAT     H121479   2.401   8.035   5.069
 7079WAT     H221480   2.492   7.955   5.178
 7080WAT      O21481   7.284   9.676   8.220
 7080WAT     H121482   7.347   9.740   8.175
 7080WAT     H221483   7.328   9.587   8.230
 7081WAT      O21484   3.975   8.516   6.901
 7081WAT     H121485   4.040   8.576   6.854
 7081WAT     H221486   3.882   8.551   6.889
 7082WAT      O21487   4.739   8.109   1.168
 7082WAT     H121488   4.657   8.054   1.153
 7082WAT     H221489   4.802   8.059   1.228
 7083WAT      O21490   1.160   7.810   4.070
 7083WAT     H121491   1.128   7.776   4.158
 7083WAT     H221492   1.183   7.732   4.011
 7084WAT      O21493   0.637   8.313   6.570
 7084WAT     H121494   0.725   8.359   6.554
 7084WAT     H221495   0.637   8.225   6.522
 7085WAT      O21496   7.833   3.835   7.807
 7085WAT     H121497   7.810   3.780   7.887
 7085WAT     H221498   7.755   3.894   7.783
 7086WAT      O21499   0.025   5.584   9.086
 7086WAT     H121500   0.094   5.514   9.105
 7086WAT     H221501   0.046   5.667   9.137
 7087WAT      O21502   7.425   6.366   0.733
 7087WAT     H121503   7.464   6.318   0.655
 7087WAT     H221504   7.387   6.454   0.704
 7088WAT      O21505   7.495   4.589   3.074
 7088WAT     H121506   7.405   4.585   3.030
 7088WAT     H221507   7.490   4.645   3.156
 7089WAT      O21508   9.602   4.164   7.941
 7089WAT     H121509   9.521   4.219   7.919
 7089WAT     H221510   9.680   4.224   7.953
 7090WAT      O21511   7.101   1.318   2.313
 7090WAT     H121512   7.174   1.335   2.379
 7090WAT     H221513   7.113   1.377   2.233
 7091WAT      O21514   5.758   7.325   0.791
 7091WAT     H121515   5.749   7.289   0.698
 7091WAT     H221516   5.790   7.252   0.852
 7092WAT      O21517   0.944   2.713   3.818
 7092WAT     H121518   1.023   2.692   3.760
 7092WAT     H221519   0.860   2.690   3.770
 7093WAT      O21520   7.983   7.140   7.953
 7093WAT     H121521   8.040   7.194   7.890
 7093WAT     H221522   8.032   7.056   7.978
 7094WAT      O21523   5.439   3.008   2.082
 7094WAT     H121524   5.492   2.970   2.007
 7094WAT     H221525   5.441   3.108   2.078
 7095WAT      O21526   4.142   6.202   0.884
 7095WAT     H121527   4.161   6.143   0.806
 7095WAT     H221528   4.210   6.186   0.955
 7096WAT      O21529   8.145   4.395   6.533
 7096WAT     H121530   8.195   4.390   6.447
 7096WAT     H221531   8.104   4.486   6.543
 7097WAT      O21532   2.936   7.586   4.936
 7097WAT     H121533   2.967   7.658   4.875
 7097WAT     H221534   2.942   7.616   5.031
 7098WAT      O21535   1.043   9.292   2.186
 7098WAT     H121536   1.042   9.376   2.132
 7098WAT     H221537   1.070   9.313   2.280
 7099WAT      O21538   4.398   9.270   8.306
 7099WAT     H121539   4.448   9.344   8.350
 7099WAT     H221540   4.351   9.216   8.376
 7100WAT      O21541   8.832   3.639   7.659
 7100WAT     H121542   8.863   3.561   7.713
 7100WAT     H221543   8.750   3.678   7.702
 7101WAT      O21544   4.155   6.113   8.844
 7101WAT     H121545   4.112   6.135   8.931
 7101WAT     H221546   4.255   6.115   8.854
 7102WAT      O21547   6.100   8.732   8.013
 7102WAT     H121548   6.125   8.752   8.108
 7102WAT     H221549   6.046   8.648   8.011
 7103WAT      O21550   4.192   2.948   7.667
 7103WAT     H121551   4.279   2.949   7.716
 7103WAT     H221552   4.180   3.036   7.620
 7104WAT      O21553   6.564   7.433   9.416
 7104WAT     H121554   6.490   7.447   9.350
 7104WAT     H221555   6.525   7.418   9.507
 7105WAT      O21556   4.106   9.637   5.779
 7105WAT     H121557   4.071   9.543   5.776
 7105WAT     H221558   4.078   9.686   5.696
 7106WAT      O21559   0.445   7.721   9.656
 7106WAT     H121560   0.438   7.771   9.743
 7106WAT     H221561   0.492   7.777   9.589
 7107WAT      O21562   0.566   7.410   7.546
 7107WAT     H121563   0.548   7.376   7.454
 7107WAT     H221564   0.489   7.467   7.576
 7108WAT      O21565   4.262   8.723   5.388
 7108WAT     H121566   4.192   8.662   5.425
 7108WAT     H221567   4.238   8.817   5.408
 7109WAT      O21568   6.374   0.541   5.242
 7109WAT     H121569   6.319   0.458   5.256
 7109WAT     H221570   6.445   0.523   5.174
 7110WAT      O21571   2.754   4.840   5.513
 7110WAT     H121572   2.685   4.782   5.470
 7110WAT     H221573   2.837   4.840   5.458
 7111WAT      O21574   2.449   8.931   6.850
 7111WAT     H121575   2.441   9.029   6.829
 7111WAT     H221576   2.545   8.906   6.856
 7112WAT      O21577   1.801   4.282   0.425
 7112WAT     H121578   1.880   4.240   0.471
 7112WAT     H221579   1.786   4.236   0.337
 7113WAT      O21580   3.404   0.732   7.754
 7113WAT     H121581   3.361   0.786   7.826
 7113WAT     H221582   3.416   0.787   7.672
 7114WAT      O21583   3.434   0.424   5.059
 7114WAT     H121584   3.521   0.426   5.109
 7114WAT     H221585   3.395   0.332   5.062
 7115WAT      O21586   6.552   4.007   3.962
 7115WAT     H121587   6.539   4.018   3.864
 7115WAT     H221588   6.603   4.085   3.998
 7116WAT      O21589   7.543   9.021   2.261
 7116WAT     H121590   7.475   9.025   2.188
 7116WAT     H221591   7.634   9.023   2.222
 7117WAT      O21592   2.985   0.659   0.975
 7117WAT     H121593   3.027   0.740   0.934
 7117WAT     H221594   2.897   0.684   1.016
 7118WAT      O21595   6.792   8.179   2.702
 7118WAT     H121596   6.709   8.230   2.680
 7118WAT     H221597   6.865   8.244   2.726
 7119WAT      O21598   3.034   3.489   0.424
 7119WAT     H121599   3.100   3.514   0.353
 7119WAT     H221600   3.000   3.397   0.406
 7120WAT      O21601   6.741   9.033   3.826
 7120WAT     H121602   6.782   9.120   3.799
 7120WAT     H221603   6.682   8.999   3.753
 7121WAT      O21604   0.268   2.463   4.406
 7121WAT     H121605   0.283   2.473   4.504
 7121WAT     H221606   0.354   2.439   4.361
 7122WAT      O21607   5.809   7.340   6.317
 7122WAT     H121608   5.711   7.358   6.310
 7122WAT     H221609   5.836   7.340   6.413
 7123WAT      O21610   0.565   9.070   8.478
 7123WAT     H121611   0.562   9.031   8.570
 7123WAT     H221612   0.592   9.166   8.484
 7124WAT      O21613   2.534   7.006   4.205
 7124WAT     H121614   2.507   6.915   4.174
 7124WAT     H221615   2.631   7.006   4.229
 7125WAT      O21616   7.651   5.371   0.310
 7125WAT     H121617   7.613   5.291   0.357
 7125WAT     H221618   7.748   5.378   0.330
 7126WAT      O21619   7.990   7.194   4.571
 7126WAT     H121620   7.902   7.227   4.539
 7126WAT     H221621   8.026   7.257   4.640
 7127WAT      O21622   5.487   9.425   8.098
 7127WAT     H121623   5.477   9.393   8.192
 7127WAT     H221624   5.523   9.351   8.041
 7128WAT      O21625   1.168   7.023   8.259
 7128WAT     H121626   1.101   7.073   8.314
 7128WAT     H221627   1.119   6.966   8.192
 7129WAT      O21628   0.285   0.151   8.513
 7129WAT     H121629   0.384   0.137   8.521
 7129WAT     H221630   0.261   0.162   8.416
 7130WAT      O21631   3.075   5.833   1.286
 7130WAT     H121632   2.992   5.792   1.322
 7130WAT     H221633   3.154   5.779   1.314
 7131WAT      O21634   3.282   6.155   7.346
 7131WAT     H121635   3.189   6.120   7.348
 7131WAT     H221636   3.309   6.185   7.437
 7132WAT      O21637   9.223   1.768   3.654
 7132WAT     H121638   9.220   1.837   3.582
 7132WAT     H221639   9.229   1.677   3.612
 7133WAT      O21640   8.098   1.164   4.808
 7133WAT     H121641   8.037   1.102   4.859
 7133WAT     H221642   8.171   1.196   4.868
 7134WAT      O21643   8.796   2.687   1.286
 7134WAT     H121644   8.888   2.670   1.250
 7134WAT     H221645   8.773   2.784   1.278
 7135WAT      O21646   3.676   7.191   9.237
 7135WAT     H121647   3.667   7.111   9.177
 7135WAT     H221648   3.772   7.203   9.262
 7136WAT      O21649   0.046   0.861   5.852
 7136WAT     H121650  -0.005   0.940   5.817
 7136WAT     H221651   0.078   0.805   5.775
 7137WAT      O21652   7.564   9.191   7.064
 7137WAT     H121653   7.518   9.159   6.981
 7137WAT     H221654   7.658   9.216   7.042
 7138WAT      O21655   6.906   7.757   3.000
 7138WAT     H121656   6.979   7.778   3.065
 7138WAT     H221657   6.849   7.839   2.987
 7139WAT      O21658   8.175   8.549   3.098
 7139WAT     H121659   8.171   8.633   3.045
 7139WAT     H221660   8.132   8.563   3.187
 7140WAT      O21661   6.964   4.533   6.369
 7140WAT     H121662   7.055   4.540   6.329
 7140WAT     H221663   6.896   4.570   6.306
 7141WAT      O21664   9.549   1.146   4.531
 7141WAT     H121665   9.532   1.170   4.436
 7141WAT     H221666   9.609   1.066   4.535
 7142WAT      O21667   5.894   0.346   6.865
 7142WAT     H121668   5.831   0.328   6.789
 7142WAT     H221669   5.967   0.405   6.833
 7143WAT      O21670   9.767   1.798   9.336
 7143WAT     H121671   9.687   1.857   9.324
 7143WAT     H221672   9.774   1.770   9.431
 7144WAT      O21673   4.961   9.527   1.996
 7144WAT     H121674   4.884   9.508   2.057
 7144WAT     H221675   5.027   9.452   2.001
 7145WAT      O21676   2.651   4.021   9.280
 7145WAT     H121677   2.630   3.991   9.187
 7145WAT     H221678   2.654   3.942   9.341
 7146WAT      O21679   9.728   0.157   9.852
 7146WAT     H121680   9.808   0.098   9.840
 7146WAT     H221681   9.753   0.235   9.909
 7147WAT      O21682   0.536   6.484   1.241
 7147WAT     H121683   0.590   6.422   1.183
 7147WAT     H221684   0.573   6.484   1.333
 7148WAT      O21685   3.310   1.430   1.663
 7148WAT     H121686   3.339   1.525   1.659
 7148WAT     H221687   3.336   1.391   1.752
 7149WAT      O21688   8.490   2.006   6.057
 7149WAT     H121689   8.466   2.102   6.071
 7149WAT     H221690   8.447   1.950   6.128
 7150WAT      O21691   9.004   9.602   0.857
 7150WAT     H121692   8.930   9.557   0.908
 7150WAT     H221693   9.007   9.699   0.882
 7151WAT      O21694   1.453   7.496   3.082
 7151WAT     H121695   1.392   7.430   3.126
 7151WAT     H221696   1.433   7.588   3.116
 7152WAT      O21697   9.549   3.870   8.736
 7152WAT     H121698   9.457   3.893   8.703
 7152WAT     H221699   9.616   3.891   8.666
 7153WAT      O21700   1.697   1.817   0.598
 7153WAT     H121701   1.741   1.750   0.538
 7153WAT     H221702   1.767   1.871   0.645
 7154WAT      O21703   8.368   1.866   6.240
 7154WAT     H121704   8.408   1.781   6.273
 7154WAT     H221705   8.271   1.868   6.261
 7155WAT      O21706   4.021   1.381   8.570
 7155WAT     H121707   4.008   1.285   8.596
 7155WAT     H221708   4.017   1.389   8.470
 7156WAT      O21709   3.195   7.880   4.647
 7156WAT     H121710   3.291   7.864   4.624
 7156WAT     H221711   3.143   7.898   4.564
 7157WAT      O21712   7.982   1.601   1.820
 7157WAT     H121713   8.053   1.554   1.872
 7157WAT     H221714   8.024   1.672   1.763
 7158WAT      O21715   1.142   1.884   9.791
 7158WAT     H121716   1.226   1.840   9.762
 7158WAT     H221717   1.146   1.982   9.768
 7159WAT      O21718   3.916   1.916   5.580
 7159WAT     H121719   3.984   1.878   5.516
 7159WAT     H221720   3.883   2.004   5.545
 7160WAT      O21721   6.481   6.395   8.647
 7160WAT     H121722   6.417   6.323   8.675
 7160WAT     H221723   6.474   6.408   8.548
 7161WAT      O21724   1.248   4.348   7.706
 7161WAT     H121725   1.269   4.283   7.632
 7161WAT     H221726   1.331   4.397   7.732
 7162WAT      O21727   8.728   5.609   6.275
 7162WAT     H121728   8.722   5.528   6.333
 7162WAT     H221729   8.636   5.641   6.253
 7163WAT      O21730   4.354   3.763   4.200
 7163WAT     H121731   4.347   3.704   4.280
 7163WAT     H221732   4.448   3.796   4.191
 7164WAT      O21733   3.759   1.489   2.737
 7164WAT     H121734   3.761   1.532   2.647
 7164WAT     H221735   3.852   1.478   2.771
 7165WAT      O21736   7.963   2.759   8.052
 7165WAT     H121737   8.055   2.789   8.026
 7165WAT     H221738   7.906   2.753   7.970
 7166WAT      O21739   0.765   3.292   8.458
 7166WAT     H121740   0.736   3.201   8.489
 7166WAT     H221741   0.828   3.283   8.381
 7167WAT      O21742   4.112   2.196   1.312
 7167WAT     H121743   4.120   2.235   1.404
 7167WAT     H221744   4.055   2.114   1.315
 7168WAT      O21745   4.114   8.613   8.196
 7168WAT     H121746   4.058   8.689   8.165
 7168WAT     H221747   4.129   8.620   8.295
 7169WAT      O21748   2.522   8.674   5.869
 7169WAT     H121749   2.519   8.718   5.779
 7169WAT     H221750   2.443   8.613   5.879
 7170WAT      O21751   0.382   7.626   7.635
 7170WAT     H121752   0.325   7.685   7.693
 7170WAT     H221753   0.388   7.667   7.544
 7171WAT      O21754   2.942   1.586   5.561
 7171WAT     H121755   2.876   1.544   5.498
 7171WAT     H221756   2.914   1.567   5.655
 7172WAT      O21757   7.026   3.692   0.170
 7172WAT     H121758   7.011   3.606   0.122
 7172WAT     H221759   7.033   3.675   0.269
 7173WAT      O21760   2.490   8.059   0.101
 7173WAT     H121761   2.573   8.007   0.119
 7173WAT     H221762   2.451   8.031   0.013
 7174WAT      O21763   5.770   0.913   7.775
 7174WAT     H121764   5.739   0.992   7.827
 7174WAT     H221765   5.857   0.881   7.811
 7175WAT      O21766   6.102   2.791   5.340
 7175WAT     H121767   6.125   2.810   5.436
 7175WAT     H221768   6.143   2.704   5.313
 7176WAT      O21769   0.720   3.537   0.248
 7176WAT     H121770   0.794   3.603   0.244
 7176WAT     H221771   0.633   3.583   0.226
 7177WAT      O21772   4.899   5.949   0.649
 7177WAT     H121773   4.835   5.886   0.693
 7177WAT     H221774   4.988   5.942   0.693
 7178WAT      O21775   0.795   9.368   6.777
 7178WAT     H121776   0.769   9.282   6.821
 7178WAT     H221777   0.720   9.398   6.717
 7179WAT      O21778   1.943   3.553   5.878
 7179WAT     H121779   1.938   3.483   5.807
 7179WAT     H221780   1.917   3.513   5.966
 7180WAT      O21781   6.017   0.803   7.785
 7180WAT     H121782   6.019   0.731   7.855
 7180WAT     H221783   5.984   0.765   7.699
 7181WAT      O21784   6.924   8.493   6.979
 7181WAT     H121785   6.878   8.409   7.007
 7181WAT     H221786   7.014   8.498   7.021
 7182WAT      O21787   6.418   2.860   1.493
 7182WAT     H121788   6.426   2.906   1.581
 7182WAT     H221789   6.339   2.799   1.494
 7183WAT      O21790   0.762   5.473   9.808
 7183WAT     H121791   0.751   5.560   9.856
 7183WAT     H221792   0.859   5.452   9.799
 7184WAT      O21793   1.881   4.739   1.557
 7184WAT     H121794   1.880   4.817   1.620
 7184WAT     H221795   1.794   4.734   1.508
 7185WAT      O21796   7.092   6.541   8.788
 7185WAT     H121797   7.032   6.481   8.841
 7185WAT     H221798   7.045   6.571   8.705
 7186WAT      O21799   0.316   8.650   2.944
 7186WAT     H121800   0.321   8.696   3.033
 7186WAT     H221801   0.222   8.652   2.910
 7187WAT      O21802   3.091   9.172   0.844
 7187WAT     H121803   3.028   9.247   0.822
 7187WAT     H221804   3.076   9.097   0.779
 7188WAT      O21805   1.961   7.282   2.896
 7188WAT     H121806   1.916   7.366   2.867
 7188WAT     H221807   1.939   7.209   2.831
 7189WAT      O21808   0.954   2.283   9.732
 7189WAT     H121809   0.920   2.249   9.819
 7189WAT     H221810   0.946   2.382   9.728
 7190WAT      O21811   3.100   6.787   7.457
 7190WAT     H121812   3.079   6.798   7.360
 7190WAT     H221813   3.065   6.866   7.508
 7191WAT      O21814   7.905   5.330   6.796
 7191WAT     H121815   7.882   5.364   6.704
 7191WAT     H221816   8.002   5.306   6.799
 7192WAT      O21817   7.457   8.021   5.425
 7192WAT     H121818   7.476   8.048   5.331
 7192WAT     H221819   7.397   7.941   5.426
 7193WAT      O21820   6.101   7.234   1.982
 7193WAT     H121821   6.012   7.251   2.025
 7193WAT     H221822   6.173   7.271   2.040
 7194WAT      O21823   0.169   9.683   8.651
 7194WAT     H121824   0.183   9.770   8.603
 7194WAT     H221825   0.071   9.665   8.658
 7195WAT      O21826   2.857   2.522   8.229
 7195WAT     H121827   2.938   2.521   8.171
 7195WAT     H221828   2.816   2.614   8.226
 7196WAT      O21829   4.197   3.594   3.620
 7196WAT     H121830   4.255   3.539   3.560
 7196WAT     H221831   4.229   3.586   3.714
 7197WAT      O21832   7.324   1.104   1.738
 7197WAT     H121833   7.238   1.059   1.761
 7197WAT     H221834   7.308   1.177   1.672
 7198WAT      O21835   1.216   9.389   6.234
 7198WAT     H121836   1.154   9.316   6.204
 7198WAT     H221837   1.181   9.477   6.203
 7199WAT      O21838   2.192   3.778   9.082
 7199WAT     H121839   2.185   3.718   9.002
 7199WAT     H221840   2.108   3.771   9.136
 7200WAT      O21841   5.627   6.870   7.110
 7200WAT     H121842   5.542   6.827   7.077
 7200WAT     H221843   5.642   6.843   7.205
 7201WAT      O21844   0.833   5.979   2.694
 7201WAT     H121845   0.735   5.995   2.701
 7201WAT     H221846   0.871   5.963   2.786
 7202WAT      O21847   8.241   8.995   5.221
 7202WAT     H121848   8.258   8.897   5.216
 7202WAT     H221849   8.281   9.041   5.142
 7203WAT      O21850   1.883   4.463   0.762
 7203WAT     H121851   1.816   4.389   0.776
 7203WAT     H221852   1.969   4.423   0.729
 7204WAT      O21853   4.660   5.617   7.618
 7204WAT     H121854   4.701   5.527   7.607
 7204WAT     H221855   4.685   5.654   7.708
 7205WAT      O21856   8.470   9.716   1.874
 7205WAT     H121857   8.479   9.627   1.830
 7205WAT     H221858   8.375   9.729   1.903
 7206WAT      O21859   9.813   9.488   2.525
 7206WAT     H121860   9.888   9.486   2.459
 7206WAT     H221861   9.729   9.455   2.481
 7207WAT      O21862   7.283   6.357   5.206
 7207WAT     H121863   7.316   6.347   5.300
 7207WAT     H221864   7.204   6.419   5.205
 7208WAT      O21865   4.765   9.363   5.399
 7208WAT     H121866   4.697   9.436   5.405
 7208WAT     H221867   4.741   9.300   5.325
 7209WAT      O21868   5.961   8.153   3.037
 7209WAT     H121869   5.878   8.099   3.041
 7209WAT     H221870   6.032   8.111   3.094
 7210WAT      O21871   1.956   2.971   6.257
 7210WAT     H121872   1.951   2.871   6.255
 7210WAT     H221873   2.051   3.000   6.248
 7211WAT      O21874   8.694   0.116   8.122
 7211WAT     H121875   8.752   0.037   8.102
 7211WAT     H221876   8.751   0.198   8.132
 7212WAT      O21877   3.600   8.841   5.195
 7212WAT     H121878   3.582   8.835   5.293
 7212WAT     H221879   3.698   8.829   5.178
 7213WAT      O21880   6.620   1.377   8.690
 7213WAT     H121881   6.606   1.295   8.746
 7213WAT     H221882   6.532   1.419   8.671
 7214WAT      O21883   9.127   4.515   4.850
 7214WAT     H121884   9.078   4.586   4.799
 7214WAT     H221885   9.120   4.428   4.801
 7215WAT      O21886   4.025   0.568   1.515
 7215WAT     H121887   4.074   0.487   1.546
 7215WAT     H221888   3.997   0.623   1.594
 7216WAT      O21889   4.381   4.449   2.901
 7216WAT     H121890   4.394   4.493   2.989
 7216WAT     H221891   4.405   4.352   2.908
 7217WAT      O21892   5.175   0.125   5.380
 7217WAT     H121893   5.246   0.154   5.315
 7217WAT     H221894   5.200   0.154   5.472
 7218WAT      O21895   9.114   3.623   3.086
 7218WAT     H121896   9.196   3.583   3.047
 7218WAT     H221897   9.107   3.599   3.183
 7219WAT      O21898   1.891   2.464   2.465
 7219WAT     H121899   1.936   2.486   2.378
 7219WAT     H221900   1.898   2.366   2.482
 7220WAT      O21901   5.295   7.971   2.227
 7220WAT     H121902   5.206   8.014   2.218
 7220WAT     H221903   5.366   8.033   2.193
 7221WAT      O21904   3.572   2.046   4.533
 7221WAT     H121905   3.566   1.947   4.544
 7221WAT     H221906   3.557   2.070   4.437
 7222WAT      O21907   0.489   3.076   0.371
 7222WAT     H121908   0.460   3.049   0.463
 7222WAT     H221909   0.486   2.997   0.310
 7223WAT      O21910   9.380   1.202   9.557
 7223WAT     H121911   9.285   1.198   9.525
 7223WAT     H221912   9.412   1.109   9.576
 7224WAT      O21913   1.258   5.070   4.290
 7224WAT     H121914   1.172   5.037   4.328
 7224WAT     H221915   1.314   4.992   4.262
 7225WAT      O21916   5.079   7.410   3.706
 7225WAT     H121917   5.013   7.433   3.778
 7225WAT     H221918   5.167   7.388   3.748
 7226WAT      O21919   3.977   5.062   4.260
 7226WAT     H121920   4.073   5.050   4.288
 7226WAT     H221921   3.975   5.093   4.165
 7227WAT      O21922   0.900   5.014   0.454
 7227WAT     H121923   0.906   4.948   0.529
 7227WAT     H221924   0.976   5.079   0.462
 7228WAT      O21925   0.251   9.395   8.119
 7228WAT     H121926   0.203   9.313   8.087
 7228WAT     H221927   0.325   9.368   8.180
 7229WAT      O21928   5.479   5.508   9.763
 7229WAT     H121929   5.461   5.604   9.747
 7229WAT     H221930   5.572   5.486   9.734
 7230WAT      O21931   4.836   5.097   2.883
 7230WAT     H121932   4.843   5.169   2.952
 7230WAT     H221933   4.899   5.023   2.907
 7231WAT      O21934   7.266   0.649   2.855
 7231WAT     H121935   7.199   0.708   2.810
 7231WAT     H221936   7.349   0.644   2.801
 7232WAT      O21937   6.131   3.625   6.936
 7232WAT     H121938   6.042   3.668   6.952
 7232WAT     H221939   6.119   3.533   6.899
 7233WAT      O21940   4.762   6.798   7.897
 7233WAT     H121941   4.741   6.809   7.995
 7233WAT     H221942   4.725   6.876   7.846
 7234WAT      O21943   6.418   9.520   6.780
 7234WAT     H121944   6.323   9.491   6.785
 7234WAT     H221945   6.424   9.620   6.792
 7235WAT      O21946   1.423   5.439   6.572
 7235WAT     H121947   1.454   5.395   6.656
 7235WAT     H221948   1.482   5.413   6.496
 7236WAT      O21949   2.696   1.314   2.189
 7236WAT     H121950   2.791   1.291   2.170
 7236WAT     H221951   2.640   1.299   2.108
 7237WAT      O21952   9.083   6.457   8.738
 7237WAT     H121953   9.052   6.536   8.685
 7237WAT     H221954   9.026   6.378   8.717
 7238WAT      O21955   2.473   1.716   0.239
 7238WAT     H121956   2.478   1.806   0.195
 7238WAT     H221957   2.396   1.714   0.302
 7239WAT      O21958   4.516   2.633   5.245
 7239WAT     H121959   4.597   2.583   5.217
 7239WAT     H221960   4.446   2.568   5.276
 7240WAT      O21961   7.425   7.299   4.216
 7240WAT     H121962   7.507   7.277   4.269
 7240WAT     H221963   7.445   7.292   4.118
 7241WAT      O21964   1.879   6.533   3.453
 7241WAT     H121965   1.884   6.586   3.368
 7241WAT     H221966   1.784   6.515   3.475
 7242WAT      O21967   9.621   4.342   3.954
 7242WAT     H121968   9.714   4.328   3.922
 7242WAT     H221969   9.556   4.308   3.885
 7243WAT      O21970   6.641   0.390   0.254
 7243WAT     H121971   6.604   0.322   0.318
 7243WAT     H221972   6.566   0.444   0.216
 7244WAT      O21973   4.174   8.829   0.706
 7244WAT     H121974   4.253   8.797   0.653
 7244WAT     H221975   4.148   8.920   0.673
 7245WAT      O21976   1.406   7.154   2.743
 7245WAT     H121977   1.411   7.231   2.807
 7245WAT     H221978   1.444   7.181   2.655
 7246WAT      O21979   3.625   9.724   2.758
 7246WAT     H121980   3.558   9.719   2.684
 7246WAT     H221981   3.629   9.818   2.793
 7247WAT      O21982   7.016   9.786   0.285
 7247WAT     H121983   7.048   9.719   0.352
 7247WAT     H221984   6.922   9.813   0.308
 7248WAT      O21985   9.740   8.011   5.739
 7248WAT     H121986   9.736   7.958   5.654
 7248WAT     H221987   9.760   7.950   5.815
 7249WAT      O21988   5.545   9.410   7.257
 7249WAT     H121989   5.625   9.359   7.291
 7249WAT     H221990   5.480   9.422   7.332
 7250WAT      O21991   5.014   2.785   5.726
 7250WAT     H121992   5.014   2.885   5.723
 7250WAT     H221993   5.078   2.750   5.658
 7251WAT      O21994   6.781   8.932   8.385
 7251WAT     H121995   6.698   8.983   8.362
 7251WAT     H221996   6.834   8.913   8.302
 7252WAT      O21997   2.005   1.137   3.000
 7252WAT     H121998   1.973   1.191   3.077
 7252WAT     H221999   2.053   1.196   2.935
 7253WAT      O22000   7.199   6.176   0.788
 7253WAT     H122001   7.281   6.210   0.742
 7253WAT     H222002   7.163   6.246   0.849
 7254WAT      O22003   3.113   2.731   6.272
 7254WAT     H122004   3.125   2.637   6.301
 7254WAT     H222005   3.198   2.764   6.231
 7255WAT      O22006   9.879   0.295   4.352
 7255WAT     H122007   9.884   0.253   4.442
 7255WAT     H222008   9.953   0.261   4.294
 7256WAT      O22009   4.279   6.219   0.375
 7256WAT     H122010   4.216   6.159   0.326
 7256WAT     H222011   4.335   6.165   0.438
 7257WAT      O22012   9.537   3.106   3.569
 7257WAT     H122013   9.592   3.183   3.536
 7257WAT     H222014   9.583   3.063   3.647
 7258WAT      O22015   8.300   4.221   4.723
 7258WAT     H122016   8.209   4.205   4.759
 7258WAT     H222017   8.356   4.138   4.733
 7259WAT      O22018   0.887   5.762   1.098
 7259WAT     H122019   0.843   5.753   1.009
 7259WAT     H222020   0.859   5.848   1.141
 7260WAT      O22021   9.256   2.159   7.311
 7260WAT     H122022   9.331   2.149   7.245
 7260WAT     H222023   9.281   2.229   7.378
 7261WAT      O22024   9.238   7.990   4.746
 7261WAT     H122025   9.175   7.921   4.709
 7261WAT     H222026   9.317   7.998   4.686
 7262WAT      O22027   6.529   9.837   7.413
 7262WAT     H122028   6.618   9.860   7.374
 7262WAT     H222029   6.464   9.821   7.339
 7263WAT      O22030   2.776   3.229   9.110
 7263WAT     H122031   2.748   3.323   9.093
 7263WAT     H222032   2.762   3.208   9.207
 7264WAT      O22033   6.060   6.310   1.102
 7264WAT     H122034   5.969   6.316   1.144
 7264WAT     H222035   6.055   6.341   1.007
 7265WAT      O22036   2.390   3.441   6.900
 7265WAT     H122037   2.394   3.341   6.908
 7265WAT     H222038   2.298   3.469   6.873
 7266WAT      O22039   8.923   9.628   0.041
 7266WAT     H122040   8.944   9.723   0.016
 7266WAT     H222041   8.863   9.627   0.121
 7267WAT      O22042   9.735   7.598   0.359
 7267WAT     H122043   9.720   7.662   0.283
 7267WAT     H222044   9.820   7.620   0.405
 7268WAT      O22045   3.345   4.852   9.594
 7268WAT     H122046   3.360   4.797   9.512
 7268WAT     H222047   3.248   4.849   9.619
 7269WAT      O22048   6.892   0.398   3.414
 7269WAT     H122049   6.853   0.307   3.429
 7269WAT     H222050   6.875   0.455   3.495
 7270WAT      O22051   2.462   9.526   8.197
 7270WAT     H122052   2.421   9.441   8.230
 7270WAT     H222053   2.396   9.601   8.210
 7271WAT      O22054   8.503   6.560   1.486
 7271WAT     H122055   8.555   6.539   1.404
 7271WAT     H222056   8.526   6.495   1.558
 7272WAT      O22057   8.845   3.065   8.788
 7272WAT     H122058   8.940   3.083   8.810
 7272WAT     H222059   8.828   3.084   8.692
 7273WAT      O22060   2.268   1.764   1.507
 7273WAT     H122061   2.252   1.850   1.556
 7273WAT     H222062   2.240   1.775   1.412
 7274WAT      O22063   8.669   7.044   7.070
 7274WAT     H122064   8.743   7.099   7.107
 7274WAT     H222065   8.682   6.948   7.098
 7275WAT      O22066   2.669   7.047   4.730
 7275WAT     H122067   2.705   7.082   4.644
 7275WAT     H222068   2.585   7.096   4.753
 7276WAT      O22069   4.843   7.170   5.589
 7276WAT     H122070   4.780   7.248   5.584
 7276WAT     H222071   4.827   7.119   5.674
 7277WAT      O22072   9.241   2.513   5.257
 7277WAT     H122073   9.285   2.601   5.240
 7277WAT     H222074   9.301   2.456   5.314
 7278WAT      O22075   2.467   5.674   8.832
 7278WAT     H122076   2.367   5.673   8.837
 7278WAT     H222077   2.495   5.691   8.737
 7279WAT      O22078   2.763   9.186   7.058
 7279WAT     H122079   2.798   9.129   7.132
 7279WAT     H222080   2.664   9.176   7.052
 7280WAT      O22081   0.568   5.447   7.692
 7280WAT     H122082   0.480   5.456   7.739
 7280WAT     H222083   0.567   5.363   7.637
 7281WAT      O22084   1.948   4.317   5.347
 7281WAT     H122085   1.871   4.275   5.395
 7281WAT     H222086   1.943   4.295   5.249
 7282WAT      O22087   0.882   2.857   9.020
 7282WAT     H122088   0.914   2.825   8.931
 7282WAT     H222089   0.879   2.781   9.084
 7283WAT      O22090   9.406   4.155   9.333
 7283WAT     H122091   9.350   4.071   9.332
 7283WAT     H222092   9.498   4.134   9.299
 7284WAT      O22093   5.405   6.214   5.950
 7284WAT     H122094   5.311   6.245   5.935
 7284WAT     H222095   5.410   6.163   6.035
 7285WAT      O22096   0.291   6.440   6.589
 7285WAT     H122097   0.364   6.405   6.648
 7285WAT     H222098   0.319   6.433   6.493
 7286WAT      O22099   6.320   2.519   8.760
 7286WAT     H122100   6.327   2.422   8.735
 7286WAT     H222101   6.338   2.575   8.679
 7287WAT      O22102   3.087   1.074   0.074
 7287WAT     H122103   3.133   0.986   0.082
 7287WAT     H222104   2.988   1.061   0.080
 7288WAT      O22105   4.613   4.003   6.459
 7288WAT     H122106   4.539   3.943   6.430
 7288WAT     H222107   4.656   3.967   6.542
 7289WAT      O22108   8.096   3.954   7.725
 7289WAT     H122109   8.191   3.947   7.755
 7289WAT     H222110   8.037   3.904   7.788
 7290WAT      O22111   9.674   6.950   3.577
 7290WAT     H122112   9.656   7.048   3.574
 7290WAT     H222113   9.609   6.905   3.638
 7291WAT      O22114   9.215   2.664   4.240
 7291WAT     H122115   9.150   2.608   4.190
 7291WAT     H222116   9.264   2.607   4.306
 7292WAT      O22117   0.962   6.582   1.977
 7292WAT     H122118   0.995   6.559   1.886
 7292WAT     H222119   0.932   6.678   1.978
 7293WAT      O22120   8.533   9.261   5.938
 7293WAT     H122121   8.535   9.209   5.853
 7293WAT     H222122   8.589   9.343   5.928
 7294WAT      O22123   0.353   4.501   2.292
 7294WAT     H122124   0.370   4.443   2.212
 7294WAT     H222125   0.431   4.563   2.305
 7295WAT      O22126   7.126   0.889   6.737
 7295WAT     H122127   7.172   0.889   6.826
 7295WAT     H222128   7.133   0.980   6.696
 7296WAT      O22129   4.954   3.967   9.564
 7296WAT     H122130   4.924   4.050   9.611
 7296WAT     H222131   4.998   3.905   9.629
 7297WAT      O22132   1.228   7.256   3.434
 7297WAT     H122133   1.144   7.309   3.434
 7297WAT     H222134   1.221   7.181   3.499
 7298WAT      O22135   3.224   6.705   4.702
 7298WAT     H122136   3.215   6.678   4.607
 7298WAT     H222137   3.321   6.700   4.729
 7299WAT      O22138   5.910   3.904   7.290
 7299WAT     H122139   5.976   3.841   7.331
 7299WAT     H222140   5.894   3.981   7.352
 7300WAT      O22141   9.001   9.617   5.337
 7300WAT     H122142   9.072   9.676   5.300
 7300WAT     H222143   8.996   9.533   5.282
 7301WAT      O22144   3.693   0.886   3.753
 7301WAT     H122145   3.645   0.966   3.717
 7301WAT     H222146   3.632   0.806   3.750
 7302WAT      O22147   8.150   9.008   0.447
 7302WAT     H122148   8.109   8.916   0.442
 7302WAT     H222149   8.079   9.076   0.429
 7303WAT      O22150   6.380   7.483   4.012
 7303WAT     H122151   6.344   7.392   3.989
 7303WAT     H222152   6.318   7.553   3.977
 7304WAT      O22153   2.027   5.800   5.447
 7304WAT     H122154   1.991   5.807   5.354
 7304WAT     H222155   2.109   5.855   5.455
 7305WAT      O22156   0.063   1.727   6.083
 7305WAT     H122157   0.038   1.661   6.013
 7305WAT     H222158   0.128   1.793   6.045
 7306WAT      O22159   1.724   6.609   2.012
 7306WAT     H122160   1.684   6.680   2.070
 7306WAT     H222161   1.664   6.530   2.010
 7307WAT      O22162   5.382   7.058   6.561
 7307WAT     H122163   5.329   7.133   6.522
 7307WAT     H222164   5.477   7.087   6.572
 7308WAT      O22165   7.702   0.860   7.012
 7308WAT     H122166   7.686   0.899   6.922
 7308WAT     H222167   7.661   0.919   7.082
 7309WAT      O22168   4.469   8.666   1.042
 7309WAT     H122169   4.528   8.692   1.118
 7309WAT     H222170   4.411   8.743   1.016
 7310WAT      O22171   0.963   0.954   2.613
 7310WAT     H122172   0.874   0.954   2.659
 7310WAT     H222173   1.033   0.990   2.675
 7311WAT      O22174   3.476   6.788   3.955
 7311WAT     H122175   3.511   6.716   4.014
 7311WAT     H222176   3.471   6.874   4.006
 7312WAT      O22177   8.339   1.169   5.422
 7312WAT     H122178   8.399   1.114   5.364
 7312WAT     H222179   8.374   1.262   5.427
 7313WAT      O22180   8.321   9.159   2.706
 7313WAT     H122181   8.379   9.152   2.787
 7313WAT     H222182   8.259   9.080   2.702
 7314WAT      O22183   8.717   3.702   1.845
 7314WAT     H122184   8.672   3.772   1.900
 7314WAT     H222185   8.739   3.739   1.755
 7315WAT      O22186   0.073   0.653   2.058
 7315WAT     H122187   0.006   0.663   2.132
 7315WAT     H222188   0.165   0.668   2.094
 7316WAT      O22189   3.816   8.996   3.494
 7316WAT     H122190   3.752   8.948   3.554
 7316WAT     H222191   3.774   9.079   3.459
 7317WAT      O22192   6.600   5.573   2.839
 7317WAT     H122193   6.589   5.630   2.920
 7317WAT     H222194   6.694   5.539   2.834
 7318WAT      O22195   7.920   3.960   5.137
 7318WAT     H122196   7.973   4.039   5.168
 7318WAT     H222197   7.866   3.985   5.057
 7319WAT      O22198   3.704   9.609   6.312
 7319WAT     H122199   3.656   9.697   6.302
 7319WAT     H222200   3.765   9.596   6.234
 7320WAT      O22201   0.635   5.110   0.470
 7320WAT     H122202   0.565   5.040   0.452
 7320WAT     H222203   0.725   5.067   0.475
 7321WAT      O22204   3.750   6.830   6.198
 7321WAT     H122205   3.667   6.863   6.153
 7321WAT     H222206   3.816   6.801   6.129
 7322WAT      O22207   1.018   2.975   2.965
 7322WAT     H122208   1.076   2.973   2.884
 7322WAT     H222209   1.075   2.982   3.047
 7323WAT      O22210   9.118   3.669   2.695
 7323WAT     H122211   9.201   3.710   2.732
 7323WAT     H222212   9.125   3.665   2.595
 7324WAT      O22213   6.650   2.545   3.851
 7324WAT     H122214   6.701   2.522   3.768
 7324WAT     H222215   6.638   2.463   3.907
 7325WAT      O22216   2.070   9.326   2.173
 7325WAT     H122217   2.128   9.389   2.122
 7325WAT     H222218   2.025   9.374   2.247
 7326WAT      O22219   4.127   4.767   6.788
 7326WAT     H122220   4.186   4.714   6.727
 7326WAT     H222221   4.051   4.710   6.819
 7327WAT      O22222   9.538   0.875   0.024
 7327WAT     H122223   9.555   0.953   0.084
 7327WAT     H222224   9.445   0.841   0.038
 7328WAT      O22225   9.146   0.213   2.654
 7328WAT     H122226   9.215   0.264   2.706
 7328WAT     H222227   9.191   0.143   2.598
 7329WAT      O22228   9.760   8.315   3.568
 7329WAT     H122229   9.670   8.344   3.536
 7329WAT     H222230   9.750   8.266   3.655
 7330WAT      O22231   0.334   1.348   9.543
 7330WAT     H122232   0.326   1.254   9.508
 7330WAT     H222233   0.316   1.412   9.469
 7331WAT      O22234   4.597   3.917   3.395
 7331WAT     H122235   4.582   3.972   3.477
 7331WAT     H222236   4.524   3.850   3.386
 7332WAT      O22237   0.362   2.775   7.917
 7332WAT     H122238   0.378   2.867   7.954
 7332WAT     H222239   0.264   2.759   7.909
 7333WAT      O22240   2.582   6.973   7.274
 7333WAT     H122241   2.612   7.036   7.345
 7333WAT     H222242   2.599   6.879   7.303
 7334WAT      O22243   8.681   2.890   1.786
 7334WAT     H122244   8.680   2.795   1.755
 7334WAT     H222245   8.768   2.932   1.762
 7335WAT      O22246   8.490   4.874   2.235
 7335WAT     H122247   8.396   4.881   2.203
 7335WAT     H222248   8.530   4.965   2.241
 7336WAT      O22249   2.564   9.170   8.934
 7336WAT     H122250   2.473   9.128   8.926
 7336WAT     H222251   2.578   9.201   9.028
 7337WAT      O22252   9.107   7.157   1.394
 7337WAT     H122253   9.090   7.225   1.323
 7337WAT     H222254   9.039   7.166   1.467
 7338WAT      O22255   8.313   4.716   6.800
 7338WAT     H122256   8.313   4.717   6.700
 7338WAT     H222257   8.331   4.623   6.833
 7339WAT      O22258   4.340   5.669   5.463
 7339WAT     H122259   4.313   5.613   5.541
 7339WAT     H222260   4.344   5.612   5.381
 7340WAT      O22261   8.796   3.669   3.871
 7340WAT     H122262   8.821   3.670   3.774
 7340WAT     H222263   8.780   3.575   3.901
 7341WAT      O22264   8.727   6.032   4.187
 7341WAT     H122265   8.814   6.044   4.235
 7341WAT     H222266   8.658   5.996   4.251
 7342WAT      O22267   7.365   2.114   0.324
 7342WAT     H122268   7.285   2.107   0.264
 7342WAT     H222269   7.366   2.037   0.387
 7343WAT      O22270   7.112   9.343   2.593
 7343WAT     H122271   7.109   9.278   2.669
 7343WAT     H222272   7.019   9.358   2.558
 7344WAT      O22273   3.159   6.785   4.273
 7344WAT     H122274   3.115   6.714   4.220
 7344WAT     H222275   3.187   6.860   4.213
 7345WAT      O22276   7.596   8.674   3.458
 7345WAT     H122277   7.596   8.686   3.557
 7345WAT     H222278   7.689   8.688   3.423
 7346WAT      O22279   1.606   7.402   8.723
 7346WAT     H122280   1.621   7.420   8.820
 7346WAT     H222281   1.607   7.303   8.707
 7347WAT      O22282   9.409   8.946   6.587
 7347WAT     H122283   9.424   8.960   6.489
 7347WAT     H222284   9.310   8.949   6.606
 7348WAT      O22285   6.671   4.326   3.789
 7348WAT     H122286   6.597   4.392   3.777
 7348WAT     H222287   6.639   4.236   3.758
 7349WAT      O22288   6.800   2.458   0.421
 7349WAT     H122289   6.896   2.442   0.443
 7349WAT     H222290   6.790   2.468   0.322
 7350WAT      O22291   7.992   5.959   8.855
 7350WAT     H122292   7.900   5.928   8.876
 7350WAT     H222293   8.051   5.880   8.837
 7351WAT      O22294   0.598   5.529   0.313
 7351WAT     H122295   0.623   5.433   0.303
 7351WAT     H222296   0.659   5.573   0.378
 7352WAT      O22297   8.721   9.508   6.938
 7352WAT     H122298   8.682   9.582   6.884
 7352WAT     H222299   8.682   9.421   6.909
 7353WAT      O22300   6.396   1.961   7.799
 7353WAT     H122301   6.443   1.876   7.775
 7353WAT     H222302   6.455   2.017   7.858
 7354WAT      O22303   8.367   6.952   7.020
 7354WAT     H122304   8.344   7.045   6.993
 7354WAT     H222305   8.466   6.940   7.017
 7355WAT      O22306   4.303   5.344   9.675
 7355WAT     H122307   4.216   5.393   9.682
 7355WAT     H222308   4.309   5.300   9.585
 7356WAT      O22309   9.844   2.422   2.067
 7356WAT     H122310   9.847   2.322   2.072
 7356WAT     H222311   9.776   2.450   1.999
 7357WAT      O22312   3.861   2.034   8.312
 7357WAT     H122313   3.793   2.089   8.359
 7357WAT     H222314   3.952   2.052   8.351
 7358WAT      O22315   4.416   4.354   7.087
 7358WAT     H122316   4.514   4.332   7.076
 7358WAT     H222317   4.361   4.280   7.047
 7359WAT      O22318   0.102   2.766   3.864
 7359WAT     H122319   0.139   2.674   3.852
 7359WAT     H222320   0.033   2.785   3.794
 7360WAT      O22321   7.983   6.659   7.996
 7360WAT     H122322   7.999   6.579   8.054
 7360WAT     H222323   8.053   6.728   8.015
 7361WAT      O22324   0.310   3.496   3.692
 7361WAT     H122325   0.308   3.573   3.628
 7361WAT     H222326   0.405   3.475   3.715
 7362WAT      O22327   0.150   5.269  -0.004
 7362WAT     H122328   0.215   5.214   0.049
 7362WAT     H222329   0.088   5.317   0.058
 7363WAT      O22330   4.780   7.865   7.266
 7363WAT     H122331   4.749   7.929   7.195
 7363WAT     H222332   4.818   7.783   7.223
 7364WAT      O22333   5.592   8.797   6.698
 7364WAT     H122334   5.588   8.832   6.792
 7364WAT     H222335   5.521   8.840   6.643
 7365WAT      O22336   3.530   6.768   2.486
 7365WAT     H122337   3.467   6.795   2.413
 7365WAT     H222338   3.481   6.765   2.573
 7366WAT      O22339   7.596   8.672   8.937
 7366WAT     H122340   7.650   8.649   8.856
 7366WAT     H222341   7.506   8.630   8.929
 7367WAT      O22342   1.980   9.507   1.005
 7367WAT     H122343   1.917   9.465   0.939
 7367WAT     H222344   1.932   9.522   1.092
 7368WAT      O22345   0.096   1.435   9.796
 7368WAT     H122346   0.085   1.357   9.857
 7368WAT     H222347   0.126   1.404   9.706
 7369WAT      O22348   1.354   3.724   1.401
 7369WAT     H122349   1.303   3.804   1.432
 7369WAT     H222350   1.451   3.734   1.425
 7370WAT      O22351   4.358   1.714   1.979
 7370WAT     H122352   4.428   1.643   1.986
 7370WAT     H222353   4.320   1.732   2.070
 7371WAT      O22354   0.330   7.126   9.041
 7371WAT     H122355   0.274   7.139   8.958
 7371WAT     H222356   0.284   7.169   9.119
 7372WAT      O22357   8.994   2.176   9.804
 7372WAT     H122358   8.969   2.259   9.853
 7372WAT     H222359   8.933   2.102   9.831
 7373WAT      O22360   1.516   2.940   2.877
 7373WAT     H122361   1.598   2.896   2.842
 7373WAT     H222362   1.436   2.882   2.860
 7374WAT      O22363   1.772   1.391   1.123
 7374WAT     H122364   1.822   1.440   1.194
 7374WAT     H222365   1.800   1.295   1.122
 7375WAT      O22366   1.179   3.192   2.740
 7375WAT     H122367   1.230   3.197   2.825
 7375WAT     H222368   1.146   3.098   2.726
 7376WAT      O22369   1.193   0.927   7.324
 7376WAT     H122370   1.192   0.874   7.409
 7376WAT     H222371   1.108   0.979   7.316
 7377WAT      O22372   6.570   0.630   9.867
 7377WAT     H122373   6.506   0.586   9.930
 7377WAT     H222374   6.518   0.679   9.797
 7378WAT      O22375   6.207   6.981   9.123
 7378WAT     H122376   6.188   7.045   9.048
 7378WAT     H222377   6.261   6.905   9.087
 7379WAT      O22378   8.712   6.396   8.711
 7379WAT     H122379   8.795   6.347   8.682
 7379WAT     H222380   8.713   6.410   8.810
 7380WAT      O22381   8.148   8.993   5.876
 7380WAT     H122382   8.167   8.957   5.967
 7380WAT     H222383   8.054   9.027   5.872
 7381WAT      O22384   9.006   0.250   0.623
 7381WAT     H122385   8.907   0.255   0.606
 7381WAT     H222386   9.055   0.267   0.538
 7382WAT      O22387   9.541   8.857   5.615
 7382WAT     H122388   9.541   8.761   5.642
 7382WAT     H222389   9.463   8.903   5.658
 7383WAT      O22390   9.407   8.714   1.910
 7383WAT     H122391   9.505   8.725   1.891
 7383WAT     H222392   9.395   8.658   1.992
 7384WAT      O22393   6.056   0.942   1.077
 7384WAT     H122394   6.051   1.013   1.148
 7384WAT     H222395   6.146   0.897   1.081
 7385WAT      O22396   1.289   5.526   4.973
 7385WAT     H122397   1.316   5.561   4.883
 7385WAT     H222398   1.196   5.489   4.968
 7386WAT      O22399   7.386   0.347   0.479
 7386WAT     H122400   7.431   0.339   0.390
 7386WAT     H222401   7.303   0.402   0.469
 7387WAT      O22402   1.948   3.835   6.604
 7387WAT     H122403   1.962   3.793   6.694
 7387WAT     H222404   1.909   3.767   6.542
 7388WAT      O22405   9.785   7.163   1.104
 7388WAT     H122406   9.800   7.173   1.203
 7388WAT     H222407   9.873   7.170   1.057
 7389WAT      O22408   4.470   0.951   1.754
 7389WAT     H122409   4.531   0.886   1.710
 7389WAT     H222410   4.392   0.970   1.694
 7390WAT      O22411   5.404   3.109   9.413
 7390WAT     H122412   5.463   3.030   9.399
 7390WAT     H222413   5.460   3.191   9.427
 7391WAT      O22414   0.818   3.409   7.049
 7391WAT     H122415   0.865   3.386   7.134
 7391WAT     H222416   0.790   3.505   7.051
 7392WAT      O22417   6.372   2.335   3.725
 7392WAT     H122418   6.392   2.382   3.639
 7392WAT     H222419   6.374   2.401   3.800
 7393WAT      O22420   3.115   5.268   2.485
 7393WAT     H122421   3.141   5.280   2.580
 7393WAT     H222422   3.069   5.351   2.452
 7394WAT      O22423   6.250   8.487   6.888
 7394WAT     H122424   6.212   8.559   6.830
 7394WAT     H222425   6.249   8.516   6.983
 7395WAT      O22426   1.680   5.345   1.228
 7395WAT     H122427   1.714   5.364   1.321
 7395WAT     H222428   1.581   5.354   1.227
 7396WAT      O22429   3.451   6.407   7.189
 7396WAT     H122430   3.435   6.467   7.267
 7396WAT     H222431   3.460   6.313   7.221
 7397WAT      O22432   5.631   2.167   0.473
 7397WAT     H122433   5.624   2.237   0.544
 7397WAT     H222434   5.719   2.121   0.481
 7398WAT      O22435   3.049   1.725   0.267
 7398WAT     H122436   3.112   1.796   0.236
 7398WAT     H222437   2.999   1.758   0.348
 7399WAT      O22438   4.818   4.610   2.487
 7399WAT     H122439   4.785   4.543   2.420
 7399WAT     H222440   4.918   4.610   2.487
 7400WAT      O22441   0.150   3.923   1.480
 7400WAT     H122442   0.187   3.835   1.449
 7400WAT     H222443   0.068   3.946   1.427
 7401WAT      O22444   2.501   1.304   3.049
 7401WAT     H122445   2.450   1.226   3.013
 7401WAT     H222446   2.559   1.274   3.124
 7402WAT      O22447   4.921   3.485   9.803
 7402WAT     H122448   4.857   3.409   9.813
 7402WAT     H222449   5.013   3.454   9.825
 7403WAT      O22450   4.065   0.875   2.388
 7403WAT     H122451   3.970   0.902   2.374
 7403WAT     H222452   4.069   0.777   2.407
 7404WAT      O22453   8.024   9.681   1.365
 7404WAT     H122454   8.119   9.695   1.391
 7404WAT     H222455   7.965   9.690   1.445
 7405WAT      O22456   3.701   1.397   8.552
 7405WAT     H122457   3.756   1.348   8.484
 7405WAT     H222458   3.762   1.446   8.615
 7406WAT      O22459   0.907   9.520   9.418
 7406WAT     H122460   0.843   9.444   9.407
 7406WAT     H222461   0.870   9.585   9.485
 7407WAT      O22462   1.717   9.251   4.723
 7407WAT     H122463   1.620   9.274   4.719
 7407WAT     H222464   1.732   9.165   4.674
 7408WAT      O22465   0.211   2.918   9.660
 7408WAT     H122466   0.276   2.869   9.719
 7408WAT     H222467   0.162   2.986   9.715
 7409WAT      O22468   8.431   4.180   2.750
 7409WAT     H122469   8.467   4.127   2.673
 7409WAT     H222470   8.463   4.275   2.743
 7410WAT      O22471   9.534   6.318   5.396
 7410WAT     H122472   9.603   6.389   5.387
 7410WAT     H222473   9.510   6.308   5.493
 7411WAT      O22474   8.907   9.492   4.086
 7411WAT     H122475   8.944   9.583   4.103
 7411WAT     H222476   8.974   9.423   4.116
 7412WAT      O22477   4.524   4.424   1.791
 7412WAT     H122478   4.520   4.491   1.716
 7412WAT     H222479   4.514   4.472   1.878
 7413WAT      O22480   9.175   8.166   7.715
 7413WAT     H122481   9.254   8.208   7.671
 7413WAT     H222482   9.171   8.069   7.692
 7414WAT      O22483   6.979   8.007   4.117
 7414WAT     H122484   7.076   7.997   4.136
 7414WAT     H222485   6.964   8.091   4.063
 7415WAT      O22486   8.801   9.495   6.499
 7415WAT     H122487   8.758   9.525   6.413
 7415WAT     H222488   8.771   9.555   6.574
 7416WAT      O22489   7.997   2.675   1.748
 7416WAT     H122490   7.988   2.579   1.721
 7416WAT     H222491   7.920   2.727   1.711
 7417WAT      O22492   8.923   5.208   8.297
 7417WAT     H122493   9.011   5.226   8.255
 7417WAT     H222494   8.887   5.120   8.265
 7418WAT      O22495   9.785   9.675   5.131
 7418WAT     H122496   9.861   9.614   5.157
 7418WAT     H222497   9.753   9.724   5.212
 7419WAT      O22498   8.507   1.832   3.606
 7419WAT     H122499   8.595   1.803   3.569
 7419WAT     H222500   8.520   1.865   3.700
 7420WAT      O22501   6.695   3.274   3.199
 7420WAT     H122502   6.754   3.257   3.278
 7420WAT     H222503   6.613   3.217   3.205
 7421WAT      O22504   8.674   9.000   3.433
 7421WAT     H122505   8.653   9.053   3.515
 7421WAT     H222506   8.628   8.911   3.437
 7422WAT      O22507   1.057   2.206   8.523
 7422WAT     H122508   0.999   2.136   8.564
 7422WAT     H222509   1.010   2.246   8.444
 7423WAT      O22510   6.481   5.631   3.986
 7423WAT     H122511   6.412   5.703   3.979
 7423WAT     H222512   6.547   5.655   4.057
 7424WAT      O22513   8.476   4.033   4.196
 7424WAT     H122514   8.393   4.007   4.148
 7424WAT     H222515   8.483   3.980   4.281
 7425WAT      O22516   7.654   7.918   0.561
 7425WAT     H122517   7.624   7.895   0.469
 7425WAT     H222518   7.644   7.839   0.621
 7426WAT      O22519   2.837   7.352   7.066
 7426WAT     H122520   2.763   7.312   7.011
 7426WAT     H222521   2.826   7.451   7.071
 7427WAT      O22522   6.713   4.675   1.789
 7427WAT     H122523   6.729   4.704   1.884
 7427WAT     H222524   6.635   4.725   1.751
 7428WAT      O22525   6.902   0.175   6.338
 7428WAT     H122526   6.984   0.223   6.368
 7428WAT     H222527   6.894   0.182   6.238
 7429WAT      O22528   5.781   0.217   8.673
 7429WAT     H122529   5.725   0.255   8.599
 7429WAT     H222530   5.737   0.135   8.709
 7430WAT      O22531   4.561   5.063   8.181
 7430WAT     H122532   4.485   5.016   8.136
 7430WAT     H222533   4.588   5.142   8.127
 7431WAT      O22534   7.660   2.956   6.211
 7431WAT     H122535   7.696   3.017   6.282
 7431WAT     H222536   7.692   2.863   6.227
 7432WAT      O22537   3.508   6.694   6.981
 7432WAT     H122538   3.501   6.594   6.981
 7432WAT     H222539   3.553   6.724   6.896
 7433WAT      O22540   0.122   4.924   0.080
 7433WAT     H122541   0.181   4.980   0.139
 7433WAT     H222542   0.175   4.889   0.003
 7434WAT      O22543   0.054   8.642   9.710
 7434WAT     H122544  -0.014   8.609   9.775
 7434WAT     H222545   0.133   8.581   9.711
 7435WAT      O22546   5.141   2.665   4.377
 7435WAT     H122547   5.208   2.671   4.451
 7435WAT     H222548   5.187   2.636   4.293
 7436WAT      O22549   3.614   1.365   5.722
 7436WAT     H122550   3.681   1.371   5.648
 7436WAT     H222551   3.623   1.446   5.781
 7437WAT      O22552   1.096   9.617   3.906
 7437WAT     H122553   1.078   9.633   4.003
 7437WAT     H222554   1.184   9.656   3.881
 7438WAT      O22555   5.246   3.341   2.303
 7438WAT     H122556   5.250   3.272   2.376
 7438WAT     H222557   5.159   3.389   2.308
 7439WAT      O22558   5.453   0.986   9.405
 7439WAT     H122559   5.458   1.005   9.307
 7439WAT     H222560   5.442   0.888   9.420
 7440WAT      O22561   0.389   0.031   2.842
 7440WAT     H122562   0.314  -0.011   2.894
 7440WAT     H222563   0.450  -0.041   2.808
 7441WAT      O22564   7.325   3.885   0.834
 7441WAT     H122565   7.343   3.980   0.862
 7441WAT     H222566   7.229   3.863   0.853
 7442WAT      O22567   2.080   6.166   2.553
 7442WAT     H122568   1.993   6.203   2.522
 7442WAT     H222569   2.068   6.122   2.642
 7443WAT      O22570   1.652   3.867   4.950
 7443WAT     H122571   1.632   3.833   4.858
 7443WAT     H222572   1.570   3.910   4.988
 7444WAT      O22573   8.156   8.689   0.651
 7444WAT     H122574   8.155   8.612   0.588
 7444WAT     H222575   8.237   8.746   0.633
 7445WAT      O22576   4.266   0.019   1.958
 7445WAT     H122577   4.361   0.013   1.990
 7445WAT     H222578   4.206  -0.026   2.024
 7446WAT      O22579   6.054   5.360   8.527
 7446WAT     H122580   6.102   5.388   8.443
 7446WAT     H222581   6.008   5.273   8.511
 7447WAT      O22582   0.464   7.747   0.267
 7447WAT     H122583   0.482   7.649   0.261
 7447WAT     H222584   0.365   7.763   0.261
 7448WAT      O22585   7.920   0.794   2.642
 7448WAT     H122586   7.923   0.702   2.605
 7448WAT     H222587   7.864   0.852   2.583
 7449WAT      O22588   7.258   1.723   0.192
 7449WAT     H122589   7.273   1.625   0.185
 7449WAT     H222590   7.314   1.771   0.125
 7450WAT      O22591   8.609   5.171   0.102
 7450WAT     H122592   8.684   5.237   0.090
 7450WAT     H222593   8.569   5.150   0.012
 7451WAT      O22594   3.236   8.128   9.605
 7451WAT     H122595   3.308   8.195   9.587
 7451WAT     H222596   3.178   8.160   9.679
 7452WAT      O22597   7.650   4.248   6.619
 7452WAT     H122598   7.625   4.246   6.716
 7452WAT     H222599   7.745   4.276   6.609
 7453WAT      O22600   3.599   5.174   5.501
 7453WAT     H122601   3.575   5.089   5.546
 7453WAT     H222602   3.664   5.225   5.558
 7454WAT      O22603   6.704   3.048   1.515
 7454WAT     H122604   6.670   2.987   1.444
 7454WAT     H222605   6.693   3.143   1.486
 7455WAT      O22606   6.173   4.992   2.139
 7455WAT     H122607   6.088   4.995   2.191
 7455WAT     H222608   6.158   4.944   2.053
 7456WAT      O22609   8.607   0.380   9.096
 7456WAT     H122610   8.537   0.429   9.148
 7456WAT     H222611   8.650   0.443   9.031
 7457WAT      O22612   8.212   1.590   0.923
 7457WAT     H122613   8.308   1.612   0.906
 7457WAT     H222614   8.204   1.542   1.010
 7458WAT      O22615   6.460   0.525   5.740
 7458WAT     H122616   6.521   0.603   5.726
 7458WAT     H222617   6.482   0.454   5.672
 7459WAT      O22618   1.859   9.696   3.302
 7459WAT     H122619   1.923   9.622   3.282
 7459WAT     H222620   1.895   9.782   3.266
 7460WAT      O22621   1.782   6.067   2.628
 7460WAT     H122622   1.789   6.025   2.719
 7460WAT     H222623   1.705   6.028   2.579
 7461WAT      O22624   8.364   6.854   4.365
 7461WAT     H122625   8.415   6.827   4.446
 7461WAT     H222626   8.266   6.837   4.380
 7462WAT      O22627   5.090   4.799   5.475
 7462WAT     H122628   5.073   4.700   5.478
 7462WAT     H222629   5.141   4.826   5.556
 7463WAT      O22630   5.000   1.188   7.852
 7463WAT     H122631   4.959   1.279   7.863
 7463WAT     H222632   4.986   1.156   7.759
 7464WAT      O22633   5.019   1.715   9.852
 7464WAT     H122634   5.029   1.702   9.951
 7464WAT     H222635   5.107   1.742   9.813
 7465WAT      O22636   6.721   1.566   7.449
 7465WAT     H122637   6.652   1.510   7.495
 7465WAT     H222638   6.698   1.663   7.460
 7466WAT      O22639   4.621   0.914   3.885
 7466WAT     H122640   4.637   0.957   3.974
 7466WAT     H222641   4.539   0.857   3.890
 7467WAT      O22642   7.315   6.681   3.030
 7467WAT     H122643   7.301   6.779   3.021
 7467WAT     H222644   7.364   6.662   3.115
 7468WAT      O22645   6.003   4.624   3.494
 7468WAT     H122646   6.071   4.683   3.450
 7468WAT     H222647   6.043   4.581   3.575
 7469WAT      O22648   9.123   8.952   9.116
 7469WAT     H122649   9.100   9.025   9.051
 7469WAT     H222650   9.038   8.910   9.149
 7470WAT      O22651   6.162   5.884   2.574
 7470WAT     H122652   6.214   5.852   2.495
 7470WAT     H222653   6.065   5.874   2.557
 7471WAT      O22654   2.300   9.835   1.100
 7471WAT     H122655   2.320   9.927   1.067
 7471WAT     H222656   2.237   9.842   1.178
 7472WAT      O22657   2.587   4.343   7.644
 7472WAT     H122658   2.543   4.427   7.611
 7472WAT     H222659   2.545   4.264   7.600
 7473WAT      O22660   2.718   8.443   0.332
 7473WAT     H122661   2.704   8.515   0.401
 7473WAT     H222662   2.629   8.415   0.295
 7474WAT      O22663   8.286   3.608   9.660
 7474WAT     H122664   8.374   3.561   9.668
 7474WAT     H222665   8.268   3.660   9.743
 7475WAT      O22666   0.500   3.877   7.882
 7475WAT     H122667   0.490   3.802   7.816
 7475WAT     H222668   0.591   3.916   7.875
 7476WAT      O22669   4.195   4.189   1.341
 7476WAT     H122670   4.264   4.119   1.356
 7476WAT     H222671   4.240   4.277   1.322
 7477WAT      O22672   8.954   8.871   3.710
 7477WAT     H122673   8.925   8.954   3.756
 7477WAT     H222674   8.970   8.799   3.777
 7478WAT      O22675   2.195   7.862   7.785
 7478WAT     H122676   2.098   7.870   7.811
 7478WAT     H222677   2.252   7.866   7.866
 7479WAT      O22678   3.351   4.795   0.167
 7479WAT     H122679   3.356   4.794   0.267
 7479WAT     H222680   3.290   4.723   0.135
 7480WAT      O22681   9.763   6.643   3.301
 7480WAT     H122682   9.846   6.650   3.245
 7480WAT     H222683   9.708   6.567   3.269
 7481WAT      O22684   1.717   6.929   8.099
 7481WAT     H122685   1.767   6.990   8.160
 7481WAT     H222686   1.620   6.931   8.121
 7482WAT      O22687   9.716   2.508   9.869
 7482WAT     H122688   9.689   2.428   9.923
 7482WAT     H222689   9.636   2.550   9.828
 7483WAT      O22690   6.127   6.426   9.727
 7483WAT     H122691   6.173   6.465   9.807
 7483WAT     H222692   6.156   6.475   9.645
 7484WAT      O22693   3.760   0.915   7.716
 7484WAT     H122694   3.770   0.997   7.660
 7484WAT     H222695   3.746   0.941   7.812
 7485WAT      O22696   8.463   4.045   0.859
 7485WAT     H122697   8.561   4.065   0.864
 7485WAT     H222698   8.416   4.123   0.817
 7486WAT      O22699   7.199   1.356   4.420
 7486WAT     H122700   7.103   1.356   4.446
 7486WAT     H222701   7.222   1.443   4.377
 7487WAT      O22702   3.174   9.818   2.924
 7487WAT     H122703   3.089   9.850   2.880
 7487WAT     H222704   3.252   9.854   2.873
 7488WAT      O22705   2.837   9.686   2.184
 7488WAT     H122706   2.884   9.605   2.149
 7488WAT     H222707   2.897   9.736   2.246
 7489WAT      O22708   0.272   1.213   6.787
 7489WAT     H122709   0.219   1.153   6.846
 7489WAT     H222710   0.369   1.196   6.800
 7490WAT      O22711   8.767   1.453   8.107
 7490WAT     H122712   8.846   1.478   8.052
 7490WAT     H222713   8.795   1.438   8.201
 7491WAT      O22714   6.437   1.242   9.354
 7491WAT     H122715   6.496   1.296   9.295
 7491WAT     H222716   6.483   1.157   9.379
 7492WAT      O22717   0.146   3.877   3.573
 7492WAT     H122718   0.094   3.927   3.503
 7492WAT     H222719   0.190   3.798   3.532
 7493WAT      O22720   1.648   9.192   8.117
 7493WAT     H122721   1.585   9.136   8.171
 7493WAT     H222722   1.737   9.146   8.112
 7494WAT      O22723   3.172   2.975   4.226
 7494WAT     H122724   3.110   2.914   4.275
 7494WAT     H222725   3.137   2.989   4.133
 7495WAT      O22726   7.005   1.216   7.815
 7495WAT     H122727   7.091   1.167   7.830
 7495WAT     H222728   6.959   1.232   7.902
 7496WAT      O22729   6.739   8.551   0.333
 7496WAT     H122730   6.677   8.501   0.272
 7496WAT     H222731   6.763   8.639   0.293
 7497WAT      O22732   0.052   0.480   2.518
 7497WAT     H122733   0.007   0.485   2.607
 7497WAT     H222734   0.071   0.384   2.496
 7498WAT      O22735   5.813   2.791   7.621
 7498WAT     H122736   5.828   2.799   7.719
 7498WAT     H222737   5.847   2.702   7.590
 7499WAT      O22738   5.532   3.329   6.462
 7499WAT     H122739   5.523   3.294   6.555
 7499WAT     H222740   5.444   3.367   6.433
 7500WAT      O22741   7.659   2.109   8.133
 7500WAT     H122742   7.675   2.057   8.049
 7500WAT     H222743   7.592   2.061   8.189
 7501WAT      O22744   6.641   9.202   4.345
 7501WAT     H122745   6.651   9.270   4.418
 7501WAT     H222746   6.704   9.126   4.362
 7502WAT      O22747   6.522   5.850   5.407
 7502WAT     H122748   6.490   5.857   5.501
 7502WAT     H222749   6.560   5.938   5.378
 7503WAT      O22750   2.364   0.526   6.189
 7503WAT     H122751   2.347   0.519   6.090
 7503WAT     H222752   2.364   0.435   6.230
 7504WAT      O22753   8.479   9.166   9.680
 7504WAT     H122754   8.387   9.145   9.711
 7504WAT     H222755   8.530   9.212   9.753
 7505WAT      O22756   3.438   3.989   8.929
 7505WAT     H122757   3.519   4.047   8.927
 7505WAT     H222758   3.356   4.046   8.933
 7506WAT      O22759   2.578   6.821   2.410
 7506WAT     H122760   2.525   6.738   2.426
 7506WAT     H222761   2.516   6.896   2.386
 7507WAT      O22762   3.694   5.399   1.764
 7507WAT     H122763   3.655   5.463   1.698
 7507WAT     H222764   3.624   5.334   1.793
 7508WAT      O22765   0.359   8.185   0.578
 7508WAT     H122766   0.344   8.116   0.506
 7508WAT     H222767   0.343   8.276   0.540
 7509WAT      O22768   0.155   1.020   6.973
 7509WAT     H122769   0.247   1.028   7.013
 7509WAT     H222770   0.101   1.100   6.999
 7510WAT      O22771   6.499   9.722   4.177
 7510WAT     H122772   6.454   9.640   4.141
 7510WAT     H222773   6.469   9.802   4.126
 7511WAT      O22774   2.519   2.974   9.759
 7511WAT     H122775   2.485   3.066   9.780
 7511WAT     H222776   2.608   2.960   9.802
 7512WAT      O22777   0.427   0.446   2.043
 7512WAT     H122778   0.372   0.521   2.079
 7512WAT     H222779   0.439   0.457   1.945
 7513WAT      O22780   7.024   0.245   1.228
 7513WAT     H122781   7.021   0.223   1.130
 7513WAT     H222782   7.092   0.316   1.244
 7514WAT      O22783   5.908   2.040   0.180
 7514WAT     H122784   5.941   1.969   0.117
 7514WAT     H222785   5.888   1.998   0.269
 7515WAT      O22786   3.899   0.332   4.384
 7515WAT     H122787   3.989   0.350   4.421
 7515WAT     H222788   3.908   0.298   4.290
 7516WAT      O22789   2.662   3.832   7.951
 7516WAT     H122790   2.670   3.810   8.049
 7516WAT     H222791   2.695   3.925   7.935
 7517WAT      O22792   0.738   2.357   5.797
 7517WAT     H122793   0.804   2.378   5.725
 7517WAT     H222794   0.672   2.431   5.806
 7518WAT      O22795   9.844   0.682   0.032
 7518WAT     H122796   9.823   0.747  -0.042
 7518WAT     H222797   9.828   0.726   0.120
 7519WAT      O22798   3.561   7.065   8.286
 7519WAT     H122799   3.548   7.128   8.210
 7519WAT     H222800   3.473   7.026   8.313
 7520WAT      O22801   9.270   3.221   4.356
 7520WAT     H122802   9.277   3.302   4.414
 7520WAT     H222803   9.268   3.139   4.413
 7521WAT      O22804   7.570   8.705   2.074
 7521WAT     H122805   7.594   8.802   2.071
 7521WAT     H222806   7.479   8.692   2.034
 7522WAT      O22807   5.769   3.649   1.277
 7522WAT     H122808   5.760   3.704   1.361
 7522WAT     H222809   5.865   3.623   1.265
 7523WAT      O22810   4.074   4.007   8.272
 7523WAT     H122811   4.081   3.963   8.361
 7523WAT     H222812   4.107   4.101   8.278
 7524WAT      O22813   6.037   8.011   8.440
 7524WAT     H122814   6.060   8.063   8.521
 7524WAT     H222815   6.098   8.038   8.365
 7525WAT      O22816   4.474   6.664   1.833
 7525WAT     H122817   4.414   6.727   1.882
 7525WAT     H222818   4.424   6.580   1.812
 7526WAT      O22819   5.354   2.129   4.351
 7526WAT     H122820   5.284   2.100   4.286
 7526WAT     H222821   5.326   2.104   4.444
 7527WAT      O22822   1.038   0.399   5.427
 7527WAT     H122823   1.006   0.466   5.494
 7527WAT     H222824   1.127   0.428   5.391
 7528WAT      O22825   3.902   0.333   7.124
 7528WAT     H122826   3.964   0.314   7.201
 7528WAT     H222827   3.816   0.284   7.137
 7529WAT      O22828   9.128   1.787   6.968
 7529WAT     H122829   9.193   1.809   6.895
 7529WAT     H222830   9.079   1.870   6.994
 7530WAT      O22831   6.797   1.766   4.768
 7530WAT     H122832   6.698   1.770   4.753
 7530WAT     H222833   6.816   1.726   4.857
 7531WAT      O22834   7.781   4.518   1.064
 7531WAT     H122835   7.840   4.579   1.011
 7531WAT     H222836   7.704   4.489   1.007
 7532WAT      O22837   6.564   7.127   9.729
 7532WAT     H122838   6.546   7.109   9.825
 7532WAT     H222839   6.513   7.209   9.701
 7533WAT      O22840   6.123   6.535   4.599
 7533WAT     H122841   6.213   6.576   4.614
 7533WAT     H222842   6.071   6.536   4.685
 7534WAT      O22843   3.855   4.388   4.945
 7534WAT     H122844   3.843   4.300   4.899
 7534WAT     H222845   3.786   4.398   5.017
 7535WAT      O22846   5.882   0.904   7.388
 7535WAT     H122847   5.931   0.890   7.301
 7535WAT     H222848   5.833   0.991   7.385
 7536WAT      O22849   3.602   2.071   1.375
 7536WAT     H122850   3.678   2.119   1.332
 7536WAT     H222851   3.516   2.094   1.328
 7537WAT      O22852   6.365   1.314   1.192
 7537WAT     H122853   6.277   1.307   1.146
 7537WAT     H222854   6.385   1.228   1.239
 7538WAT      O22855   9.859   4.291   8.646
 7538WAT     H122856   9.811   4.368   8.604
 7538WAT     H222857   9.798   4.245   8.710
 7539WAT      O22858   7.688   2.874   3.188
 7539WAT     H122859   7.617   2.806   3.207
 7539WAT     H222860   7.759   2.832   3.130
 7540WAT      O22861   0.427   5.330   6.598
 7540WAT     H122862   0.371   5.405   6.631
 7540WAT     H222863   0.466   5.280   6.675
 7541WAT      O22864   8.064   7.058   0.340
 7541WAT     H122865   8.076   6.959   0.352
 7541WAT     H222866   7.967   7.081   0.350
 7542WAT      O22867   1.167   2.269   6.315
 7542WAT     H122868   1.200   2.180   6.345
 7542WAT     H222869   1.223   2.341   6.356
 7543WAT      O22870   5.454   1.813   5.198
 7543WAT     H122871   5.373   1.863   5.168
 7543WAT     H222872   5.428   1.719   5.221
 7544WAT      O22873   5.011   1.369   4.849
 7544WAT     H122874   5.037   1.441   4.784
 7544WAT     H222875   4.951   1.304   4.803
 7545WAT      O22876   7.931   1.941   0.734
 7545WAT     H122877   7.861   1.885   0.690
 7545WAT     H222878   7.981   1.994   0.666
 7546WAT      O22879   4.109   4.169   8.809
 7546WAT     H122880   4.137   4.191   8.716
 7546WAT     H222881   4.009   4.168   8.814
 7547WAT      O22882   8.561   7.238   5.027
 7547WAT     H122883   8.507   7.172   5.079
 7547WAT     H222884   8.646   7.196   4.998
 7548WAT      O22885   0.433   4.571   5.402
 7548WAT     H122886   0.467   4.642   5.465
 7548WAT     H222887   0.461   4.481   5.434
 7549WAT      O22888   6.120   4.757   3.988
 7549WAT     H122889   6.197   4.700   3.962
 7549WAT     H222890   6.152   4.849   4.011
 7550WAT      O22891   5.466   5.347   1.468
 7550WAT     H122892   5.434   5.331   1.562
 7550WAT     H222893   5.458   5.263   1.415
 7551WAT      O22894   6.081   1.027   2.860
 7551WAT     H122895   6.092   0.962   2.935
 7551WAT     H222896   6.055   1.116   2.896
 7552WAT      O22897   4.373   7.360   7.431
 7552WAT     H122898   4.336   7.301   7.359
 7552WAT     H222899   4.470   7.338   7.445
 7553WAT      O22900   7.471   7.351   1.489
 7553WAT     H122901   7.388   7.386   1.532
 7553WAT     H222902   7.515   7.285   1.551
 7554WAT      O22903   8.744   1.769   2.416
 7554WAT     H122904   8.756   1.722   2.504
 7554WAT     H222905   8.818   1.743   2.354
 7555WAT      O22906   2.402   6.002   9.068
 7555WAT     H122907   2.487   6.016   9.120
 7555WAT     H222908   2.419   6.020   8.971
 7556WAT      O22909   6.246   8.177   3.359
 7556WAT     H122910   6.185   8.102   3.330
 7556WAT     H222911   6.249   8.247   3.287
 7557WAT      O22912   3.080   2.646   4.004
 7557WAT     H122913   3.058   2.731   4.051
 7557WAT     H222914   3.075   2.661   3.905
 7558WAT      O22915   9.516   4.580   6.877
 7558WAT     H122916   9.461   4.565   6.795
 7558WAT     H222917   9.558   4.494   6.905
 7559WAT      O22918   5.481   0.365   0.759
 7559WAT     H122919   5.415   0.303   0.801
 7559WAT     H222920   5.434   0.421   0.691
 7560WAT      O22921   8.373   8.264   7.574
 7560WAT     H122922   8.297   8.325   7.548
 7560WAT     H222923   8.379   8.260   7.674
 7561WAT      O22924   4.839   0.990   9.754
 7561WAT     H122925   4.796   0.903   9.778
 7561WAT     H222926   4.809   1.018   9.663
 7562WAT      O22927   5.872   7.536   1.154
 7562WAT     H122928   5.964   7.572   1.168
 7562WAT     H222929   5.839   7.563   1.063
 7563WAT      O22930   2.725   0.139   4.613
 7563WAT     H122931   2.773   0.072   4.556
 7563WAT     H222932   2.693   0.215   4.555
 7564WAT      O22933   7.261   8.383   6.739
 7564WAT     H122934   7.224   8.291   6.751
 7564WAT     H222935   7.200   8.437   6.680
 7565WAT      O22936   1.078   7.476   3.697
 7565WAT     H122937   1.010   7.436   3.759
 7565WAT     H222938   1.037   7.487   3.607
 7566WAT      O22939   2.901   5.115   1.610
 7566WAT     H122940   2.880   5.053   1.686
 7566WAT     H222941   2.960   5.069   1.544
 7567WAT      O22942   7.006   9.033   0.697
 7567WAT     H122943   7.069   8.960   0.724
 7567WAT     H222944   7.049   9.088   0.625
 7568WAT      O22945   4.933   0.476   7.877
 7568WAT     H122946   4.969   0.425   7.798
 7568WAT     H222947   4.915   0.412   7.952
 7569WAT      O22948   4.356   8.895   9.638
 7569WAT     H122949   4.328   8.977   9.688
 7569WAT     H222950   4.453   8.878   9.653
 7570WAT      O22951   0.385   2.375   2.478
 7570WAT     H122952   0.323   2.367   2.400
 7570WAT     H222953   0.422   2.285   2.501
 7571WAT      O22954   4.255   8.714   9.036
 7571WAT     H122955   4.338   8.739   9.087
 7571WAT     H222956   4.178   8.769   9.068
 7572WAT      O22957   5.317   2.639   5.751
 7572WAT     H122958   5.322   2.545   5.718
 7572WAT     H222959   5.339   2.641   5.849
 7573WAT      O22960   6.011   7.799   4.817
 7573WAT     H122961   5.945   7.764   4.750
 7573WAT     H222962   6.048   7.886   4.785
 7574WAT      O22963   4.410   6.649   7.404
 7574WAT     H122964   4.441   6.680   7.314
 7574WAT     H222965   4.322   6.603   7.395
 7575WAT      O22966   2.964   6.318   0.280
 7575WAT     H122967   3.012   6.314   0.192
 7575WAT     H222968   3.025   6.353   0.350
 7576WAT      O22969   1.919   5.911   9.634
 7576WAT     H122970   1.962   5.992   9.676
 7576WAT     H222971   1.924   5.834   9.698
 7577WAT      O22972   9.386   5.653   1.979
 7577WAT     H122973   9.450   5.664   1.903
 7577WAT     H222974   9.324   5.731   1.983
 7578WAT      O22975   4.732   4.895   7.874
 7578WAT     H122976   4.796   4.972   7.874
 7578WAT     H222977   4.654   4.916   7.815
 7579WAT      O22978   3.138   7.651   8.965
 7579WAT     H122979   3.095   7.722   8.909
 7579WAT     H222980   3.098   7.653   9.056
 7580WAT      O22981   8.440   9.241   1.073
 7580WAT     H122982   8.439   9.314   1.141
 7580WAT     H222983   8.372   9.260   1.002
 7581WAT      O22984   7.634   4.248   3.783
 7581WAT     H122985   7.627   4.250   3.883
 7581WAT     H222986   7.677   4.332   3.751
 7582WAT      O22987   1.758   0.021   6.266
 7582WAT     H122988   1.782  -0.072   6.296
 7582WAT     H222989   1.686   0.016   6.198
 7583WAT      O22990   0.636   4.238   3.637
 7583WAT     H122991   0.657   4.164   3.573
 7583WAT     H222992   0.568   4.298   3.597
 7584WAT      O22993   1.987   1.326   3.197
 7584WAT     H122994   2.075   1.373   3.188
 7584WAT     H222995   1.917   1.392   3.225
 7585WAT      O22996   0.652   8.170   7.059
 7585WAT     H122997   0.699   8.216   6.984
 7585WAT     H222998   0.627   8.078   7.031
 7586WAT      O22999   3.006   7.031   7.526
 7586WAT     H123000   2.910   7.054   7.542
 7586WAT     H223001   3.037   7.075   7.442
 7587WAT      O23002   2.628   9.488   5.453
 7587WAT     H123003   2.651   9.459   5.546
 7587WAT     H223004   2.529   9.488   5.442
 7588WAT      O23005   1.494   3.470   5.877
 7588WAT     H123006   1.493   3.566   5.847
 7588WAT     H223007   1.416   3.423   5.837
 7589WAT      O23008   9.508   5.755   0.286
 7589WAT     H123009   9.439   5.685   0.307
 7589WAT     H223010   9.599   5.719   0.306
 7590WAT      O23011   2.598   9.772   7.111
 7590WAT     H123012   2.666   9.826   7.061
 7590WAT     H223013   2.635   9.682   7.132
 7591WAT      O23014   5.967   2.894   1.631
 7591WAT     H123015   5.898   2.838   1.676
 7591WAT     H223016   6.000   2.846   1.549
 7592WAT      O23017   6.566   7.404   0.175
 7592WAT     H123018   6.527   7.493   0.150
 7592WAT     H223019   6.664   7.404   0.152
 7593WAT      O23020   6.350   1.070   8.394
 7593WAT     H123021   6.314   1.162   8.384
 7593WAT     H223022   6.434   1.059   8.341
 7594WAT      O23023   3.607   1.132   7.191
 7594WAT     H123024   3.659   1.213   7.217
 7594WAT     H223025   3.519   1.159   7.153
 7595WAT      O23026   2.917   5.598   7.457
 7595WAT     H123027   2.870   5.510   7.460
 7595WAT     H223028   2.979   5.600   7.378
 7596WAT      O23029   2.983   1.654   3.627
 7596WAT     H123030   2.977   1.730   3.691
 7596WAT     H223031   2.967   1.568   3.675
 7597WAT      O23032   0.703   6.796   7.820
 7597WAT     H123033   0.766   6.872   7.807
 7597WAT     H223034   0.752   6.710   7.806
 7598WAT      O23035   5.886   7.296   2.130
 7598WAT     H123036   5.833   7.212   2.121
 7598WAT     H223037   5.865   7.340   2.218
 7599WAT      O23038   7.177   4.388   4.813
 7599WAT     H123039   7.222   4.384   4.902
 7599WAT     H223040   7.116   4.467   4.810
 7600WAT      O23041   0.250   8.438   9.688
 7600WAT     H123042   0.306   8.492   9.624
 7600WAT     H223043   0.289   8.346   9.696
 7601WAT      O23044   1.124   5.428   4.119
 7601WAT     H123045   1.221   5.405   4.128
 7601WAT     H223046   1.102   5.439   4.022
 7602WAT      O23047   0.230   2.170   8.790
 7602WAT     H123048   0.182   2.255   8.769
 7602WAT     H223049   0.282   2.181   8.875
 7603WAT      O23050   1.621   0.328   4.502
 7603WAT     H123051   1.566   0.411   4.517
 7603WAT     H223052   1.613   0.300   4.407
 7604WAT      O23053   7.488   4.208   0.642
 7604WAT     H123054   7.513   4.299   0.610
 7604WAT     H223055   7.427   4.165   0.576
 7605WAT      O23056   8.234   5.033   4.634
 7605WAT     H123057   8.194   4.946   4.606
 7605WAT     H223058   8.260   5.029   4.730
 7606WAT      O23059   4.325   6.613   9.094
 7606WAT     H123060   4.293   6.582   9.005
 7606WAT     H223061   4.362   6.705   9.086
 7607WAT      O23062   3.854   8.239   5.855
 7607WAT     H123063   3.852   8.279   5.764
 7607WAT     H223064   3.798   8.294   5.917
 7608WAT      O23065   2.927   8.545   4.427
 7608WAT     H123066   2.930   8.645   4.432
 7608WAT     H223067   2.866   8.510   4.498
 7609WAT      O23068   2.861   6.157   0.460
 7609WAT     H123069   2.910   6.179   0.545
 7609WAT     H223070   2.905   6.205   0.384
 7610WAT      O23071   5.429   5.414   0.476
 7610WAT     H123072   5.353   5.436   0.536
 7610WAT     H223073   5.494   5.354   0.524
 7611WAT      O23074   0.461   3.302   9.835
 7611WAT     H123075   0.481   3.392   9.797
 7611WAT     H223076   0.470   3.306   9.935
 7612WAT      O23077   5.032   4.824   1.221
 7612WAT     H123078   5.100   4.794   1.288
 7612WAT     H223079   5.078   4.847   1.135
 7613WAT      O23080   7.324   1.682   2.886
 7613WAT     H123081   7.253   1.687   2.816
 7613WAT     H223082   7.345   1.586   2.905
 7614WAT      O23083   3.926   0.857   7.416
 7614WAT     H123084   3.948   0.890   7.508
 7614WAT     H223085   4.003   0.876   7.355
 7615WAT      O23086   3.664   6.041   0.658
 7615WAT     H123087   3.596   5.999   0.717
 7615WAT     H223088   3.632   6.040   0.563
 7616WAT      O23089   0.483   7.463   8.054
 7616WAT     H123090   0.478   7.429   7.960
 7616WAT     H223091   0.443   7.395   8.116
 7617WAT      O23092   9.245   9.348   1.530
 7617WAT     H123093   9.342   9.372   1.534
 7617WAT     H223094   9.208   9.343   1.622
 7618WAT      O23095   0.822   4.519   5.565
 7618WAT     H123096   0.756   4.569   5.622
 7618WAT     H223097   0.811   4.421   5.580
 7619WAT      O23098   7.879   4.910   4.681
 7619WAT     H123099   7.895   5.002   4.718
 7619WAT     H223100   7.934   4.897   4.599
 7620WAT      O23101   1.177   6.373   9.453
 7620WAT     H123102   1.195   6.456   9.505
 7620WAT     H223103   1.242   6.365   9.378
 7621WAT      O23104   2.386   8.889   9.174
 7621WAT     H123105   2.342   8.979   9.171
 7621WAT     H223106   2.425   8.873   9.264
 7622WAT      O23107   7.862   7.397   1.566
 7622WAT     H123108   7.960   7.414   1.567
 7622WAT     H223109   7.825   7.410   1.659
 7623WAT      O23110   7.592   9.604   7.884
 7623WAT     H123111   7.592   9.659   7.967
 7623WAT     H223112   7.680   9.612   7.838
 7624WAT      O23113   0.183   4.749   9.527
 7624WAT     H123114   0.111   4.790   9.472
 7624WAT     H223115   0.271   4.764   9.483
 7625WAT      O23116   7.059   3.975   3.670
 7625WAT     H123117   7.139   3.915   3.670
 7625WAT     H223118   7.084   4.065   3.635
 7626WAT      O23119   6.867   2.598   5.990
 7626WAT     H123120   6.861   2.690   6.029
 7626WAT     H223121   6.842   2.600   5.894
 7627WAT      O23122   1.568   2.231   9.621
 7627WAT     H123123   1.501   2.204   9.552
 7627WAT     H223124   1.648   2.270   9.575
 7628WAT      O23125   3.965   4.640   3.736
 7628WAT     H123126   3.962   4.619   3.638
 7628WAT     H223127   3.887   4.596   3.782
 7629WAT      O23128   5.478   4.504   9.035
 7629WAT     H123129   5.534   4.441   9.088
 7629WAT     H223130   5.511   4.508   8.940
 7630WAT      O23131   0.748   7.488   6.936
 7630WAT     H123132   0.834   7.529   6.906
 7630WAT     H223133   0.747   7.482   7.036
 7631WAT      O23134   4.694   0.414   2.220
 7631WAT     H123135   4.761   0.343   2.199
 7631WAT     H223136   4.740   0.494   2.258
 7632WAT      O23137   5.185   0.603   3.153
 7632WAT     H123138   5.155   0.538   3.223
 7632WAT     H223139   5.282   0.590   3.135
 7633WAT      O23140   3.404   6.425   1.973
 7633WAT     H123141   3.497   6.462   1.976
 7633WAT     H223142   3.376   6.413   1.877
 7634WAT      O23143   5.166   5.537   3.398
 7634WAT     H123144   5.089   5.600   3.391
 7634WAT     H223145   5.221   5.542   3.314
 7635WAT      O23146   3.394   5.933   9.460
 7635WAT     H123147   3.391   6.009   9.394
 7635WAT     H223148   3.369   5.967   9.550
 7636WAT      O23149   3.137   8.109   3.637
 7636WAT     H123150   3.210   8.153   3.690
 7636WAT     H223151   3.084   8.048   3.696
 7637WAT      O23152   7.809   6.280   8.170
 7637WAT     H123153   7.715   6.300   8.144
 7637WAT     H223154   7.841   6.198   8.123
 7638WAT      O23155   6.237   5.344   8.765
 7638WAT     H123156   6.171   5.330   8.691
 7638WAT     H223157   6.323   5.299   8.741
 7639WAT      O23158   2.627   4.751   5.756
 7639WAT     H123159   2.673   4.783   5.673
 7639WAT     H223160   2.580   4.828   5.800
 7640WAT      O23161   9.834   4.666   4.743
 7640WAT     H123162   9.776   4.586   4.760
 7640WAT     H223163   9.901   4.643   4.672
 7641WAT      O23164   6.875   1.896   5.361
 7641WAT     H123165   6.831   1.969   5.413
 7641WAT     H223166   6.872   1.917   5.263
 7642WAT      O23167   2.815   2.749   5.734
 7642WAT     H123168   2.888   2.777   5.797
 7642WAT     H223169   2.855   2.715   5.649
 7643WAT      O23170   1.977   5.143   3.766
 7643WAT     H123171   2.074   5.152   3.743
 7643WAT     H223172   1.921   5.157   3.684
 7644WAT      O23173   7.806   2.915   2.779
 7644WAT     H123174   7.757   2.892   2.695
 7644WAT     H223175   7.744   2.904   2.857
 7645WAT      O23176   5.303   5.316   8.864
 7645WAT     H123177   5.247   5.255   8.919
 7645WAT     H223178   5.275   5.311   8.768
 7646WAT      O23179   6.584   1.202   0.387
 7646WAT     H123180   6.608   1.105   0.391
 7646WAT     H223181   6.641   1.253   0.451
 7647WAT      O23182   4.629   8.709   1.238
 7647WAT     H123183   4.702   8.641   1.248
 7647WAT     H223184   4.619   8.759   1.324
 7648WAT      O23185   6.070   3.707   7.418
 7648WAT     H123186   6.018   3.626   7.444
 7648WAT     H223187   6.141   3.680   7.352
 7649WAT      O23188   9.392   8.123   4.234
 7649WAT     H123189   9.489   8.098   4.228
 7649WAT     H223190   9.371   8.153   4.327
 7650WAT      O23191   7.068   3.660   8.261
 7650WAT     H123192   7.091   3.563   8.259
 7650WAT     H223193   7.083   3.696   8.353
 7651WAT      O23194   5.098   5.477   0.108
 7651WAT     H123195   5.099   5.472   0.208
 7651WAT     H223196   5.016   5.525   0.078
 7652WAT      O23197   0.394   5.493   3.907
 7652WAT     H123198   0.417   5.590   3.919
 7652WAT     H223199   0.455   5.437   3.963
 7653WAT      O23200   6.056   5.058   5.978
 7653WAT     H123201   6.049   5.128   6.049
 7653WAT     H223202   6.031   5.098   5.889
 7654WAT      O23203   3.597   1.749   6.138
 7654WAT     H123204   3.521   1.785   6.191
 7654WAT     H223205   3.655   1.824   6.107
 7655WAT      O23206   5.893   3.928   5.537
 7655WAT     H123207   5.885   4.026   5.517
 7655WAT     H223208   5.977   3.892   5.497
 7656WAT      O23209   2.892   4.230   1.764
 7656WAT     H123210   2.974   4.188   1.725
 7656WAT     H223211   2.813   4.211   1.705
 7657WAT      O23212   7.477   4.723   5.692
 7657WAT     H123213   7.476   4.759   5.598
 7657WAT     H223214   7.396   4.755   5.741
 7658WAT      O23215   6.093   4.124   2.539
 7658WAT     H123216   6.116   4.045   2.596
 7658WAT     H223217   6.151   4.124   2.457
 7659WAT      O23218   0.814   9.455   4.913
 7659WAT     H123219   0.836   9.543   4.957
 7659WAT     H223220   0.878   9.438   4.838
 7660WAT      O23221   4.851   7.638   5.716
 7660WAT     H123222   4.786   7.590   5.775
 7660WAT     H223223   4.944   7.618   5.746
 7661WAT      O23224   5.993   5.422   9.379
 7661WAT     H123225   6.000   5.335   9.426
 7661WAT     H223226   5.924   5.415   9.306
 7662WAT      O23227   4.276   3.931   3.224
 7662WAT     H123228   4.236   4.004   3.279
 7662WAT     H223229   4.285   3.849   3.280
 7663WAT      O23230   1.546   9.166   6.606
 7663WAT     H123231   1.467   9.123   6.562
 7663WAT     H223232   1.582   9.106   6.677
 7664WAT      O23233   6.001   6.558   5.872
 7664WAT     H123234   5.911   6.527   5.901
 7664WAT     H223235   6.072   6.502   5.916
 7665WAT      O23236   5.526   8.038   3.967
 7665WAT     H123237   5.613   8.066   3.925
 7665WAT     H223238   5.458   8.025   3.895
 7666WAT      O23239   4.051   8.128   6.377
 7666WAT     H123240   3.994   8.064   6.430
 7666WAT     H223241   3.993   8.184   6.318
 7667WAT      O23242   3.630   1.190   9.028
 7667WAT     H123243   3.593   1.274   9.068
 7667WAT     H223244   3.630   1.197   8.929
 7668WAT      O23245   9.761   5.843   7.236
 7668WAT     H123246   9.827   5.834   7.161
 7668WAT     H223247   9.776   5.930   7.284
 7669WAT      O23248   6.514   4.180   7.773
 7669WAT     H123249   6.562   4.186   7.686
 7669WAT     H223250   6.418   4.158   7.756
 7670WAT      O23251   3.843   6.070   5.306
 7670WAT     H123252   3.926   6.114   5.340
 7670WAT     H223253   3.800   6.018   5.380
 7671WAT      O23254   1.229   4.656   1.616
 7671WAT     H123255   1.136   4.670   1.652
 7671WAT     H223256   1.224   4.602   1.533
 7672WAT      O23257   1.740   7.145   3.753
 7672WAT     H123258   1.684   7.185   3.826
 7672WAT     H223259   1.698   7.164   3.665
 7673WAT      O23260   6.768   6.719   9.726
 7673WAT     H123261   6.815   6.643   9.682
 7673WAT     H223262   6.737   6.784   9.656
 7674WAT      O23263   3.561   5.660   8.864
 7674WAT     H123264   3.648   5.647   8.912
 7674WAT     H223265   3.501   5.582   8.882
 7675WAT      O23266   7.397   1.609   6.342
 7675WAT     H123267   7.409   1.577   6.436
 7675WAT     H223268   7.373   1.706   6.342
 7676WAT      O23269   8.852   9.203   3.844
 7676WAT     H123270   8.798   9.261   3.906
 7676WAT     H223271   8.912   9.144   3.897
 7677WAT      O23272   3.037   9.141   6.344
 7677WAT     H123273   3.080   9.230   6.356
 7677WAT     H223274   2.953   9.137   6.397
 7678WAT      O23275   9.448   9.638   2.211
 7678WAT     H123276   9.476   9.720   2.261
 7678WAT     H223277   9.475   9.646   2.116
 7679WAT      O23278   8.625   4.852   2.002
 7679WAT     H123279   8.714   4.898   2.011
 7679WAT     H223280   8.596   4.816   2.090
 7680WAT      O23281   0.261   7.048   3.145
 7680WAT     H123282   0.309   7.069   3.231
 7680WAT     H223283   0.277   6.953   3.120
 7681WAT      O23284   5.810   8.196   4.140
 7681WAT     H123285   5.718   8.186   4.178
 7681WAT     H223286   5.855   8.275   4.181
 7682WAT      O23287   7.705   2.308   3.894
 7682WAT     H123288   7.748   2.292   3.982
 7682WAT     H223289   7.772   2.349   3.831
 7683WAT      O23290   5.093   3.597   5.462
 7683WAT     H123291   5.085   3.500   5.440
 7683WAT     H223292   5.077   3.610   5.560
 7684WAT      O23293   7.449   9.212   6.551
 7684WAT     H123294   7.532   9.264   6.532
 7684WAT     H223295   7.370   9.272   6.543
 7685WAT      O23296   7.385   7.638   0.455
 7685WAT     H123297   7.363   7.558   0.511
 7685WAT     H223298   7.363   7.722   0.506
 7686WAT      O23299   0.305   8.133   0.140
 7686WAT     H123300   0.224   8.139   0.198
 7686WAT     H223301   0.356   8.219   0.145
 7687WAT      O23302   3.486   5.972   4.918
 7687WAT     H123303   3.419   6.046   4.913
 7687WAT     H223304   3.578   6.010   4.924
 7688WAT      O23305   4.208   0.446   9.656
 7688WAT     H123306   4.118   0.433   9.696
 7688WAT     H223307   4.200   0.495   9.569
 7689WAT      O23308   3.050   9.642   0.638
 7689WAT     H123309   3.010   9.668   0.550
 7689WAT     H223310   2.977   9.614   0.700
 7690WAT      O23311   8.749   7.316   6.253
 7690WAT     H123312   8.672   7.376   6.274
 7690WAT     H223313   8.748   7.236   6.313
 7691WAT      O23314   2.969   1.192   7.581
 7691WAT     H123315   2.955   1.264   7.513
 7691WAT     H223316   2.905   1.118   7.566
 7692WAT      O23317   4.054   6.051   2.769
 7692WAT     H123318   4.000   6.115   2.825
 7692WAT     H223319   4.119   6.103   2.714
 7693WAT      O23320   5.776   1.342   6.756
 7693WAT     H123321   5.802   1.251   6.790
 7693WAT     H223322   5.753   1.336   6.659
 7694WAT      O23323   1.396   3.751   4.328
 7694WAT     H123324   1.495   3.739   4.341
 7694WAT     H223325   1.356   3.784   4.413
 7695WAT      O23326   3.220   0.120   4.824
 7695WAT     H123327   3.195   0.172   4.906
 7695WAT     H223328   3.310   0.150   4.792
 7696WAT      O23329   5.206   4.529   9.075
 7696WAT     H123330   5.241   4.619   9.100
 7696WAT     H223331   5.282   4.468   9.054
 7697WAT      O23332   8.917   3.331   3.309
 7697WAT     H123333   8.914   3.232   3.314
 7697WAT     H223334   8.839   3.365   3.258
 7698WAT      O23335   8.322   7.874   6.260
 7698WAT     H123336   8.343   7.897   6.355
 7698WAT     H223337   8.232   7.911   6.236
 7699WAT      O23338   0.239   8.065   3.156
 7699WAT     H123339   0.273   7.994   3.217
 7699WAT     H223340   0.145   8.043   3.129
 7700WAT      O23341   3.695   8.695   4.847
 7700WAT     H123342   3.765   8.735   4.788
 7700WAT     H223343   3.737   8.627   4.907
 7701WAT      O23344   0.660   4.439   8.895
 7701WAT     H123345   0.738   4.412   8.951
 7701WAT     H223346   0.659   4.385   8.811
 7702WAT      O23347   1.988   0.372   3.499
 7702WAT     H123348   2.071   0.350   3.550
 7702WAT     H223349   1.987   0.470   3.479
 7703WAT      O23350   3.176   0.846   8.933
 7703WAT     H123351   3.195   0.854   9.031
 7703WAT     H223352   3.095   0.789   8.919
 7704WAT      O23353   8.161   6.349   0.513
 7704WAT     H123354   8.229   6.414   0.543
 7704WAT     H223355   8.198   6.256   0.519
 7705WAT      O23356   6.696   3.027   2.757
 7705WAT     H123357   6.639   3.041   2.676
 7705WAT     H223358   6.781   3.078   2.747
 7706WAT      O23359   9.162   7.584   6.140
 7706WAT     H123360   9.072   7.626   6.155
 7706WAT     H223361   9.178   7.578   6.041
 7707WAT      O23362   2.686   0.996   3.794
 7707WAT     H123363   2.742   0.922   3.757
 7707WAT     H223364   2.605   1.009   3.736
 7708WAT      O23365   2.212   1.118   3.538
 7708WAT     H123366   2.159   1.076   3.611
 7708WAT     H223367   2.183   1.212   3.525
 7709WAT      O23368   2.935   0.738   6.106
 7709WAT     H123369   2.960   0.773   6.197
 7709WAT     H223370   2.878   0.806   6.059
 7710WAT      O23371   1.239   6.171   9.225
 7710WAT     H123372   1.231   6.142   9.320
 7710WAT     H223373   1.321   6.226   9.213
 7711WAT      O23374   8.181   5.336   8.483
 7711WAT     H123375   8.271   5.294   8.473
 7711WAT     H223376   8.131   5.326   8.397
 7712WAT      O23377   5.969   0.505   1.596
 7712WAT     H123378   6.060   0.508   1.638
 7712WAT     H223379   5.978   0.501   1.497
 7713WAT      O23380   2.974   9.208   2.010
 7713WAT     H123381   3.035   9.154   1.953
 7713WAT     H223382   2.899   9.150   2.043
 7714WAT      O23383   4.717   0.524   2.716
 7714WAT     H123384   4.714   0.492   2.811
 7714WAT     H223385   4.806   0.565   2.698
 7715WAT      O23386   7.931   0.851   8.668
 7715WAT     H123387   7.986   0.865   8.750
 7715WAT     H223388   7.912   0.939   8.625
 7716WAT      O23389   6.991   3.969   8.582
 7716WAT     H123390   6.912   3.992   8.525
 7716WAT     H223391   7.052   3.908   8.530
 7717WAT      O23392   9.600   1.306   0.961
 7717WAT     H123393   9.617   1.394   1.005
 7717WAT     H223394   9.597   1.234   1.031
 7718WAT      O23395   7.802   2.819   1.628
 7718WAT     H123396   7.815   2.785   1.535
 7718WAT     H223397   7.798   2.919   1.626
 7719WAT      O23398   9.843   1.581   9.165
 7719WAT     H123399   9.796   1.654   9.215
 7719WAT     H223400   9.861   1.504   9.226
 7720WAT      O23401   2.098   0.713   5.935
 7720WAT     H123402   2.084   0.766   5.851
 7720WAT     H223403   2.013   0.666   5.959
 7721WAT      O23404   1.848   5.376   5.189
 7721WAT     H123405   1.941   5.348   5.214
 7721WAT     H223406   1.814   5.317   5.116
 7722WAT      O23407   4.657   0.572   9.410
 7722WAT     H123408   4.599   0.521   9.473
 7722WAT     H223409   4.655   0.529   9.320
 7723WAT      O23410   8.609   6.582   1.207
 7723WAT     H123411   8.550   6.626   1.139
 7723WAT     H223412   8.686   6.537   1.160
 7724WAT      O23413   4.888   4.485   0.369
 7724WAT     H123414   4.946   4.418   0.416
 7724WAT     H223415   4.800   4.442   0.346
 7725WAT      O23416   1.380   5.355   8.783
 7725WAT     H123417   1.348   5.305   8.703
 7725WAT     H223418   1.473   5.328   8.804
 7726WAT      O23419   8.766   1.498   4.279
 7726WAT     H123420   8.809   1.412   4.253
 7726WAT     H223421   8.760   1.559   4.200
 7727WAT      O23422   2.907   5.806   6.666
 7727WAT     H123423   2.896   5.905   6.665
 7727WAT     H223424   2.977   5.780   6.733
 7728WAT      O23425   0.895   8.392   7.330
 7728WAT     H123426   0.925   8.406   7.424
 7728WAT     H223427   0.795   8.399   7.326
 7729WAT      O23428   8.874   0.461   2.883
 7729WAT     H123429   8.867   0.496   2.976
 7729WAT     H223430   8.936   0.383   2.880
 7730WAT      O23431   3.786   5.628   1.352
 7730WAT     H123432   3.879   5.627   1.314
 7730WAT     H223433   3.755   5.722   1.362
 7731WAT      O23434   7.900   7.244   4.905
 7731WAT     H123435   7.804   7.274   4.905
 7731WAT     H223436   7.950   7.293   4.834
 7732WAT      O23437   1.788   6.637   5.585
 7732WAT     H123438   1.862   6.688   5.541
 7732WAT     H223439   1.704   6.649   5.533
 7733WAT      O23440   2.794   4.415   2.406
 7733WAT     H123441   2.840   4.331   2.376
 7733WAT     H223442   2.704   4.392   2.442
 7734WAT      O23443   3.082   6.735   8.306
 7734WAT     H123444   3.095   6.825   8.265
 7734WAT     H223445   3.169   6.685   8.305
 7735WAT      O23446   6.038   8.099   4.963
 7735WAT     H123447   6.090   8.184   4.966
 7735WAT     H223448   5.979   8.099   4.882
 7736WAT      O23449   8.583   3.910   1.962
 7736WAT     H123450   8.530   3.930   2.044
 7736WAT     H223451   8.561   3.976   1.891
 7737WAT      O23452   9.032   0.866   8.166
 7737WAT     H123453   8.997   0.878   8.259
 7737WAT     H223454   8.992   0.783   8.127
 7738WAT      O23455   4.815   4.776   9.846
 7738WAT     H123456   4.862   4.727   9.920
 7738WAT     H223457   4.746   4.716   9.805
 7739WAT      O23458   5.920   5.950   6.150
 7739WAT     H123459   5.986   5.904   6.090
 7739WAT     H223460   5.889   6.034   6.106
 7740WAT      O23461   3.895   8.376   1.546
 7740WAT     H123462   3.817   8.314   1.542
 7740WAT     H223463   3.979   8.326   1.523
 7741WAT      O23464   1.317   9.422   1.869
 7741WAT     H123465   1.237   9.478   1.891
 7741WAT     H223466   1.326   9.415   1.770
 7742WAT      O23467   3.019   2.322   5.328
 7742WAT     H123468   3.025   2.245   5.265
 7742WAT     H223469   2.960   2.297   5.405
 7743WAT      O23470   9.336   4.078   8.157
 7743WAT     H123471   9.273   4.045   8.227
 7743WAT     H223472   9.356   4.175   8.172
 7744WAT      O23473   6.881   7.511   6.700
 7744WAT     H123474   6.979   7.531   6.699
 7744WAT     H223475   6.866   7.415   6.675
 7745WAT      O23476   7.154   0.517   7.226
 7745WAT     H123477   7.163   0.429   7.273
 7745WAT     H223478   7.108   0.582   7.286
 7746WAT      O23479   4.502   2.752   6.063
 7746WAT     H123480   4.543   2.812   5.994
 7746WAT     H223481   4.440   2.805   6.120
 7747WAT      O23482   3.775   8.426   3.877
 7747WAT     H123483   3.730   8.508   3.842
 7747WAT     H223484   3.727   8.394   3.959
 7748WAT      O23485   5.133   0.118   1.572
 7748WAT     H123486   5.176   0.040   1.618
 7748WAT     H223487   5.066   0.160   1.633
 7749WAT      O23488   4.457   3.777   5.142
 7749WAT     H123489   4.461   3.678   5.127
 7749WAT     H223490   4.548   3.811   5.165
 7750WAT      O23491   9.147   0.400   3.432
 7750WAT     H123492   9.060   0.378   3.476
 7750WAT     H223493   9.193   0.473   3.483
 7751WAT      O23494   7.944   8.513   7.803
 7751WAT     H123495   7.920   8.463   7.720
 7751WAT     H223496   8.026   8.473   7.844
 7752WAT      O23497   8.401   9.349   5.542
 7752WAT     H123498   8.477   9.379   5.484
 7752WAT     H223499   8.384   9.417   5.612
 7753WAT      O23500   3.787   2.216   6.652
 7753WAT     H123501   3.750   2.308   6.668
 7753WAT     H223502   3.743   2.151   6.713
 7754WAT      O23503   0.875   1.291   7.373
 7754WAT     H123504   0.893   1.339   7.287
 7754WAT     H223505   0.806   1.341   7.425
 7755WAT      O23506   1.644   4.979   8.648
 7755WAT     H123507   1.667   4.936   8.735
 7755WAT     H223508   1.618   4.909   8.582
 7756WAT      O23509   7.613   3.594  -0.005
 7756WAT     H123510   7.632   3.673   0.053
 7756WAT     H223511   7.554   3.530   0.045
 7757WAT      O23512   3.461   2.270   4.659
 7757WAT     H123513   3.425   2.237   4.746
 7757WAT     H223514   3.514   2.198   4.615
 7758WAT      O23515   9.217   2.438   4.674
 7758WAT     H123516   9.231   2.350   4.720
 7758WAT     H223517   9.160   2.496   4.731
 7759WAT      O23518   2.756   7.171   2.047
 7759WAT     H123519   2.787   7.125   2.130
 7759WAT     H223520   2.833   7.187   1.986
 7760WAT      O23521   1.651   6.420   1.643
 7760WAT     H123522   1.688   6.411   1.551
 7760WAT     H223523   1.553   6.402   1.641
 7761WAT      O23524   8.706   0.719   4.922
 7761WAT     H123525   8.608   0.734   4.933
 7761WAT     H223526   8.737   0.764   4.838
 7762WAT      O23527   0.821   7.122   3.540
 7762WAT     H123528   0.870   7.203   3.508
 7762WAT     H223529   0.783   7.140   3.631
 7763WAT      O23530   8.390   6.153   9.325
 7763WAT     H123531   8.471   6.179   9.378
 7763WAT     H223532   8.388   6.205   9.239
 7764WAT      O23533   0.204   1.188   9.074
 7764WAT     H123534   0.143   1.150   9.004
 7764WAT     H223535   0.262   1.257   9.032
 7765WAT      O23536   9.683   0.261   2.950
 7765WAT     H123537   9.671   0.201   3.030
 7765WAT     H223538   9.605   0.250   2.888
 7766WAT      O23539   2.241   5.627   1.494
 7766WAT     H123540   2.284   5.696   1.551
 7766WAT     H223541   2.282   5.537   1.512
 7767WAT      O23542   1.960   8.223   9.753
 7767WAT     H123543   1.976   8.265   9.664
 7767WAT     H223544   1.904   8.141   9.742
 7768WAT      O23545   8.691   4.448   5.126
 7768WAT     H123546   8.736   4.361   5.149
 7768WAT     H223547   8.716   4.517   5.194
 7769WAT      O23548   1.718   8.478   1.953
 7769WAT     H123549   1.619   8.478   1.968
 7769WAT     H223550   1.751   8.384   1.945
 7770WAT      O23551   0.110   9.753   5.411
 7770WAT     H123552   0.020   9.788   5.384
 7770WAT     H223553   0.140   9.799   5.494
 7771WAT      O23554   0.796   2.623   6.785
 7771WAT     H123555   0.865   2.691   6.757
 7771WAT     H223556   0.723   2.620   6.716
 7772WAT      O23557   9.454   8.382   1.897
 7772WAT     H123558   9.545   8.424   1.895
 7772WAT     H223559   9.393   8.438   1.953
 7773WAT      O23560   0.905   3.130   6.180
 7773WAT     H123561   0.869   3.072   6.107
 7773WAT     H223562   0.907   3.079   6.266
 7774WAT      O23563   9.164   9.699   1.634
 7774WAT     H123564   9.254   9.742   1.627
 7774WAT     H223565   9.174   9.608   1.674
 7775WAT      O23566   0.626   0.349   3.732
 7775WAT     H123567   0.699   0.404   3.690
 7775WAT     H223568   0.577   0.300   3.660
 7776WAT      O23569   1.781   5.158   6.801
 7776WAT     H123570   1.762   5.118   6.891
 7776WAT     H223571   1.758   5.093   6.729
 7777WAT      O23572   0.758   0.957   7.849
 7777WAT     H123573   0.761   1.023   7.924
 7777WAT     H223574   0.739   1.004   7.763
 7778WAT      O23575   3.007   6.250   0.966
 7778WAT     H123576   3.049   6.331   1.007
 7778WAT     H223577   3.016   6.173   1.028
 7779WAT      O23578   6.146   8.611   4.014
 7779WAT     H123579   6.102   8.700   4.031
 7779WAT     H223580   6.077   8.545   3.986
 7780WAT      O23581   5.428   7.648   4.498
 7780WAT     H123582   5.462   7.742   4.512
 7780WAT     H223583   5.331   7.651   4.475
 7781WAT      O23584   0.361   0.508   7.636
 7781WAT     H123585   0.417   0.489   7.556
 7781WAT     H223586   0.269   0.469   7.623
 7782WAT      O23587   6.551   9.479   0.700
 7782WAT     H123588   6.631   9.508   0.647
 7782WAT     H223589   6.493   9.421   0.643
 7783WAT      O23590   7.453   3.103   1.277
 7783WAT     H123591   7.364   3.081   1.237
 7783WAT     H223592   7.525   3.054   1.227
 7784WAT      O23593   3.420   6.276   3.635
 7784WAT     H123594   3.474   6.277   3.719
 7784WAT     H223595   3.449   6.200   3.578
 7785WAT      O23596   2.438   3.733   4.152
 7785WAT     H123597   2.535   3.747   4.173
 7785WAT     H223598   2.420   3.765   4.059
 7786WAT      O23599   3.845   1.540   1.789
 7786WAT     H123600   3.831   1.575   1.882
 7786WAT     H223601   3.759   1.547   1.738
 7787WAT      O23602   8.621   7.618   4.936
 7787WAT     H123603   8.631   7.716   4.952
 7787WAT     H223604   8.598   7.573   5.022
 7788WAT      O23605   5.230   2.544   3.860
 7788WAT     H123606   5.270   2.562   3.770
 7788WAT     H223607   5.154   2.608   3.876
 7789WAT      O23608   5.051   0.749   0.163
 7789WAT     H123609   4.951   0.750   0.165
 7789WAT     H223610   5.087   0.836   0.195
 7790WAT      O23611   2.946   3.547   5.534
 7790WAT     H123612   2.871   3.481   5.534
 7790WAT     H223613   3.009   3.526   5.460
 7791WAT      O23614   6.886   3.803   1.608
 7791WAT     H123615   6.800   3.855   1.618
 7791WAT     H223616   6.963   3.866   1.607
 7792WAT      O23617   4.190   2.343   6.471
 7792WAT     H123618   4.098   2.335   6.432
 7792WAT     H223619   4.243   2.261   6.449
 7793WAT      O23620   0.701   8.054   6.183
 7793WAT     H123621   0.692   8.146   6.147
 7793WAT     H223622   0.643   7.991   6.132
 7794WAT      O23623   0.425   2.253   8.976
 7794WAT     H123624   0.488   2.215   9.043
 7794WAT     H223625   0.471   2.261   8.887
 7795WAT      O23626   4.051   7.909   0.700
 7795WAT     H123627   4.105   7.857   0.633
 7795WAT     H223628   4.107   7.928   0.781
 7796WAT      O23629   7.882   1.466   3.435
 7796WAT     H123630   7.979   1.469   3.414
 7796WAT     H223631   7.860   1.536   3.503
 7797WAT      O23632   5.299   8.231   4.755
 7797WAT     H123633   5.398   8.243   4.756
 7797WAT     H223634   5.273   8.155   4.814
 7798WAT      O23635   1.721   7.933   7.757
 7798WAT     H123636   1.676   8.008   7.708
 7798WAT     H223637   1.676   7.847   7.735
 7799WAT      O23638   7.605   3.767   7.608
 7799WAT     H123639   7.599   3.857   7.652
 7799WAT     H223640   7.534   3.707   7.645
 7800WAT      O23641   4.035   9.299   1.006
 7800WAT     H123642   4.070   9.207   1.024
 7800WAT     H223643   4.064   9.360   1.080
 7801WAT      O23644   2.672   6.755   7.406
 7801WAT     H123645   2.679   6.800   7.495
 7801WAT     H223646   2.648   6.659   7.420
 7802WAT      O23647   9.778   6.286   7.688
 7802WAT     H123648   9.711   6.303   7.760
 7802WAT     H223649   9.835   6.208   7.714
 7803WAT      O23650   9.278   6.149   4.154
 7803WAT     H123651   9.282   6.060   4.107
 7803WAT     H223652   9.323   6.141   4.243
 7804WAT      O23653   9.821   3.527   7.050
 7804WAT     H123654   9.769   3.523   7.136
 7804WAT     H223655   9.903   3.471   7.058
 7805WAT      O23656   1.200   3.024   5.131
 7805WAT     H123657   1.177   3.017   5.228
 7805WAT     H223658   1.280   2.969   5.111
 7806WAT      O23659   3.651   7.864   7.258
 7806WAT     H123660   3.726   7.798   7.264
 7806WAT     H223661   3.683   7.954   7.287
 7807WAT      O23662   3.839   2.511   8.975
 7807WAT     H123663   3.871   2.512   9.070
 7807WAT     H223664   3.883   2.586   8.925
 7808WAT      O23665   8.949   4.184   0.515
 7808WAT     H123666   9.033   4.135   0.541
 7808WAT     H223667   8.926   4.163   0.420
 7809WAT      O23668   0.403   9.266   5.961
 7809WAT     H123669   0.389   9.198   5.889
 7809WAT     H223670   0.484   9.242   6.014
 7810WAT      O23671   1.010   7.567   6.601
 7810WAT     H123672   0.930   7.577   6.542
 7810WAT     H223673   0.988   7.599   6.693
 7811WAT      O23674   6.486   7.590   8.853
 7811WAT     H123675   6.582   7.588   8.883
 7811WAT     H223676   6.479   7.640   8.767
 7812WAT      O23677   8.536   7.078   6.152
 7812WAT     H123678   8.587   7.023   6.086
 7812WAT     H223679   8.446   7.100   6.114
 7813WAT      O23680   9.438   4.974   0.490
 7813WAT     H123681   9.371   4.992   0.561
 7813WAT     H223682   9.411   5.021   0.406
 7814WAT      O23683   3.061   4.539   3.083
 7814WAT     H123684   3.094   4.611   3.023
 7814WAT     H223685   2.997   4.481   3.034
 7815WAT      O23686   5.691   7.780   8.635
 7815WAT     H123687   5.614   7.761   8.696
 7815WAT     H223688   5.761   7.831   8.685
 7816WAT      O23689   4.804   2.800   2.825
 7816WAT     H123690   4.762   2.724   2.774
 7816WAT     H223691   4.745   2.824   2.903
 7817WAT      O23692   3.683   7.528   8.142
 7817WAT     H123693   3.709   7.432   8.134
 7817WAT     H223694   3.765   7.585   8.134
 7818WAT      O23695   0.755   5.230   1.492
 7818WAT     H123696   0.796   5.275   1.571
 7818WAT     H223697   0.732   5.298   1.422
 7819WAT      O23698   2.848   2.693   2.690
 7819WAT     H123699   2.891   2.729   2.607
 7819WAT     H223700   2.914   2.638   2.741
 7820WAT      O23701   0.496   3.731   5.594
 7820WAT     H123702   0.548   3.704   5.676
 7820WAT     H223703   0.543   3.698   5.512
 7821WAT      O23704   1.144   3.701   8.448
 7821WAT     H123705   1.213   3.740   8.509
 7821WAT     H223706   1.173   3.714   8.353
 7822WAT      O23707   1.684   3.121   5.745
 7822WAT     H123708   1.718   3.052   5.682
 7822WAT     H223709   1.621   3.078   5.810
 7823WAT      O23710   7.247   2.458   3.299
 7823WAT     H123711   7.207   2.481   3.387
 7823WAT     H223712   7.294   2.370   3.305
 7824WAT      O23713   6.292   9.526   2.304
 7824WAT     H123714   6.245   9.447   2.343
 7824WAT     H223715   6.350   9.568   2.373
 7825WAT      O23716   8.348   0.612   5.644
 7825WAT     H123717   8.321   0.706   5.665
 7825WAT     H223718   8.426   0.613   5.581
 7826WAT      O23719   4.423   5.916   4.268
 7826WAT     H123720   4.337   5.897   4.221
 7826WAT     H223721   4.475   5.832   4.277
 7827WAT      O23722   2.498   9.064   5.144
 7827WAT     H123723   2.409   9.097   5.175
 7827WAT     H223724   2.569   9.130   5.171
 7828WAT      O23725   7.576   6.028   4.709
 7828WAT     H123726   7.489   6.076   4.710
 7828WAT     H223727   7.572   5.950   4.771
 7829WAT      O23728   0.449   0.578   6.495
 7829WAT     H123729   0.402   0.593   6.408
 7829WAT     H223730   0.546   0.600   6.484
 7830WAT      O23731   7.117   3.610   4.919
 7830WAT     H123732   7.151   3.595   5.011
 7830WAT     H223733   7.192   3.643   4.861
 7831WAT      O23734   7.492   8.030   0.840
 7831WAT     H123735   7.424   7.982   0.895
 7831WAT     H223736   7.524   7.970   0.766
 7832WAT      O23737   3.727   1.552   9.012
 7832WAT     H123738   3.723   1.620   8.939
 7832WAT     H223739   3.788   1.478   8.985
 7833WAT      O23740   5.547   9.197   7.078
 7833WAT     H123741   5.623   9.185   7.015
 7833WAT     H223742   5.557   9.283   7.127
 7834WAT      O23743   3.222   1.010   4.894
 7834WAT     H123744   3.189   0.916   4.895
 7834WAT     H223745   3.176   1.063   4.965
 7835WAT      O23746   5.258   6.409   6.317
 7835WAT     H123747   5.264   6.403   6.417
 7835WAT     H223748   5.265   6.317   6.279
 7836WAT      O23749   8.344   9.431   7.923
 7836WAT     H123750   8.359   9.511   7.982
 7836WAT     H223751   8.389   9.446   7.835
 7837WAT      O23752   7.248   8.220   3.405
 7837WAT     H123753   7.346   8.213   3.423
 7837WAT     H223754   7.225   8.314   3.381
 7838WAT      O23755   0.027   0.861   3.092
 7838WAT     H123756  -0.008   0.865   2.998
 7838WAT     H223757  -0.039   0.903   3.154
 7839WAT      O23758   6.580   2.795   8.293
 7839WAT     H123759   6.635   2.753   8.220
 7839WAT     H223760   6.529   2.873   8.255
 7840WAT      O23761   2.816   2.274   8.319
 7840WAT     H123762   2.826   2.371   8.299
 7840WAT     H223763   2.821   2.259   8.418
 7841WAT      O23764   6.569   7.770   4.227
 7841WAT     H123765   6.658   7.788   4.268
 7841WAT     H223766   6.574   7.787   4.129
 7842WAT      O23767   3.104   4.266   6.896
 7842WAT     H123768   3.025   4.307   6.943
 7842WAT     H223769   3.158   4.338   6.853
 7843WAT      O23770   7.052   8.465   3.089
 7843WAT     H123771   7.098   8.535   3.034
 7843WAT     H223772   7.092   8.464   3.181
 7844WAT      O23773   5.432   7.053   3.659
 7844WAT     H123774   5.484   6.972   3.687
 7844WAT     H223775   5.356   7.068   3.722
 7845WAT      O23776   8.376   6.248   8.222
 7845WAT     H123777   8.287   6.233   8.266
 7845WAT     H223778   8.362   6.266   8.124
 7846WAT      O23779   3.825   4.811   5.519
 7846WAT     H123780   3.875   4.888   5.478
 7846WAT     H223781   3.833   4.731   5.459
 7847WAT      O23782   0.369   7.336   2.566
 7847WAT     H123783   0.445   7.313   2.505
 7847WAT     H223784   0.346   7.433   2.554
 7848WAT      O23785   8.028   2.386   8.567
 7848WAT     H123786   8.074   2.422   8.486
 7848WAT     H223787   7.960   2.452   8.599
 7849WAT      O23788   0.991   6.956   9.329
 7849WAT     H123789   0.925   6.972   9.402
 7849WAT     H223790   0.945   6.962   9.240
 7850WAT      O23791   8.460   5.009   5.664
 7850WAT     H123792   8.482   5.094   5.712
 7850WAT     H223793   8.401   5.030   5.585
 7851WAT      O23794   1.962   6.132   5.978
 7851WAT     H123795   1.894   6.182   5.925
 7851WAT     H223796   1.958   6.035   5.956
 7852WAT      O23797   0.496   1.577   1.536
 7852WAT     H123798   0.496   1.499   1.599
 7852WAT     H223799   0.492   1.544   1.442
 7853WAT      O23800   5.518   7.335   5.940
 7853WAT     H123801   5.445   7.351   5.874
 7853WAT     H223802   5.589   7.278   5.899
 7854WAT      O23803   5.275   4.668   4.844
 7854WAT     H123804   5.180   4.681   4.817
 7854WAT     H223805   5.306   4.748   4.896
 7855WAT      O23806   9.236   2.488   2.156
 7855WAT     H123807   9.335   2.499   2.152
 7855WAT     H223808   9.192   2.571   2.121
 7856WAT      O23809   9.879   0.940   7.270
 7856WAT     H123810   9.886   0.915   7.173
 7856WAT     H223811   9.888   0.858   7.326
 7857WAT      O23812   0.966   6.748   6.922
 7857WAT     H123813   1.037   6.769   6.854
 7857WAT     H223814   0.940   6.652   6.914
 7858WAT      O23815   9.594   1.998   6.140
 7858WAT     H123816   9.664   2.041   6.082
 7858WAT     H223817   9.587   1.901   6.118
 7859WAT      O23818   7.010   0.763   0.404
 7859WAT     H123819   6.962   0.786   0.488
 7859WAT     H223820   6.973   0.817   0.328
 7860WAT      O23821   1.739   9.206   2.635
 7860WAT     H123822   1.716   9.188   2.730
 7860WAT     H223823   1.812   9.274   2.630
 7861WAT      O23824   0.222   2.849   3.374
 7861WAT     H123825   0.306   2.867   3.324
 7861WAT     H223826   0.147   2.832   3.309
 7862WAT      O23827   9.847   6.781   4.920
 7862WAT     H123828   9.906   6.823   4.989
 7862WAT     H223829   9.847   6.681   4.933
 7863WAT      O23830   5.425   9.281   9.066
 7863WAT     H123831   5.369   9.289   8.984
 7863WAT     H223832   5.405   9.195   9.113
 7864WAT      O23833   0.502   3.192   2.294
 7864WAT     H123834   0.547   3.282   2.293
 7864WAT     H223835   0.454   3.178   2.207
 7865WAT      O23836   7.079   6.660   3.184
 7865WAT     H123837   7.064   6.568   3.220
 7865WAT     H223838   7.146   6.657   3.110
 7866WAT      O23839   8.682   3.093   6.030
 7866WAT     H123840   8.640   3.006   6.005
 7866WAT     H223841   8.615   3.151   6.077
 7867WAT      O23842   0.875   1.840   6.634
 7867WAT     H123843   0.797   1.829   6.573
 7867WAT     H223844   0.842   1.866   6.725
 7868WAT      O23845   6.486   8.687   1.444
 7868WAT     H123846   6.583   8.711   1.447
 7868WAT     H223847   6.472   8.599   1.489
 7869WAT      O23848   2.690   6.972   3.617
 7869WAT     H123849   2.600   6.979   3.574
 7869WAT     H223850   2.750   6.916   3.560
 7870WAT      O23851   3.831   3.857   2.914
 7870WAT     H123852   3.889   3.848   2.995
 7870WAT     H223853   3.770   3.778   2.907
 7871WAT      O23854   7.216   0.083   0.496
 7871WAT     H123855   7.280   0.132   0.436
 7871WAT     H223856   7.215  -0.014   0.472
 7872WAT      O23857   4.886   4.863   8.741
 7872WAT     H123858   4.825   4.798   8.787
 7872WAT     H223859   4.876   4.953   8.783
 7873WAT      O23860   2.199   8.022   9.046
 7873WAT     H123861   2.143   8.035   9.128
 7873WAT     H223862   2.294   8.006   9.073
 7874WAT      O23863   9.131   6.190   7.431
 7874WAT     H123864   9.055   6.124   7.426
 7874WAT     H223865   9.189   6.167   7.509
 7875WAT      O23866   6.883   8.603   9.709
 7875WAT     H123867   6.898   8.671   9.781
 7875WAT     H223868   6.910   8.641   9.621
 7876WAT      O23869   2.714   9.468   8.983
 7876WAT     H123870   2.692   9.387   8.928
 7876WAT     H223871   2.661   9.546   8.951
 7877WAT      O23872   7.239   4.247   2.964
 7877WAT     H123873   7.258   4.345   2.966
 7877WAT     H223874   7.142   4.232   2.985
 7878WAT      O23875   1.697   2.285   2.855
 7878WAT     H123876   1.639   2.233   2.918
 7878WAT     H223877   1.671   2.381   2.857
 7879WAT      O23878   4.823   1.580   2.417
 7879WAT     H123879   4.913   1.554   2.380
 7879WAT     H223880   4.829   1.671   2.458
 7880WAT      O23881   3.280   5.915   1.597
 7880WAT     H123882   3.276   6.004   1.552
 7880WAT     H223883   3.282   5.843   1.527
 7881WAT      O23884   8.912   8.456   1.098
 7881WAT     H123885   8.832   8.463   1.157
 7881WAT     H223886   8.892   8.501   1.010
 7882WAT      O23887   1.173   5.210   6.930
 7882WAT     H123888   1.215   5.300   6.940
 7882WAT     H223889   1.116   5.190   7.010
 7883WAT      O23890   8.944   6.691   9.700
 7883WAT     H123891   8.879   6.672   9.626
 7883WAT     H223892   8.939   6.788   9.725
 7884WAT      O23893   4.002   8.725   1.172
 7884WAT     H123894   4.022   8.644   1.228
 7884WAT     H223895   4.014   8.703   1.076
 7885WAT      O23896   6.557   5.827   0.740
 7885WAT     H123897   6.544   5.729   0.729
 7885WAT     H223898   6.637   5.855   0.687
 7886WAT      O23899   5.602   2.868   3.271
 7886WAT     H123900   5.522   2.808   3.267
 7886WAT     H223901   5.653   2.849   3.355
 7887WAT      O23902   1.526   8.282   8.871
 7887WAT     H123903   1.528   8.373   8.828
 7887WAT     H223904   1.618   8.259   8.904
 7888WAT      O23905   9.128   0.128   5.269
 7888WAT     H123906   9.044   0.165   5.310
 7888WAT     H223907   9.104   0.062   5.198
 7889WAT      O23908   8.155   5.611   1.905
 7889WAT     H123909   8.185   5.667   1.827
 7889WAT     H223910   8.226   5.545   1.927
 7890WAT      O23911   6.018   7.564   2.054
 7890WAT     H123912   6.067   7.562   2.142
 7890WAT     H223913   5.941   7.500   2.058
 7891WAT      O23914   5.693   8.312   2.616
 7891WAT     H123915   5.788   8.339   2.597
 7891WAT     H223916   5.691   8.217   2.647
 7892WAT      O23917   3.662   0.743   5.695
 7892WAT     H123918   3.684   0.664   5.638
 7892WAT     H223919   3.746   0.785   5.729
 7893WAT      O23920   0.404   8.407   8.678
 7893WAT     H123921   0.401   8.506   8.666
 7893WAT     H223922   0.375   8.383   8.770
 7894WAT      O23923   6.889   4.983   0.961
 7894WAT     H123924   6.801   5.028   0.971
 7894WAT     H223925   6.962   5.051   0.957
 7895WAT      O23926   3.721   9.106   6.136
 7895WAT     H123927   3.644   9.050   6.104
 7895WAT     H223928   3.691   9.162   6.213
 7896WAT      O23929   7.669   6.488   4.434
 7896WAT     H123930   7.578   6.465   4.400
 7896WAT     H223931   7.737   6.436   4.384
 7897WAT      O23932   6.328   9.202   9.675
 7897WAT     H123933   6.380   9.272   9.627
 7897WAT     H223934   6.275   9.149   9.608
 7898WAT      O23935   3.391   5.457   7.168
 7898WAT     H123936   3.344   5.436   7.082
 7898WAT     H223937   3.470   5.398   7.178
 7899WAT      O23938   7.318   8.080   7.280
 7899WAT     H123939   7.368   8.166   7.279
 7899WAT     H223940   7.376   8.007   7.243
 7900WAT      O23941   5.484   9.294   8.337
 7900WAT     H123942   5.411   9.226   8.327
 7900WAT     H223943   5.515   9.294   8.432
 7901WAT      O23944   3.604   6.989   1.083
 7901WAT     H123945   3.639   6.895   1.089
 7901WAT     H223946   3.568   7.017   1.171
 7902WAT      O23947   9.815   3.244   4.609
 7902WAT     H123948   9.880   3.229   4.534
 7902WAT     H223949   9.723   3.222   4.579
 7903WAT      O23950   6.833   8.789   1.913
 7903WAT     H123951   6.868   8.874   1.952
 7903WAT     H223952   6.791   8.808   1.824
 7904WAT      O23953   1.648   9.074   1.330
 7904WAT     H123954   1.634   9.026   1.243
 7904WAT     H223955   1.573   9.054   1.392
 7905WAT      O23956   3.499   0.851   3.144
 7905WAT     H123957   3.559   0.772   3.127
 7905WAT     H223958   3.521   0.924   3.080
 7906WAT      O23959   9.210   1.191   1.432
 7906WAT     H123960   9.257   1.142   1.505
 7906WAT     H223961   9.249   1.283   1.423
 7907WAT      O23962   3.693   8.580   5.283
 7907WAT     H123963   3.682   8.484   5.309
 7907WAT     H223964   3.729   8.632   5.360
 7908WAT      O23965   2.486   1.899   8.392
 7908WAT     H123966   2.463   1.816   8.341
 7908WAT     H223967   2.452   1.979   8.343
 7909WAT      O23968   1.847   0.248   6.833
 7909WAT     H123969   1.933   0.299   6.829
 7909WAT     H223970   1.854   0.175   6.901
 7910WAT      O23971   1.337   7.906   9.551
 7910WAT     H123972   1.246   7.905   9.593
 7910WAT     H223973   1.336   7.849   9.468
 7911WAT      O23974   2.690   8.000   6.467
 7911WAT     H123975   2.749   7.931   6.424
 7911WAT     H223976   2.679   8.077   6.404
 7912WAT      O23977   8.740   0.420   0.745
 7912WAT     H123978   8.698   0.507   0.773
 7912WAT     H223979   8.735   0.355   0.820
 7913WAT      O23980   3.251   0.871   1.100
 7913WAT     H123981   3.193   0.952   1.107
 7913WAT     H223982   3.346   0.899   1.085
 7914WAT      O23983   6.826   2.461   4.424
 7914WAT     H123984   6.785   2.375   4.454
 7914WAT     H223985   6.809   2.474   4.326
 7915WAT      O23986   8.540   2.093   2.056
 7915WAT     H123987   8.500   2.093   2.148
 7915WAT     H223988   8.622   2.151   2.056
 7916WAT      O23989   1.641   2.374   4.924
 7916WAT     H123990   1.566   2.365   4.858
 7916WAT     H223991   1.655   2.287   4.971
 7917WAT      O23992   3.419   0.004   6.609
 7917WAT     H123993   3.382  -0.029   6.522
 7917WAT     H223994   3.418   0.104   6.611
 7918WAT      O23995   3.938   9.386   9.719
 7918WAT     H123996   3.998   9.426   9.649
 7918WAT     H223997   3.861   9.447   9.736
 7919WAT      O23998   0.776   0.864   4.220
 7919WAT     H123999   0.797   0.780   4.171
 7919WAT     H224000   0.856   0.925   4.218
 7920WAT      O24001   6.965   5.503   7.362
 7920WAT     H124002   7.000   5.589   7.325
 7920WAT     H224003   6.868   5.511   7.382
 7921WAT      O24004   3.664   0.490   1.703
 7921WAT     H124005   3.704   0.415   1.756
 7921WAT     H224006   3.650   0.569   1.762
 7922WAT      O24007   4.911   8.051   6.957
 7922WAT     H124008   4.878   8.130   7.010
 7922WAT     H224009   4.848   7.975   6.967
 7923WAT      O24010   8.060   8.034   7.170
 7923WAT     H124011   8.159   8.027   7.170
 7923WAT     H224012   8.023   7.991   7.253
 7924WAT      O24013   3.483   1.035   2.244
 7924WAT     H124014   3.561   1.051   2.183
 7924WAT     H224015   3.405   1.088   2.212
 7925WAT      O24016   7.680   2.193   8.448
 7925WAT     H124017   7.590   2.165   8.480
 7925WAT     H224018   7.713   2.130   8.378
 7926WAT      O24019   5.896   1.829   1.060
 7926WAT     H124020   5.982   1.778   1.057
 7926WAT     H224021   5.903   1.902   1.128
 7927WAT      O24022   2.425   3.756   2.213
 7927WAT     H124023   2.418   3.856   2.205
 7927WAT     H224024   2.487   3.733   2.287
 7928WAT      O24025   6.573   5.407   6.981
 7928WAT     H124026   6.588   5.331   7.044
 7928WAT     H224027   6.523   5.480   7.027
 7929WAT      O24028   3.314   6.298   1.679
 7929WAT     H124029   3.295   6.340   1.590
 7929WAT     H224030   3.235   6.309   1.739
 7930WAT      O24031   2.805   1.039   1.367
 7930WAT     H124032   2.843   1.100   1.298
 7930WAT     H224033   2.826   0.944   1.345
 7931WAT      O24034   6.256   7.941   5.304
 7931WAT     H124035   6.349   7.907   5.318
 7931WAT     H224036   6.234   7.938   5.206
 7932WAT      O24037   1.791   6.757   6.257
 7932WAT     H124038   1.779   6.758   6.356
 7932WAT     H224039   1.841   6.675   6.230
 7933WAT      O24040   4.404   2.689   7.806
 7933WAT     H124041   4.418   2.787   7.814
 7933WAT     H224042   4.421   2.660   7.711
 7934WAT      O24043   4.863   1.764   5.229
 7934WAT     H124044   4.849   1.768   5.130
 7934WAT     H224045   4.777   1.783   5.275
 7935WAT      O24046   1.449   5.470   0.779
 7935WAT     H124047   1.427   5.566   0.794
 7935WAT     H224048   1.519   5.441   0.845
 7936WAT      O24049   4.721   6.337   7.372
 7936WAT     H124050   4.810   6.382   7.380
 7936WAT     H224051   4.671   6.376   7.295
 7937WAT      O24052   3.891   3.322   0.602
 7937WAT     H124053   3.874   3.280   0.513
 7937WAT     H224054   3.816   3.300   0.664
 7938WAT      O24055   4.724   0.307   6.072
 7938WAT     H124056   4.801   0.338   6.016
 7938WAT     H224057   4.706   0.375   6.144
 7939WAT      O24058   6.941   6.789   0.037
 7939WAT     H124059   6.901   6.810  -0.052
 7939WAT     H224060   6.910   6.699   0.068
 7940WAT      O24061   1.292   5.548   2.502
 7940WAT     H124062   1.390   5.539   2.488
 7940WAT     H224063   1.258   5.471   2.556
 7941WAT      O24064   7.037   9.049   5.094
 7941WAT     H124065   7.050   8.981   5.022
 7941WAT     H224066   7.080   9.016   5.178
 7942WAT      O24067   5.583   9.412   3.516
 7942WAT     H124068   5.635   9.382   3.436
 7942WAT     H224069   5.643   9.414   3.596
 7943WAT      O24070   2.177   9.654   0.545
 7943WAT     H124071   2.122   9.644   0.628
 7943WAT     H224072   2.133   9.607   0.469
 7944WAT      O24073   2.210   7.643   6.985
 7944WAT     H124074   2.301   7.648   6.945
 7944WAT     H224075   2.181   7.735   7.013
 7945WAT      O24076   1.364   0.218   5.708
 7945WAT     H124077   1.417   0.300   5.686
 7945WAT     H224078   1.376   0.196   5.804
 7946WAT      O24079   0.948   5.035   7.442
 7946WAT     H124080   0.933   5.088   7.526
 7946WAT     H224081   1.045   5.018   7.431
 7947WAT      O24082   9.191   8.095   8.891
 7947WAT     H124083   9.232   8.075   8.980
 7947WAT     H224084   9.245   8.166   8.845
 7948WAT      O24085   9.424   0.720   7.211
 7948WAT     H124086   9.387   0.649   7.272
 7948WAT     H224087   9.519   0.699   7.189
 7949WAT      O24088   7.005   0.730   8.343
 7949WAT     H124089   7.051   0.704   8.428
 7949WAT     H224090   6.912   0.759   8.363
 7950WAT      O24091   8.918   7.304   4.011
 7950WAT     H124092   8.906   7.228   4.075
 7950WAT     H224093   8.872   7.282   3.925
 7951WAT      O24094   1.051   8.676   1.149
 7951WAT     H124095   1.112   8.753   1.130
 7951WAT     H224096   0.976   8.676   1.084
 7952WAT      O24097   5.045   6.815   3.687
 7952WAT     H124098   5.088   6.826   3.597
 7952WAT     H224099   4.976   6.743   3.682
 7953WAT      O24100   0.924   4.230   4.290
 7953WAT     H124101   0.885   4.322   4.294
 7953WAT     H224102   0.852   4.163   4.309
 7954WAT      O24103   7.387   5.426   4.495
 7954WAT     H124104   7.334   5.509   4.507
 7954WAT     H224105   7.484   5.449   4.488
 7955WAT      O24106   9.603   6.230   0.235
 7955WAT     H124107   9.564   6.311   0.279
 7955WAT     H224108   9.675   6.192   0.293
 7956WAT      O24109   8.568   2.309   1.094
 7956WAT     H124110   8.484   2.363   1.103
 7956WAT     H224111   8.547   2.212   1.106
 7957WAT      O24112   7.841   0.519   7.992
 7957WAT     H124113   7.774   0.524   8.066
 7957WAT     H224114   7.911   0.589   8.005
 7958WAT      O24115   1.434   4.117   5.697
 7958WAT     H124116   1.515   4.165   5.730
 7958WAT     H224117   1.358   4.182   5.691
 7959WAT      O24118   7.163   2.960   2.157
 7959WAT     H124119   7.193   2.918   2.072
 7959WAT     H224120   7.170   3.060   2.150
 7960WAT      O24121   1.569   4.425   2.549
 7960WAT     H124122   1.595   4.455   2.641
 7960WAT     H224123   1.551   4.505   2.492
 7961WAT      O24124   1.862   4.910   5.902
 7961WAT     H124125   1.873   4.885   5.806
 7961WAT     H224126   1.778   4.868   5.938
 7962WAT      O24127   3.922   8.879   9.466
 7962WAT     H124128   3.826   8.863   9.488
 7962WAT     H224129   3.968   8.791   9.450
 7963WAT      O24130   7.720   4.225   9.518
 7963WAT     H124131   7.656   4.149   9.503
 7963WAT     H224132   7.705   4.263   9.609
 7964WAT      O24133   7.270   2.792   1.275
 7964WAT     H124134   7.283   2.820   1.370
 7964WAT     H224135   7.256   2.872   1.217
 7965WAT      O24136   7.670   2.872   5.867
 7965WAT     H124137   7.704   2.954   5.820
 7965WAT     H224138   7.587   2.896   5.919
 7966WAT      O24139   5.480   4.207   3.279
 7966WAT     H124140   5.448   4.123   3.236
 7966WAT     H224141   5.579   4.215   3.267
 7967WAT      O24142   6.881   2.225   4.905
 7967WAT     H124143   6.855   2.279   4.985
 7967WAT     H224144   6.800   2.178   4.869
 7968WAT      O24145   3.623   5.863   4.522
 7968WAT     H124146   3.669   5.787   4.476
 7968WAT     H224147   3.686   5.907   4.586
 7969WAT      O24148   1.870   4.724   0.719
 7969WAT     H124149   1.882   4.626   0.704
 7969WAT     H224150   1.908   4.748   0.809
 7970WAT      O24151   3.072   6.685   1.714
 7970WAT     H124152   3.032   6.693   1.623
 7970WAT     H224153   3.000   6.669   1.782
 7971WAT      O24154   2.233   4.378   8.212
 7971WAT     H124155   2.149   4.389   8.265
 7971WAT     H224156   2.243   4.282   8.186
 7972WAT      O24157   3.058   1.125   4.274
 7972WAT     H124158   3.056   1.033   4.236
 7972WAT     H224159   3.007   1.126   4.361
 7973WAT      O24160   8.455   7.093   2.535
 7973WAT     H124161   8.554   7.105   2.529
 7973WAT     H224162   8.432   7.047   2.621
 7974WAT      O24163   1.090   9.749   9.615
 7974WAT     H124164   0.991   9.761   9.606
 7974WAT     H224165   1.123   9.688   9.542
 7975WAT      O24166   9.885   1.998   0.174
 7975WAT     H124167   9.786   2.004   0.166
 7975WAT     H224168   9.921   1.937   0.103
 7976WAT      O24169   0.234   2.899   8.763
 7976WAT     H124170   0.283   2.981   8.794
 7976WAT     H224171   0.240   2.893   8.664
 7977WAT      O24172   3.760   1.551   7.809
 7977WAT     H124173   3.697   1.499   7.866
 7977WAT     H224174   3.727   1.553   7.715
 7978WAT      O24175   5.201   5.849   8.340
 7978WAT     H124176   5.255   5.817   8.262
 7978WAT     H224177   5.186   5.774   8.404
 7979WAT      O24178   6.994   4.453   9.150
 7979WAT     H124179   6.983   4.485   9.244
 7979WAT     H224180   7.090   4.460   9.123
 7980WAT      O24181   7.836   2.209   5.127
 7980WAT     H124182   7.877   2.245   5.043
 7980WAT     H224183   7.786   2.283   5.174
 7981WAT      O24184   4.461   2.773   2.302
 7981WAT     H124185   4.430   2.754   2.209
 7981WAT     H224186   4.552   2.815   2.300
 7982WAT      O24187   3.881   6.240   3.744
 7982WAT     H124188   3.843   6.149   3.761
 7982WAT     H224189   3.815   6.310   3.772
 7983WAT      O24190   6.286   0.787   1.082
 7983WAT     H124191   6.293   0.742   1.171
 7983WAT     H224192   6.378   0.811   1.049
 7984WAT      O24193   8.827   5.910   5.911
 7984WAT     H124194   8.743   5.922   5.963
 7984WAT     H224195   8.902   5.956   5.957
 7985WAT      O24196   4.769   2.725   6.409
 7985WAT     H124197   4.698   2.716   6.479
 7985WAT     H224198   4.756   2.812   6.360
 7986WAT      O24199   2.588   9.476   3.095
 7986WAT     H124200   2.662   9.424   3.052
 7986WAT     H224201   2.557   9.427   3.177
 7987WAT      O24202   4.440   7.362   6.206
 7987WAT     H124203   4.477   7.284   6.257
 7987WAT     H224204   4.350   7.339   6.170
 7988WAT      O24205   1.244   8.287   7.533
 7988WAT     H124206   1.293   8.374   7.545
 7988WAT     H224207   1.145   8.305   7.532
 7989WAT      O24208   8.780   5.917   0.147
 7989WAT     H124209   8.698   5.975   0.141
 7989WAT     H224210   8.833   5.942   0.228
 7990WAT      O24211   0.122   2.048   4.677
 7990WAT     H124212   0.222   2.047   4.687
 7990WAT     H224213   0.080   2.001   4.755
 7991WAT      O24214   0.630   9.474   8.828
 7991WAT     H124215   0.718   9.461   8.783
 7991WAT     H224216   0.562   9.502   8.759
 7992WAT      O24217   8.690   5.662   3.455
 7992WAT     H124218   8.652   5.745   3.495
 7992WAT     H224219   8.653   5.582   3.502
 7993WAT      O24220   9.435   9.755   0.615
 7993WAT     H124221   9.445   9.704   0.529
 7993WAT     H224222   9.345   9.798   0.618
 7994WAT      O24223   8.703   9.550   5.163
 7994WAT     H124224   8.781   9.520   5.109
 7994WAT     H224225   8.619   9.536   5.110
 7995WAT      O24226   8.732   8.301   8.249
 7995WAT     H124227   8.825   8.280   8.280
 7995WAT     H224228   8.698   8.224   8.194
 7996WAT      O24229   5.594   3.133   5.403
 7996WAT     H124230   5.663   3.063   5.426
 7996WAT     H224231   5.638   3.206   5.351
 7997WAT      O24232   8.680   3.508   8.131
 7997WAT     H124233   8.624   3.535   8.209
 7997WAT     H224234   8.624   3.509   8.048
 7998WAT      O24235   8.749   5.429   3.849
 7998WAT     H124236   8.838   5.395   3.820
 7998WAT     H224237   8.738   5.415   3.948
 7999WAT      O24238   3.168   5.062   9.888
 7999WAT     H124239   3.268   5.066   9.898
 7999WAT     H224240   3.146   5.020   9.800
 8000WAT      O24241   8.322   3.115   4.374
 8000WAT     H124242   8.275   3.158   4.296
 8000WAT     H224243   8.301   3.166   4.457
 8001WAT      O24244   6.354   1.237   1.789
 8001WAT     H124245   6.349   1.148   1.743
 8001WAT     H224246   6.426   1.235   1.858
 8002WAT      O24247   5.313   3.929   1.032
 8002WAT     H124248   5.364   3.856   0.987
 8002WAT     H224249   5.374   3.982   1.091
 8003WAT      O24250   2.080   0.279   2.709
 8003WAT     H124251   2.142   0.249   2.637
 8003WAT     H224252   1.997   0.316   2.667
 8004WAT      O24253   4.493   4.252   4.125
 8004WAT     H124254   4.475   4.281   4.031
 8004WAT     H224255   4.420   4.285   4.185
 8005WAT      O24256   2.793   6.307   7.028
 8005WAT     H124257   2.712   6.364   7.013
 8005WAT     H224258   2.867   6.338   6.968
 8006WAT      O24259   0.966   5.228   0.099
 8006WAT     H124260   0.940   5.296   0.169
 8006WAT     H224261   1.043   5.263   0.046
 8007WAT      O24262   7.980   3.296   2.861
 8007WAT     H124263   7.884   3.304   2.886
 8007WAT     H224264   7.994   3.215   2.805
 8008WAT      O24265   5.858   3.921   1.178
 8008WAT     H124266   5.953   3.901   1.152
 8008WAT     H224267   5.857   3.987   1.252
 8009WAT      O24268   9.072   3.526   1.171
 8009WAT     H124269   9.105   3.559   1.259
 8009WAT     H224270   8.997   3.585   1.139
 8010WAT      O24271   2.628   4.608   9.129
 8010WAT     H124272   2.576   4.525   9.148
 8010WAT     H224273   2.626   4.667   9.210
 8011WAT      O24274   5.433   4.474   3.041
 8011WAT     H124275   5.473   4.384   3.024
 8011WAT     H224276   5.340   4.477   3.004
 8012WAT      O24277   2.054   9.504   3.238
 8012WAT     H124278   1.998   9.474   3.161
 8012WAT     H224279   2.126   9.436   3.255
 8013WAT      O24280   2.757   6.027   1.547
 8013WAT     H124281   2.814   5.968   1.603
 8013WAT     H224282   2.678   6.058   1.600
 8014WAT      O24283   4.261   7.321   9.828
 8014WAT     H124284   4.182   7.262   9.843
 8014WAT     H224285   4.230   7.413   9.803
 8015WAT      O24286   5.684   1.397   1.866
 8015WAT     H124287   5.629   1.344   1.802
 8015WAT     H224288   5.776   1.358   1.871
 8016WAT      O24289   9.239   8.450   4.816
 8016WAT     H124290   9.211   8.465   4.911
 8016WAT     H224291   9.158   8.429   4.761
 8017WAT      O24292   5.893   8.787   9.405
 8017WAT     H124293   5.961   8.731   9.453
 8017WAT     H224294   5.938   8.867   9.366
 8018WAT      O24295   2.216   4.747   8.240
 8018WAT     H124296   2.256   4.730   8.331
 8018WAT     H224297   2.144   4.815   8.247
 8019WAT      O24298   1.498   2.729   3.500
 8019WAT     H124299   1.434   2.718   3.425
 8019WAT     H224300   1.554   2.646   3.509
 8020WAT      O24301   4.552   4.337   8.344
 8020WAT     H124302   4.577   4.312   8.437
 8020WAT     H224303   4.595   4.425   8.321
 8021WAT      O24304   0.347   7.953   4.696
 8021WAT     H124305   0.372   8.037   4.743
 8021WAT     H224306   0.259   7.966   4.649
 8022WAT      O24307   1.966   6.890   4.527
 8022WAT     H124308   1.888   6.868   4.587
 8022WAT     H224309   1.993   6.808   4.476
 8023WAT      O24310   1.855   7.426   4.531
 8023WAT     H124311   1.802   7.501   4.491
 8023WAT     H224312   1.903   7.459   4.612
 8024WAT      O24313   3.470   7.565   9.310
 8024WAT     H124314   3.460   7.625   9.231
 8024WAT     H224315   3.515   7.614   9.385
 8025WAT      O24316   6.118   7.526   8.400
 8025WAT     H124317   6.048   7.593   8.425
 8025WAT     H224318   6.117   7.512   8.301
 8026WAT      O24319   2.116   5.761   6.857
 8026WAT     H124320   2.038   5.820   6.879
 8026WAT     H224321   2.201   5.811   6.874
 8027WAT      O24322   6.359   0.083   9.184
 8027WAT     H124323   6.326   0.164   9.137
 8027WAT     H224324   6.404   0.022   9.119
 8028WAT      O24325   0.561   0.125   8.570
 8028WAT     H124326   0.616   0.043   8.586
 8028WAT     H224327   0.570   0.187   8.648
 8029WAT      O24328   0.187   8.738   7.434
 8029WAT     H124329   0.102   8.781   7.462
 8029WAT     H224330   0.168   8.645   7.402
 8030WAT      O24331   4.408   6.863   9.021
 8030WAT     H124332   4.392   6.867   8.922
 8030WAT     H224333   4.504   6.842   9.039
 8031WAT      O24334   8.889   4.331   6.814
 8031WAT     H124335   8.876   4.252   6.875
 8031WAT     H224336   8.971   4.380   6.841
 8032WAT      O24337   3.103   3.406   3.127
 8032WAT     H124338   3.032   3.421   3.196
 8032WAT     H224339   3.154   3.491   3.112
 8033WAT      O24340   3.850   9.609   2.819
 8033WAT     H124341   3.912   9.567   2.753
 8033WAT     H224342   3.763   9.631   2.774
 8034WAT      O24343   4.079   7.363   5.026
 8034WAT     H124344   4.160   7.403   5.069
 8034WAT     H224345   4.054   7.418   4.946
 8035WAT      O24346   1.110   8.248   4.395
 8035WAT     H124347   1.056   8.321   4.437
 8035WAT     H224348   1.203   8.281   4.378
 8036WAT      O24349   3.156   4.002   4.875
 8036WAT     H124350   3.172   4.013   4.973
 8036WAT     H224351   3.089   3.928   4.860
 8037WAT      O24352   1.956   3.833   8.869
 8037WAT     H124353   1.943   3.746   8.916
 8037WAT     H224354   1.877   3.851   8.810
 8038WAT      O24355   3.541   6.150   1.698
 8038WAT     H124356   3.589   6.179   1.780
 8038WAT     H224357   3.449   6.188   1.696
 8039WAT      O24358   6.919   0.446   9.568
 8039WAT     H124359   6.881   0.507   9.499
 8039WAT     H224360   6.848   0.422   9.634
 8040WAT      O24361   6.980   1.713   6.245
 8040WAT     H124362   6.892   1.682   6.208
 8040WAT     H224363   7.038   1.744   6.170
 8041WAT      O24364   3.872   6.520   4.836
 8041WAT     H124365   3.786   6.525   4.887
 8041WAT     H224366   3.863   6.572   4.751
 8042WAT      O24367   7.547   3.284   8.164
 8042WAT     H124368   7.630   3.229   8.178
 8042WAT     H224369   7.538   3.305   8.066
 8043WAT      O24370   5.210   5.673   9.525
 8043WAT     H124371   5.281   5.634   9.467
 8043WAT     H224372   5.165   5.599   9.575
 8044WAT      O24373   6.125   3.831   1.213
 8044WAT     H124374   6.069   3.748   1.213
 8044WAT     H224375   6.111   3.880   1.127
 8045WAT      O24376   1.712   8.951   3.202
 8045WAT     H124377   1.768   8.971   3.283
 8045WAT     H224378   1.685   8.855   3.203
 8046WAT      O24379   2.971   9.466   2.124
 8046WAT     H124380   3.061   9.482   2.085
 8046WAT     H224381   2.919   9.404   2.065
 8047WAT      O24382   6.029   9.268   9.543
 8047WAT     H124383   6.052   9.172   9.562
 8047WAT     H224384   6.062   9.292   9.452
 8048WAT      O24385   0.440   3.948   6.454
 8048WAT     H124386   0.395   3.930   6.541
 8048WAT     H224387   0.539   3.946   6.467
 8049WAT      O24388   6.467   5.975   8.220
 8049WAT     H124389   6.438   6.038   8.292
 8049WAT     H224390   6.424   5.886   8.235
 8050WAT      O24391   0.760   3.006   6.847
 8050WAT     H124392   0.737   2.913   6.874
 8050WAT     H224393   0.719   3.027   6.758
 8051WAT      O24394   2.968   4.592   5.759
 8051WAT     H124395   3.021   4.611   5.842
 8051WAT     H224396   2.941   4.496   5.758
 8052WAT      O24397   4.201   6.979   0.210
 8052WAT     H124398   4.275   6.957   0.147
 8052WAT     H224399   4.125   6.916   0.195
 8053WAT      O24400   1.455   0.930   3.187
 8053WAT     H124401   1.419   0.966   3.101
 8053WAT     H224402   1.555   0.923   3.181
 8054WAT      O24403   1.214   7.392   6.700
 8054WAT     H124404   1.298   7.394   6.646
 8054WAT     H224405   1.153   7.465   6.668
 8055WAT      O24406   1.736   0.406   5.030
 8055WAT     H124407   1.824   0.435   4.993
 8055WAT     H224408   1.745   0.386   5.127
 8056WAT      O24409   0.030   6.732   8.147
 8056WAT     H124410   0.001   6.645   8.185
 8056WAT     H224411   0.126   6.726   8.119
 8057WAT      O24412   3.317   0.099   6.073
 8057WAT     H124413   3.333   0.038   5.996
 8057WAT     H224414   3.219   0.103   6.092
 8058WAT      O24415   6.876   6.230   3.779
 8058WAT     H124416   6.905   6.314   3.824
 8058WAT     H224417   6.796   6.249   3.722
 8059WAT      O24418   0.474   3.427   7.246
 8059WAT     H124419   0.478   3.523   7.273
 8059WAT     H224420   0.485   3.420   7.146
 8060WAT      O24421   4.206   9.021   2.306
 8060WAT     H124422   4.289   8.970   2.331
 8060WAT     H224423   4.127   8.961   2.314
 8061WAT      O24424   0.401   7.376   7.134
 8061WAT     H124425   0.366   7.468   7.150
 8061WAT     H224426   0.422   7.333   7.221
 8062WAT      O24427   0.959   8.110   1.888
 8062WAT     H124428   0.909   8.154   1.813
 8062WAT     H224429   1.045   8.160   1.905
 8063WAT      O24430   6.703   0.334   6.432
 8063WAT     H124431   6.783   0.287   6.394
 8063WAT     H224432   6.730   0.424   6.466
 8064WAT      O24433   1.826   8.262   6.435
 8064WAT     H124434   1.865   8.215   6.356
 8064WAT     H224435   1.727   8.246   6.438
 8065WAT      O24436   4.986   0.532   2.091
 8065WAT     H124437   5.037   0.613   2.062
 8065WAT     H224438   4.943   0.550   2.180
 8066WAT      O24439   1.764   5.618   1.929
 8066WAT     H124440   1.699   5.670   1.984
 8066WAT     H224441   1.764   5.522   1.960
 8067WAT      O24442   5.180   0.251   2.345
 8067WAT     H124443   5.138   0.310   2.415
 8067WAT     H224444   5.216   0.308   2.271
 8068WAT      O24445   2.018   0.460   1.461
 8068WAT     H124446   2.117   0.470   1.456
 8068WAT     H224447   1.975   0.513   1.388
 8069WAT      O24448   4.331   3.894   6.380
 8069WAT     H124449   4.293   3.939   6.461
 8069WAT     H224450   4.287   3.805   6.367
 8070WAT      O24451   0.626   6.790   6.451
 8070WAT     H124452   0.577   6.783   6.538
 8070WAT     H224453   0.617   6.704   6.401
 8071WAT      O24454   2.266   2.998   2.812
 8071WAT     H124455   2.358   2.970   2.838
 8071WAT     H224456   2.271   3.075   2.748
 8072WAT      O24457   1.812   8.697   1.437
 8072WAT     H124458   1.837   8.706   1.533
 8072WAT     H224459   1.714   8.713   1.426
 8073WAT      O24460   6.830   3.037   8.889
 8073WAT     H124461   6.744   3.002   8.852
 8073WAT     H224462   6.895   3.052   8.814
 8074WAT      O24463   0.731   7.098   3.081
 8074WAT     H124464   0.813   7.150   3.056
 8074WAT     H224465   0.666   7.158   3.128
 8075WAT      O24466   5.312   5.152   0.328
 8075WAT     H124467   5.311   5.123   0.232
 8075WAT     H224468   5.302   5.251   0.333
 8076WAT      O24469   7.770   4.302   8.799
 8076WAT     H124470   7.675   4.322   8.774
 8076WAT     H224471   7.827   4.383   8.785
 8077WAT      O24472   9.761   2.812   0.466
 8077WAT     H124473   9.664   2.821   0.445
 8077WAT     H224474   9.775   2.737   0.530
 8078WAT      O24475   2.401   8.508   1.165
 8078WAT     H124476   2.310   8.543   1.142
 8078WAT     H224477   2.428   8.440   1.097
 8079WAT      O24478   4.162   1.862   1.061
 8079WAT     H124479   4.233   1.912   1.111
 8079WAT     H224480   4.073   1.901   1.081
 8080WAT      O24481   2.606   9.170   4.687
 8080WAT     H124482   2.606   9.192   4.784
 8080WAT     H224483   2.519   9.127   4.663
 8081WAT      O24484   7.156   0.827   2.691
 8081WAT     H124485   7.187   0.828   2.595
 8081WAT     H224486   7.120   0.917   2.715
 8082WAT      O24487   3.453   0.255   7.201
 8082WAT     H124488   3.383   0.223   7.136
 8082WAT     H224489   3.424   0.341   7.242
 8083WAT      O24490   0.733   7.764   0.979
 8083WAT     H124491   0.825   7.729   0.961
 8083WAT     H224492   0.673   7.688   1.007
 8084WAT      O24493   2.944   4.463   6.634
 8084WAT     H124494   3.008   4.536   6.657
 8084WAT     H224495   2.855   4.483   6.675
 8085WAT      O24496   2.792   9.581   6.074
 8085WAT     H124497   2.809   9.572   6.172
 8085WAT     H224498   2.878   9.573   6.024
 8086WAT      O24499   7.390   2.300   6.533
 8086WAT     H124500   7.338   2.265   6.611
 8086WAT     H224501   7.474   2.343   6.566
 8087WAT      O24502   0.366   9.456   4.751
 8087WAT     H124503   0.323   9.465   4.841
 8087WAT     H224504   0.317   9.386   4.699
 8088WAT      O24505   5.137   9.134   7.623
 8088WAT     H124506   5.180   9.047   7.601
 8088WAT     H224507   5.116   9.184   7.539
 8089WAT      O24508   2.934   9.567   5.660
 8089WAT     H124509   2.911   9.658   5.696
 8089WAT     H224510   2.917   9.566   5.561
 8090WAT      O24511   8.502   7.624   3.624
 8090WAT     H124512   8.530   7.658   3.714
 8090WAT     H224513   8.404   7.608   3.624
 8091WAT      O24514   3.841   1.591   0.182
 8091WAT     H124515   3.895   1.587   0.098
 8091WAT     H224516   3.882   1.656   0.246
 8092WAT      O24517   5.829   8.352   1.347
 8092WAT     H124518   5.860   8.433   1.298
 8092WAT     H224519   5.822   8.373   1.445
 8093WAT      O24520   8.824   3.461   1.946
 8093WAT     H124521   8.752   3.445   2.014
 8093WAT     H224522   8.789   3.523   1.875
 8094WAT      O24523   9.864   2.161   4.087
 8094WAT     H124524   9.851   2.129   4.181
 8094WAT     H224525   9.775   2.168   4.043
 8095WAT      O24526   6.198   2.192   5.259
 8095WAT     H124527   6.102   2.198   5.231
 8095WAT     H224528   6.203   2.159   5.353
 8096WAT      O24529   1.148   6.190   6.666
 8096WAT     H124530   1.062   6.142   6.680
 8096WAT     H224531   1.138   6.256   6.591
 8097WAT      O24532   1.863   6.840   0.336
 8097WAT     H124533   1.889   6.919   0.282
 8097WAT     H224534   1.853   6.866   0.432
 8098WAT      O24535   8.237   7.601   3.620
 8098WAT     H124536   8.206   7.681   3.567
 8098WAT     H224537   8.189   7.600   3.708
 8099WAT      O24538   0.933   8.502   4.974
 8099WAT     H124539   0.924   8.418   5.028
 8099WAT     H224540   0.978   8.481   4.887
 8100WAT      O24541   7.297   3.519   9.465
 8100WAT     H124542   7.333   3.600   9.510
 8100WAT     H224543   7.349   3.501   9.381
 8101WAT      O24544   2.351   5.527   7.429
 8101WAT     H124545   2.255   5.511   7.452
 8101WAT     H224546   2.366   5.503   7.333
 8102WAT      O24547   5.986   7.712   0.725
 8102WAT     H124548   6.017   7.669   0.640
 8102WAT     H224549   5.939   7.798   0.703
 8103WAT      O24550   7.262   1.495   1.273
 8103WAT     H124551   7.341   1.454   1.227
 8103WAT     H224552   7.202   1.536   1.204
 8104WAT      O24553   2.276   0.680   0.294
 8104WAT     H124554   2.280   0.621   0.213
 8104WAT     H224555   2.295   0.627   0.376
 8105WAT      O24556   5.268   2.161   3.425
 8105WAT     H124557   5.250   2.259   3.430
 8105WAT     H224558   5.349   2.145   3.370
 8106WAT      O24559   3.303   2.458   0.831
 8106WAT     H124560   3.396   2.465   0.794
 8106WAT     H224561   3.294   2.518   0.911
 8107WAT      O24562   8.884   7.480   2.245
 8107WAT     H124563   8.825   7.462   2.324
 8107WAT     H224564   8.970   7.521   2.275
 8108WAT      O24565   9.868   6.136   4.236
 8108WAT     H124566   9.908   6.227   4.221
 8108WAT     H224567   9.850   6.093   4.147
 8109WAT      O24568   7.337   2.409   8.313
 8109WAT     H124569   7.391   2.382   8.233
 8109WAT     H224570   7.355   2.506   8.333
 8110WAT      O24571   0.338   9.101   6.194
 8110WAT     H124572   0.427   9.145   6.184
 8110WAT     H224573   0.269   9.155   6.145
 8111WAT      O24574   4.286   4.027   0.748
 8111WAT     H124575   4.344   4.084   0.806
 8111WAT     H224576   4.216   3.982   0.804
 8112WAT      O24577   4.997   2.076   7.873
 8112WAT     H124578   5.018   2.020   7.953
 8112WAT     H224579   4.914   2.042   7.829
 8113WAT      O24580   4.574   0.037   1.932
 8113WAT     H124581   4.668   0.030   1.966
 8113WAT     H224582   4.548  -0.050   1.889
 8114WAT      O24583   2.419   1.631   3.787
 8114WAT     H124584   2.487   1.564   3.757
 8114WAT     H224585   2.400   1.618   3.885
 8115WAT      O24586   4.148   1.723   9.529
 8115WAT     H124587   4.078   1.653   9.541
 8115WAT     H224588   4.197   1.737   9.614
 8116WAT      O24589   0.212   0.958   4.481
 8116WAT     H124590   0.277   1.007   4.423
 8116WAT     H224591   0.133   0.929   4.427
 8117WAT      O24592   7.518   9.497   4.905
 8117WAT     H124593   7.528   9.564   4.832
 8117WAT     H224594   7.596   9.434   4.904
 8118WAT      O24595   4.535   3.325   5.311
 8118WAT     H124596   4.513   3.227   5.304
 8118WAT     H224597   4.509   3.370   5.226
 8119WAT      O24598   3.756   7.547   4.735
 8119WAT     H124599   3.842   7.547   4.786
 8119WAT     H224600   3.750   7.629   4.679
 8120WAT      O24601   1.780   3.128   4.824
 8120WAT     H124602   1.827   3.041   4.842
 8120WAT     H224603   1.691   3.127   4.871
 8121WAT      O24604   2.573   7.345   9.751
 8121WAT     H124605   2.538   7.252   9.740
 8121WAT     H224606   2.500   7.410   9.731
 8122WAT      O24607   9.727   9.787   5.370
 8122WAT     H124608   9.670   9.846   5.312
 8122WAT     H224609   9.669   9.721   5.419
 8123WAT      O24610   2.467   7.386   2.894
 8123WAT     H124611   2.549   7.344   2.933
 8123WAT     H224612   2.494   7.468   2.842
 8124WAT      O24613   6.318   1.296   4.382
 8124WAT     H124614   6.303   1.393   4.401
 8124WAT     H224615   6.325   1.282   4.284
 8125WAT      O24616   1.099   6.990   0.028
 8125WAT     H124617   1.174   6.927   0.048
 8125WAT     H224618   1.076   7.042   0.111
 8126WAT      O24619   4.698   9.640   1.608
 8126WAT     H124620   4.763   9.676   1.676
 8126WAT     H224621   4.624   9.593   1.655
 8127WAT      O24622   5.680   8.314   0.866
 8127WAT     H124623   5.764   8.268   0.895
 8127WAT     H224624   5.674   8.404   0.910
 8128WAT      O24625   2.606   0.870   5.025
 8128WAT     H124626   2.570   0.779   5.006
 8128WAT     H224627   2.658   0.867   5.111
 8129WAT      O24628   1.684   0.881   2.650
 8129WAT     H124629   1.611   0.947   2.636
 8129WAT     H224630   1.657   0.814   2.719
 8130WAT      O24631   2.407   9.625   6.432
 8130WAT     H124632   2.473   9.685   6.478
 8130WAT     H224633   2.319   9.629   6.480
 8131WAT      O24634   7.805   7.182   1.294
 8131WAT     H124635   7.773   7.273   1.324
 8131WAT     H224636   7.841   7.132   1.373
 8132WAT      O24637   0.348   1.623   8.788
 8132WAT     H124638   0.310   1.716   8.778
 8132WAT     H224639   0.371   1.587   8.698
 8133WAT      O24640   6.053   6.261   9.039
 8133WAT     H124641   6.153   6.268   9.040
 8133WAT     H224642   6.020   6.265   8.945
 8134WAT      O24643   2.210   2.257   6.809
 8134WAT     H124644   2.286   2.222   6.753
 8134WAT     H224645   2.136   2.190   6.810
 8135WAT      O24646   7.672   9.341   0.566
 8135WAT     H124647   7.752   9.401   0.572
 8135WAT     H224648   7.695   9.251   0.603
 8136WAT      O24649   2.720   6.912   1.693
 8136WAT     H124650   2.625   6.883   1.701
 8136WAT     H224651   2.729   7.007   1.721
 8137WAT      O24652   5.881   3.917   4.613
 8137WAT     H124653   5.801   3.892   4.558
 8137WAT     H224654   5.947   3.841   4.613
 8138WAT      O24655   0.049   7.476   7.640
 8138WAT     H124656   0.078   7.381   7.642
 8138WAT     H224657  -0.017   7.492   7.714
 8139WAT      O24658   3.570   1.334   1.177
 8139WAT     H124659   3.623   1.249   1.177
 8139WAT     H224660   3.632   1.412   1.185
 8140WAT      O24661   5.913   2.714   7.890
 8140WAT     H124662   5.985   2.652   7.922
 8140WAT     H224663   5.910   2.795   7.948
 8141WAT      O24664   7.294   8.578   4.777
 8141WAT     H124665   7.345   8.495   4.754
 8141WAT     H224666   7.332   8.656   4.727
 8142WAT      O24667   9.812   8.286   9.886
 8142WAT     H124668   9.862   8.245   9.809
 8142WAT     H224669   9.737   8.226   9.913
 8143WAT      O24670   3.696   2.793   2.263
 8143WAT     H124671   3.793   2.787   2.285
 8143WAT     H224672   3.679   2.743   2.178
 8144WAT      O24673   0.701   3.456   2.997
 8144WAT     H124674   0.705   3.385   2.926
 8144WAT     H224675   0.624   3.517   2.979
 8145WAT      O24676   7.808   3.621   5.199
 8145WAT     H124677   7.797   3.542   5.139
 8145WAT     H224678   7.841   3.699   5.145
 8146WAT      O24679   8.669   3.955   6.778
 8146WAT     H124680   8.589   4.004   6.741
 8146WAT     H224681   8.639   3.867   6.815
 8147WAT      O24682   3.392   0.992   5.827
 8147WAT     H124683   3.490   0.982   5.843
 8147WAT     H224684   3.372   1.084   5.794
 8148WAT      O24685   8.684   9.725   2.085
 8148WAT     H124686   8.624   9.659   2.039
 8148WAT     H224687   8.717   9.791   2.017
 8149WAT      O24688   1.838   4.231   2.117
 8149WAT     H124689   1.795   4.286   2.046
 8149WAT     H224690   1.918   4.280   2.153
 8150WAT      O24691   1.787   5.683   8.259
 8150WAT     H124692   1.805   5.758   8.323
 8150WAT     H224693   1.758   5.602   8.310
 8151WAT      O24694   5.056   9.133   2.990
 8151WAT     H124695   5.106   9.171   3.068
 8151WAT     H224696   4.972   9.185   2.976
 8152WAT      O24697   7.654   3.051   9.233
 8152WAT     H124698   7.637   2.982   9.161
 8152WAT     H224699   7.566   3.089   9.263
 8153WAT      O24700   4.860   6.989   2.131
 8153WAT     H124701   4.776   7.043   2.124
 8153WAT     H224702   4.889   6.961   2.040
 8154WAT      O24703   2.261   6.727   0.054
 8154WAT     H124704   2.291   6.632   0.046
 8154WAT     H224705   2.222   6.742   0.145
 8155WAT      O24706   6.102   1.058   5.387
 8155WAT     H124707   6.034   0.991   5.358
 8155WAT     H224708   6.056   1.142   5.417
 8156WAT      O24709   2.169   1.259   7.327
 8156WAT     H124710   2.086   1.314   7.320
 8156WAT     H224711   2.229   1.298   7.398
 8157WAT      O24712   9.129   5.971   7.808
 8157WAT     H124713   9.069   5.998   7.732
 8157WAT     H224714   9.140   6.047   7.871
 8158WAT      O24715   4.522   3.213   8.643
 8158WAT     H124716   4.448   3.151   8.619
 8158WAT     H224717   4.609   3.164   8.642
 8159WAT      O24718   8.682   3.234   8.155
 8159WAT     H124719   8.710   3.330   8.146
 8159WAT     H224720   8.589   3.230   8.192
 8160WAT      O24721   0.570   3.343   0.641
 8160WAT     H124722   0.537   3.422   0.588
 8160WAT     H224723   0.511   3.264   0.623
 8161WAT      O24724   9.057   3.565   7.461
 8161WAT     H124725   8.984   3.596   7.522
 8161WAT     H224726   9.145   3.571   7.510
 8162WAT      O24727   6.358   4.473   8.505
 8162WAT     H124728   6.396   4.450   8.595
 8162WAT     H224729   6.280   4.413   8.486
 8163WAT      O24730   6.043   6.001   3.097
 8163WAT     H124731   5.945   6.018   3.092
 8163WAT     H224732   6.075   6.018   3.191
 8164WAT      O24733   8.574   7.952   2.019
 8164WAT     H124734   8.619   8.036   2.051
 8164WAT     H224735   8.627   7.872   2.049
 8165WAT      O24736   8.846   6.824   5.529
 8165WAT     H124737   8.848   6.743   5.588
 8165WAT     H224738   8.772   6.884   5.558
 8166WAT      O24739   9.155   2.773   8.082
 8166WAT     H124740   9.218   2.821   8.143
 8166WAT     H224741   9.208   2.721   8.015
 8167WAT      O24742   4.908   7.192   3.272
 8167WAT     H124743   4.915   7.093   3.276
 8167WAT     H224744   4.969   7.232   3.340
 8168WAT      O24745   6.205   9.643   8.112
 8168WAT     H124746   6.259   9.586   8.175
 8168WAT     H224747   6.256   9.656   8.027
 8169WAT      O24748   6.403   1.924   2.581
 8169WAT     H124749   6.366   1.994   2.519
 8169WAT     H224750   6.332   1.857   2.601
 8170WAT      O24751   4.644   7.233   0.021
 8170WAT     H124752   4.594   7.312   0.056
 8170WAT     H224753   4.721   7.213   0.080
 8171WAT      O24754   3.578   0.749   6.452
 8171WAT     H124755   3.497   0.721   6.400
 8171WAT     H224756   3.638   0.670   6.464
 8172WAT      O24757   3.623   1.540   1.619
 8172WAT     H124758   3.541   1.577   1.663
 8172WAT     H224759   3.653   1.603   1.547
 8173WAT      O24760   6.146   1.902   3.414
 8173WAT     H124761   6.113   1.845   3.339
 8173WAT     H224762   6.242   1.880   3.433
 8174WAT      O24763   6.202   0.280   1.199
 8174WAT     H124764   6.291   0.245   1.169
 8174WAT     H224765   6.181   0.365   1.150
 8175WAT      O24766   8.205   2.460   9.065
 8175WAT     H124767   8.200   2.477   8.966
 8175WAT     H224768   8.300   2.458   9.093
 8176WAT      O24769   1.056   6.329   0.792
 8176WAT     H124770   1.104   6.246   0.763
 8176WAT     H224771   0.974   6.342   0.735
 8177WAT      O24772   9.023   4.294   8.915
 8177WAT     H124773   8.949   4.229   8.902
 8177WAT     H224774   9.104   4.264   8.865
 8178WAT      O24775   9.454   8.904   6.314
 8178WAT     H124776   9.470   8.809   6.342
 8178WAT     H224777   9.386   8.906   6.242
 8179WAT      O24778   0.595   8.611   4.655
 8179WAT     H124779   0.643   8.525   4.634
 8179WAT     H224780   0.510   8.615   4.603
 8180WAT      O24781   4.967   7.232   7.010
 8180WAT     H124782   5.002   7.154   7.061
 8180WAT     H224783   5.027   7.311   7.022
 8181WAT      O24784   6.575   8.995   3.615
 8181WAT     H124785   6.479   8.969   3.606
 8181WAT     H224786   6.620   8.985   3.526
 8182WAT      O24787   8.754   1.538   5.086
 8182WAT     H124788   8.707   1.623   5.065
 8182WAT     H224789   8.781   1.493   5.001
 8183WAT      O24790   3.554   3.499   4.093
 8183WAT     H124791   3.603   3.559   4.031
 8183WAT     H224792   3.457   3.494   4.065
 8184WAT      O24793   8.260   5.753   5.370
 8184WAT     H124794   8.225   5.673   5.419
 8184WAT     H224795   8.330   5.798   5.425
 8185WAT      O24796   4.850   1.685   3.078
 8185WAT     H124797   4.774   1.689   3.143
 8185WAT     H224798   4.918   1.754   3.102
 8186WAT      O24799   8.316   5.044   5.006
 8186WAT     H124800   8.360   5.016   4.920
 8186WAT     H224801   8.304   5.143   5.007
 8187WAT      O24802   9.050   9.538   6.438
 8187WAT     H124803   9.046   9.598   6.358
 8187WAT     H224804   8.956   9.514   6.465
 8188WAT      O24805   0.949   1.228   9.397
 8188WAT     H124806   0.970   1.155   9.331
 8188WAT     H224807   1.034   1.265   9.433
 8189WAT      O24808   9.747   5.120   4.962
 8189WAT     H124809   9.754   5.206   4.913
 8189WAT     H224810   9.661   5.075   4.939
 8190WAT      O24811   2.498   4.857   5.253
 8190WAT     H124812   2.464   4.769   5.286
 8190WAT     H224813   2.538   4.846   5.161
 8191WAT      O24814   3.701   2.222   0.647
 8191WAT     H124815   3.773   2.199   0.582
 8191WAT     H224816   3.626   2.268   0.599
 8192WAT      O24817   8.761   1.425   6.286
 8192WAT     H124818   8.834   1.379   6.338
 8192WAT     H224819   8.741   1.513   6.328
 8193WAT      O24820   4.971   9.427   6.799
 8193WAT     H124821   4.952   9.525   6.789
 8193WAT     H224822   4.887   9.375   6.789
 8194WAT      O24823   1.244   5.371   9.044
 8194WAT     H124824   1.297   5.331   8.970
 8194WAT     H224825   1.226   5.468   9.025
 8195WAT      O24826   4.603   7.300   6.917
 8195WAT     H124827   4.639   7.292   7.010
 8195WAT     H224828   4.617   7.214   6.868
 8196WAT      O24829   6.794   4.361   6.126
 8196WAT     H124830   6.894   4.368   6.124
 8196WAT     H224831   6.760   4.395   6.213
 8197WAT      O24832   4.984   9.766   9.525
 8197WAT     H124833   4.957   9.778   9.621
 8197WAT     H224834   4.950   9.678   9.491
 8198WAT      O24835   7.476   6.932   2.670
 8198WAT     H124836   7.390   6.981   2.677
 8198WAT     H224837   7.469   6.844   2.717
 8199WAT      O24838   3.717   1.352   3.906
 8199WAT     H124839   3.630   1.346   3.857
 8199WAT     H224840   3.780   1.283   3.870
 8200WAT      O24841   5.033   6.758   6.306
 8200WAT     H124842   5.060   6.717   6.219
 8200WAT     H224843   4.959   6.704   6.347
 8201WAT      O24844   6.373   8.987   8.718
 8201WAT     H124845   6.377   9.033   8.807
 8201WAT     H224846   6.394   8.890   8.731
 8202WAT      O24847   1.962   9.412   3.512
 8202WAT     H124848   1.981   9.462   3.597
 8202WAT     H224849   2.019   9.449   3.438
 8203WAT      O24850   4.462   9.137   1.419
 8203WAT     H124851   4.433   9.232   1.406
 8203WAT     H224852   4.476   9.094   1.330
 8204WAT      O24853   1.682   1.600   0.997
 8204WAT     H124854   1.706   1.527   1.061
 8204WAT     H224855   1.669   1.563   0.906
 8205WAT      O24856   2.192   1.415   0.002
 8205WAT     H124857   2.224   1.499  -0.042
 8205WAT     H224858   2.094   1.423   0.023
 8206WAT      O24859   3.084   5.838   9.063
 8206WAT     H124860   3.084   5.776   9.141
 8206WAT     H224861   3.047   5.927   9.090
 8207WAT      O24862   6.186   7.550   1.602
 8207WAT     H124863   6.176   7.649   1.607
 8207WAT     H224864   6.279   7.526   1.576
 8208WAT      O24865   8.587   3.883   2.789
 8208WAT     H124866   8.630   3.884   2.879
 8208WAT     H224867   8.653   3.913   2.720
 8209WAT      O24868   5.614   8.425   8.543
 8209WAT     H124869   5.669   8.410   8.461
 8209WAT     H224870   5.522   8.389   8.528
 8210WAT      O24871   3.525   3.397   5.754
 8210WAT     H124872   3.578   3.435   5.677
 8210WAT     H224873   3.515   3.299   5.742
 8211WAT      O24874   7.940   2.844   8.329
 8211WAT     H124875   8.007   2.798   8.386
 8211WAT     H224876   7.950   2.814   8.234
 8212WAT      O24877   8.777   2.413   1.260
 8212WAT     H124878   8.742   2.498   1.300
 8212WAT     H224879   8.703   2.367   1.211
 8213WAT      O24880   1.626   3.558   4.787
 8213WAT     H124881   1.557   3.615   4.744
 8213WAT     H224882   1.706   3.614   4.810
 8214WAT      O24883   1.750   4.939   0.669
 8214WAT     H124884   1.802   4.859   0.640
 8214WAT     H224885   1.697   4.973   0.591
 8215WAT      O24886   7.861   1.318   6.937
 8215WAT     H124887   7.937   1.359   6.885
 8215WAT     H224888   7.851   1.222   6.910
 8216WAT      O24889   3.163   8.617   9.513
 8216WAT     H124890   3.220   8.630   9.594
 8216WAT     H224891   3.220   8.624   9.431
 8217WAT      O24892   8.432   0.152   2.139
 8217WAT     H124893   8.496   0.166   2.062
 8217WAT     H224894   8.482   0.163   2.225
 8218WAT      O24895   5.632   3.237   7.620
 8218WAT     H124896   5.718   3.284   7.602
 8218WAT     H224897   5.638   3.143   7.585
 8219WAT      O24898   8.680   4.405   4.043
 8219WAT     H124899   8.669   4.310   4.074
 8219WAT     H224900   8.602   4.459   4.074
 8220WAT      O24901   6.743   7.047   5.365
 8220WAT     H124902   6.735   7.126   5.305
 8220WAT     H224903   6.652   7.024   5.401
 8221WAT      O24904   0.396   0.008   5.703
 8221WAT     H124905   0.462   0.008   5.627
 8221WAT     H224906   0.443  -0.015   5.788
 8222WAT      O24907   0.235   1.427   7.053
 8222WAT     H124908   0.223   1.481   7.136
 8222WAT     H224909   0.167   1.354   7.051
 8223WAT      O24910   1.196   1.118   9.544
 8223WAT     H124911   1.286   1.075   9.540
 8223WAT     H224912   1.125   1.047   9.545
 8224WAT      O24913   8.687   5.983   6.183
 8224WAT     H124914   8.723   6.072   6.157
 8224WAT     H224915   8.757   5.931   6.232
 8225WAT      O24916   9.174   8.349   2.135
 8225WAT     H124917   9.199   8.323   2.041
 8225WAT     H224918   9.148   8.268   2.187
 8226WAT      O24919   5.958   0.291   3.356
 8226WAT     H124920   6.033   0.348   3.322
 8226WAT     H224921   5.995   0.207   3.394
 8227WAT      O24922   3.002   4.072   3.941
 8227WAT     H124923   2.938   4.148   3.956
 8227WAT     H224924   3.009   4.017   4.025
 8228WAT      O24925   0.852   6.366   8.046
 8228WAT     H124926   0.858   6.373   8.146
 8228WAT     H224927   0.757   6.351   8.019
 8229WAT      O24928   2.856   4.554   6.977
 8229WAT     H124929   2.862   4.458   7.004
 8229WAT     H224930   2.802   4.562   6.893
 8230WAT      O24931   6.782   7.526   6.960
 8230WAT     H124932   6.719   7.603   6.973
 8230WAT     H224933   6.808   7.519   6.864
 8231WAT      O24934   7.832   4.815   9.730
 8231WAT     H124935   7.872   4.746   9.669
 8231WAT     H224936   7.889   4.898   9.727
 8232WAT      O24937   4.810   7.269   5.243
 8232WAT     H124938   4.878   7.203   5.273
 8232WAT     H224939   4.855   7.341   5.189
 8233WAT      O24940   4.130   3.323   9.516
 8233WAT     H124941   4.122   3.317   9.615
 8233WAT     H224942   4.166   3.413   9.491
 8234WAT      O24943   0.869   5.656   8.010
 8234WAT     H124944   0.893   5.753   8.000
 8234WAT     H224945   0.921   5.602   7.944
 8235WAT      O24946   3.672   8.510   8.197
 8235WAT     H124947   3.726   8.536   8.117
 8235WAT     H224948   3.591   8.458   8.167
 8236WAT      O24949   3.988   1.655   9.183
 8236WAT     H124950   3.908   1.680   9.129
 8236WAT     H224951   4.009   1.558   9.169
 8237WAT      O24952   2.145   3.563   3.867
 8237WAT     H124953   2.079   3.496   3.899
 8237WAT     H224954   2.157   3.553   3.768
 8238WAT      O24955   6.089   3.891   9.381
 8238WAT     H124956   6.059   3.871   9.474
 8238WAT     H224957   6.115   3.805   9.336
 8239WAT      O24958   1.325   3.075   5.465
 8239WAT     H124959   1.419   3.042   5.457
 8239WAT     H224960   1.262   3.005   5.432
 8240WAT      O24961   9.675   6.246   7.447
 8240WAT     H124962   9.659   6.330   7.395
 8240WAT     H224963   9.736   6.267   7.524
 8241WAT      O24964   2.247   5.628   7.776
 8241WAT     H124965   2.152   5.643   7.747
 8241WAT     H224966   2.297   5.714   7.772
 8242WAT      O24967   3.854   3.421   6.541
 8242WAT     H124968   3.798   3.491   6.497
 8242WAT     H224969   3.929   3.465   6.592
 8243WAT      O24970   9.789   7.181   1.375
 8243WAT     H124971   9.847   7.146   1.449
 8243WAT     H224972   9.701   7.134   1.376
 8244WAT      O24973   0.062   3.180   6.389
 8244WAT     H124974   0.147   3.210   6.432
 8244WAT     H224975   0.043   3.085   6.416
 8245WAT      O24976   2.189   8.846   6.591
 8245WAT     H124977   2.265   8.818   6.533
 8245WAT     H224978   2.209   8.936   6.631
 8246WAT      O24979   2.558   9.731   9.412
 8246WAT     H124980   2.636   9.724   9.474
 8246WAT     H224981   2.554   9.649   9.355
 8247WAT      O24982   2.237   2.848   5.556
 8247WAT     H124983   2.258   2.890   5.468
 8247WAT     H224984   2.256   2.750   5.552
 8248WAT      O24985   6.593   6.028   2.267
 8248WAT     H124986   6.494   6.041   2.262
 8248WAT     H224987   6.621   5.958   2.201
 8249WAT      O24988   7.053   2.248   3.241
 8249WAT     H124989   7.153   2.236   3.238
 8249WAT     H224990   7.015   2.236   3.149
 8250WAT      O24991   8.350   7.306   2.777
 8250WAT     H124992   8.414   7.369   2.733
 8250WAT     H224993   8.269   7.295   2.720
 8251WAT      O24994   5.577   3.008   0.860
 8251WAT     H124995   5.607   2.938   0.796
 8251WAT     H224996   5.657   3.059   0.893
 8252WAT      O24997   6.755   1.595   1.807
 8252WAT     H124998   6.794   1.517   1.758
 8252WAT     H224999   6.728   1.666   1.741
 8253WAT      O25000   3.014   6.886   2.067
 8253WAT     H125001   2.994   6.950   2.141
 8253WAT     H225002   2.946   6.812   2.067
 8254WAT      O25003   6.171   1.184   5.147
 8254WAT     H125004   6.186   1.283   5.145
 8254WAT     H225005   6.142   1.157   5.239
 8255WAT      O25006   1.146   9.553   0.774
 8255WAT     H125007   1.141   9.457   0.804
 8255WAT     H225008   1.236   9.589   0.796
 8256WAT      O25009   7.830   2.425   8.979
 8256WAT     H125010   7.837   2.464   9.071
 8256WAT     H225011   7.911   2.370   8.959
 8257WAT      O25012   3.373   0.482   4.352
 8257WAT     H125013   3.391   0.400   4.297
 8257WAT     H225014   3.285   0.521   4.324
 8258WAT      O25015   2.188   5.596   1.090
 8258WAT     H125016   2.145   5.602   1.180
 8258WAT     H225017   2.128   5.545   1.028
 8259WAT      O25018   1.062   3.971   2.690
 8259WAT     H125019   0.995   3.937   2.756
 8259WAT     H225020   1.149   3.924   2.705
 8260WAT      O25021   5.645   8.068   6.446
 8260WAT     H125022   5.643   8.161   6.482
 8260WAT     H225023   5.720   8.059   6.380
 8261WAT      O25024   5.643   6.366   3.548
 8261WAT     H125025   5.687   6.328   3.629
 8261WAT     H225026   5.706   6.360   3.470
 8262WAT      O25027   4.853   4.984   6.392
 8262WAT     H125028   4.862   4.912   6.324
 8262WAT     H225029   4.836   5.072   6.346
 8263WAT      O25030   5.636   7.226   1.479
 8263WAT     H125031   5.614   7.257   1.571
 8263WAT     H225032   5.626   7.303   1.415
 8264WAT      O25033   5.584   0.677   2.372
 8264WAT     H125034   5.550   0.590   2.408
 8264WAT     H225035   5.677   0.694   2.405
 8265WAT      O25036   8.922   2.878   7.346
 8265WAT     H125037   8.954   2.973   7.349
 8265WAT     H225038   8.984   2.821   7.399
 8266WAT      O25039   2.357   0.910   3.239
 8266WAT     H125040   2.382   1.006   3.255
 8266WAT     H225041   2.321   0.900   3.147
 8267WAT      O25042   3.591   5.388   4.011
 8267WAT     H125043   3.642   5.446   4.075
 8267WAT     H225044   3.534   5.324   4.063
 8268WAT      O25045   4.638   5.288   9.682
 8268WAT     H125046   4.578   5.221   9.726
 8268WAT     H225047   4.604   5.308   9.591
 8269WAT      O25048   9.629   0.250   3.715
 8269WAT     H125049   9.606   0.157   3.688
 8269WAT     H225050   9.653   0.304   3.634
 8270WAT      O25051   7.527   4.417   2.763
 8270WAT     H125052   7.467   4.489   2.797
 8270WAT     H225053   7.618   4.427   2.803
 8271WAT      O25054   2.297   6.002   9.610
 8271WAT     H125055   2.385   6.006   9.659
 8271WAT     H225056   2.227   6.049   9.664
 8272WAT      O25057   4.776   8.421   9.166
 8272WAT     H125058   4.849   8.394   9.229
 8272WAT     H225059   4.807   8.498   9.110
 8273WAT      O25060   3.352   9.104   1.550
 8273WAT     H125061   3.259   9.068   1.558
 8273WAT     H225062   3.414   9.030   1.525
 8274WAT      O25063   3.393   1.679   3.223
 8274WAT     H125064   3.482   1.674   3.267
 8274WAT     H225065   3.394   1.623   3.139
 8275WAT      O25066   6.823   5.405   9.138
 8275WAT     H125067   6.780   5.336   9.196
 8275WAT     H225068   6.871   5.362   9.062
 8276WAT      O25069   3.631   1.678   8.163
 8276WAT     H125070   3.546   1.639   8.195
 8276WAT     H225071   3.617   1.720   8.073
 8277WAT      O25072   8.419   2.843   9.562
 8277WAT     H125073   8.327   2.865   9.595
 8277WAT     H225074   8.470   2.796   9.634
 8278WAT      O25075   2.066   6.135   1.316
 8278WAT     H125076   2.015   6.208   1.361
 8278WAT     H225077   2.057   6.050   1.369
 8279WAT      O25078   4.825   0.233   7.416
 8279WAT     H125079   4.804   0.158   7.353
 8279WAT     H225080   4.924   0.247   7.419
 8280WAT      O25081   4.793   6.229   4.802
 8280WAT     H125082   4.875   6.263   4.848
 8280WAT     H225083   4.747   6.162   4.860
 8281WAT      O25084   1.109   8.878   5.328
 8281WAT     H125085   1.070   8.790   5.300
 8281WAT     H225086   1.197   8.891   5.284
 8282WAT      O25087   1.111   9.274   7.431
 8282WAT     H125088   1.120   9.340   7.506
 8282WAT     H225089   1.092   9.323   7.346
 8283WAT      O25090   4.868   8.176   9.690
 8283WAT     H125091   4.775   8.184   9.725
 8283WAT     H225092   4.872   8.103   9.621
 8284WAT      O25093   6.614   3.584   4.194
 8284WAT     H125094   6.654   3.493   4.203
 8284WAT     H225095   6.598   3.603   4.097
 8285WAT      O25096   0.712   4.686   0.070
 8285WAT     H125097   0.620   4.696   0.108
 8285WAT     H225098   0.764   4.770   0.084
 8286WAT      O25099   9.267   8.960   3.015
 8286WAT     H125100   9.212   8.939   3.096
 8286WAT     H225101   9.305   9.052   3.024
 8287WAT      O25102   1.247   7.429   0.317
 8287WAT     H125103   1.281   7.522   0.305
 8287WAT     H225104   1.163   7.418   0.263
 8288WAT      O25105   3.927   7.578   7.730
 8288WAT     H125106   3.990   7.645   7.771
 8288WAT     H225107   3.840   7.623   7.710
 8289WAT      O25108   3.755   4.780   2.403
 8289WAT     H125109   3.765   4.876   2.430
 8289WAT     H225110   3.785   4.722   2.479
 8290WAT      O25111   9.333   8.774   9.170
 8290WAT     H125112   9.263   8.845   9.163
 8290WAT     H225113   9.372   8.775   9.263
 8291WAT      O25114   0.942   8.464   1.408
 8291WAT     H125115   1.031   8.456   1.364
 8291WAT     H225116   0.955   8.487   1.505
 8292WAT      O25117   7.596   2.015   2.786
 8292WAT     H125118   7.654   1.938   2.758
 8292WAT     H225119   7.539   2.042   2.709
 8293WAT      O25120   1.292   3.794   6.363
 8293WAT     H125121   1.377   3.745   6.381
 8293WAT     H225122   1.308   3.866   6.295
 8294WAT      O25123   6.523   0.842   0.999
 8294WAT     H125124   6.588   0.773   0.969
 8294WAT     H225125   6.563   0.894   1.075
 8295WAT      O25126   2.668   9.335   8.714
 8295WAT     H125127   2.650   9.266   8.784
 8295WAT     H225128   2.697   9.291   8.629
 8296WAT      O25129   5.911   1.316   5.086
 8296WAT     H125130   5.961   1.378   5.147
 8296WAT     H225131   5.960   1.229   5.079
 8297WAT      O25132   0.318   3.377   8.287
 8297WAT     H125133   0.257   3.301   8.264
 8297WAT     H225134   0.309   3.449   8.217
 8298WAT      O25135   8.872   7.959   7.302
 8298WAT     H125136   8.964   7.987   7.330
 8298WAT     H225137   8.809   8.035   7.311
 8299WAT      O25138   7.951   0.413   3.659
 8299WAT     H125139   7.979   0.443   3.567
 8299WAT     H225140   8.012   0.453   3.727
 8300WAT      O25141   9.346   4.337   8.233
 8300WAT     H125142   9.398   4.380   8.159
 8300WAT     H225143   9.256   4.380   8.240
 8301WAT      O25144   2.133   5.025   2.340
 8301WAT     H125145   2.185   4.946   2.307
 8301WAT     H225146   2.196   5.093   2.378
 8302WAT      O25147   9.093   4.334   4.437
 8302WAT     H125148   9.190   4.332   4.411
 8302WAT     H225149   9.040   4.281   4.370
 8303WAT      O25150   4.427   8.227   8.989
 8303WAT     H125151   4.402   8.187   8.901
 8303WAT     H225152   4.525   8.216   9.005
 8304WAT      O25153   0.354   8.790   3.205
 8304WAT     H125154   0.447   8.804   3.239
 8304WAT     H225155   0.306   8.878   3.202
 8305WAT      O25156   5.921   2.430   1.489
 8305WAT     H125157   5.889   2.492   1.418
 8305WAT     H225158   5.875   2.341   1.480
 8306WAT      O25159   3.684   6.017   7.270
 8306WAT     H125160   3.589   6.034   7.246
 8306WAT     H225161   3.698   6.039   7.367
 8307WAT      O25162   8.767   1.978   6.591
 8307WAT     H125163   8.860   1.972   6.556
 8307WAT     H225164   8.704   2.003   6.518
 8308WAT      O25165   5.306   6.776   0.715
 8308WAT     H125166   5.265   6.701   0.664
 8308WAT     H225167   5.234   6.839   0.746
 8309WAT      O25168   0.309   2.773   6.093
 8309WAT     H125169   0.323   2.788   6.191
 8309WAT     H225170   0.295   2.675   6.076
 8310WAT      O25171   3.831   5.353   8.180
 8310WAT     H125172   3.757   5.288   8.195
 8310WAT     H225173   3.869   5.380   8.268
 8311WAT      O25174   2.664   3.781   2.049
 8311WAT     H125175   2.582   3.802   2.102
 8311WAT     H225176   2.745   3.800   2.105
 8312WAT      O25177   5.644   5.175   0.183
 8312WAT     H125178   5.576   5.241   0.215
 8312WAT     H225179   5.665   5.111   0.257
 8313WAT      O25180   1.623   6.329   0.151
 8313WAT     H125181   1.526   6.318   0.129
 8313WAT     H225182   1.641   6.294   0.242
 8314WAT      O25183   3.112   7.856   5.608
 8314WAT     H125184   3.074   7.915   5.536
 8314WAT     H225185   3.043   7.791   5.638
 8315WAT      O25186   2.097   9.351   5.151
 8315WAT     H125187   2.031   9.318   5.084
 8315WAT     H225188   2.051   9.413   5.216
 8316WAT      O25189   4.084   6.352   8.542
 8316WAT     H125190   4.181   6.372   8.533
 8316WAT     H225191   4.068   6.254   8.534
 8317WAT      O25192   2.192   5.071   7.639
 8317WAT     H125193   2.241   5.141   7.690
 8317WAT     H225194   2.218   4.981   7.672
 8318WAT      O25195   3.458   1.442   7.272
 8318WAT     H125196   3.368   1.476   7.246
 8318WAT     H225197   3.525   1.468   7.202
 8319WAT      O25198   9.255   2.107   2.754
 8319WAT     H125199   9.337   2.145   2.796
 8319WAT     H225200   9.272   2.013   2.726
 8320WAT      O25201   9.811   9.523   2.790
 8320WAT     H125202   9.840   9.503   2.697
 8320WAT     H225203   9.757   9.446   2.825
 8321WAT      O25204   5.798   8.981   0.251
 8321WAT     H125205   5.783   8.914   0.179
 8321WAT     H225206   5.786   9.073   0.213
 8322WAT      O25207   8.337   5.092   4.006
 8322WAT     H125208   8.327   5.045   3.918
 8322WAT     H225209   8.433   5.090   4.034
 8323WAT      O25210   8.054   8.221   7.647
 8323WAT     H125211   8.140   8.174   7.626
 8323WAT     H225212   8.009   8.175   7.723
 8324WAT      O25213   9.202   8.386   9.542
 8324WAT     H125214   9.143   8.466   9.534
 8324WAT     H225215   9.279   8.408   9.602
 8325WAT      O25216   6.970   9.131   1.729
 8325WAT     H125217   6.876   9.149   1.758
 8325WAT     H225218   7.022   9.216   1.731
 8326WAT      O25219   3.987   3.226   3.250
 8326WAT     H125220   3.956   3.135   3.278
 8326WAT     H225221   3.953   3.294   3.314
 8327WAT      O25222   1.401   1.826   9.736
 8327WAT     H125223   1.431   1.743   9.782
 8327WAT     H225224   1.385   1.807   9.639
 8328WAT      O25225   6.963   4.050   1.342
 8328WAT     H125226   7.049   4.067   1.294
 8328WAT     H225227   6.955   3.953   1.364
 8329WAT      O25228   0.121   2.649   0.710
 8329WAT     H125229   0.108   2.621   0.614
 8329WAT     H225230   0.188   2.723   0.713
 8330WAT      O25231   7.052   6.719   8.990
 8330WAT     H125232   6.976   6.688   9.046
 8330WAT     H225233   7.058   6.663   8.907
 8331WAT      O25234   0.181   8.260   5.353
 8331WAT     H125235   0.197   8.166   5.383
 8331WAT     H225236   0.263   8.315   5.369
 8332WAT      O25237   7.737   2.123   0.528
 8332WAT     H125238   7.643   2.154   0.547
 8332WAT     H225239   7.746   2.027   0.553
 8333WAT      O25240   0.913   7.021   1.348
 8333WAT     H125241   0.984   7.080   1.310
 8333WAT     H225242   0.824   7.046   1.309
 8334WAT      O25243   1.665   8.455   8.475
 8334WAT     H125244   1.762   8.465   8.498
 8334WAT     H225245   1.644   8.509   8.393
 8335WAT      O25246   1.157   6.567   8.602
 8335WAT     H125247   1.124   6.610   8.517
 8335WAT     H225248   1.207   6.484   8.579
 8336WAT      O25249   7.193   0.003   4.901
 8336WAT     H125250   7.119   0.068   4.917
 8336WAT     H225251   7.278   0.041   4.937
 8337WAT      O25252   4.564   2.275   4.401
 8337WAT     H125253   4.660   2.248   4.403
 8337WAT     H225254   4.506   2.200   4.434
 8338WAT      O25255   2.016   2.874   0.826
 8338WAT     H125256   1.983   2.894   0.734
 8338WAT     H225257   2.085   2.802   0.821
 8339WAT      O25258   7.687   7.972   6.805
 8339WAT     H125259   7.624   8.026   6.861
 8339WAT     H225260   7.726   7.898   6.860
 8340WAT      O25261   9.604   5.843   4.144
 8340WAT     H125262   9.691   5.885   4.119
 8340WAT     H225263   9.613   5.743   4.143
 8341WAT      O25264   5.332   5.202   4.136
 8341WAT     H125265   5.420   5.157   4.117
 8341WAT     H225266   5.258   5.137   4.119
 8342WAT      O25267   9.114   2.312   4.398
 8342WAT     H125268   9.049   2.297   4.473
 8342WAT     H225269   9.081   2.267   4.315
 8343WAT      O25270   6.203   9.621   4.294
 8343WAT     H125271   6.258   9.680   4.354
 8343WAT     H225272   6.114   9.665   4.279
 8344WAT      O25273   8.624   7.248   8.643
 8344WAT     H125274   8.677   7.181   8.695
 8344WAT     H225275   8.685   7.316   8.603
 8345WAT      O25276   7.727   8.957   0.188
 8345WAT     H125277   7.756   8.905   0.269
 8345WAT     H225278   7.750   8.906   0.105
 8346WAT      O25279   0.954   4.618   9.372
 8346WAT     H125280   0.970   4.632   9.470
 8346WAT     H225281   0.941   4.707   9.327
 8347WAT      O25282   3.934   6.190   2.962
 8347WAT     H125283   3.984   6.220   3.043
 8347WAT     H225284   3.836   6.187   2.983
 8348WAT      O25285   5.330   6.748   7.459
 8348WAT     H125286   5.315   6.820   7.527
 8348WAT     H225287   5.261   6.755   7.387
 8349WAT      O25288   2.310   7.058   9.415
 8349WAT     H125289   2.304   7.129   9.345
 8349WAT     H225290   2.253   6.980   9.389
 8350WAT      O25291   8.156   3.350   1.883
 8350WAT     H125292   8.200   3.309   1.803
 8350WAT     H225293   8.067   3.307   1.898
 8351WAT      O25294   5.129   9.228   7.120
 8351WAT     H125295   5.039   9.190   7.098
 8351WAT     H225296   5.139   9.318   7.076
 8352WAT      O25297   2.566   8.413   6.718
 8352WAT     H125298   2.472   8.438   6.741
 8352WAT     H225299   2.590   8.328   6.765
 8353WAT      O25300   1.259   3.901   1.917
 8353WAT     H125301   1.262   3.838   1.840
 8353WAT     H225302   1.172   3.889   1.966
 8354WAT      O25303   0.553   2.279   5.557
 8354WAT     H125304   0.627   2.257   5.620
 8354WAT     H225305   0.509   2.195   5.527
 8355WAT      O25306   1.991   5.779   9.075
 8355WAT     H125307   2.023   5.753   9.166
 8355WAT     H225308   1.909   5.727   9.052
 8356WAT      O25309   7.979   1.814   1.447
 8356WAT     H125310   7.904   1.786   1.508
 8356WAT     H225311   7.950   1.892   1.392
 8357WAT      O25312   7.331   0.331   5.028
 8357WAT     H125313   7.411   0.273   5.013
 8357WAT     H225314   7.343   0.418   4.980
 8358WAT      O25315   8.753   5.889   6.869
 8358WAT     H125316   8.663   5.853   6.896
 8358WAT     H225317   8.754   5.905   6.770
 8359WAT      O25318   2.835   3.130   7.782
 8359WAT     H125319   2.859   3.226   7.802
 8359WAT     H225320   2.736   3.123   7.770
 8360WAT      O25321   3.320   8.615   9.280
 8360WAT     H125322   3.306   8.563   9.196
 8360WAT     H225323   3.281   8.707   9.269
 8361WAT      O25324   9.673   1.568   4.710
 8361WAT     H125325   9.632   1.479   4.733
 8361WAT     H225326   9.742   1.556   4.639
 8362WAT      O25327   3.453   5.662   6.612
 8362WAT     H125328   3.457   5.598   6.535
 8362WAT     H225329   3.512   5.629   6.686
 8363WAT      O25330   4.722   3.854   7.070
 8363WAT     H125331   4.688   3.831   6.979
 8363WAT     H225332   4.819   3.879   7.065
 8364WAT      O25333   3.026   1.844   3.455
 8364WAT     H125334   3.038   1.936   3.493
 8364WAT     H225335   3.020   1.777   3.529
 8365WAT      O25336   8.142   4.690   1.004
 8365WAT     H125337   8.191   4.733   1.080
 8365WAT     H225338   8.179   4.598   0.988
 8366WAT      O25339   8.366   2.489   3.912
 8366WAT     H125340   8.464   2.501   3.927
 8366WAT     H225341   8.335   2.553   3.842
 8367WAT      O25342   6.570   8.456   8.032
 8367WAT     H125343   6.473   8.440   8.010
 8367WAT     H225344   6.579   8.538   8.087
 8368WAT      O25345   1.954   4.746   4.356
 8368WAT     H125346   2.047   4.763   4.387
 8368WAT     H225347   1.904   4.833   4.349
 8369WAT      O25348   2.633   9.607   5.836
 8369WAT     H125349   2.677   9.588   5.924
 8369WAT     H225350   2.651   9.532   5.773
 8370WAT      O25351   8.347   6.096   6.822
 8370WAT     H125352   8.412   6.142   6.761
 8370WAT     H225353   8.367   5.998   6.824
 8371WAT      O25354   1.542   1.708   7.537
 8371WAT     H125355   1.495   1.789   7.571
 8371WAT     H225356   1.578   1.655   7.614
 8372WAT      O25357   3.563   9.057   0.436
 8372WAT     H125358   3.507   9.020   0.510
 8372WAT     H225359   3.598   9.147   0.462
 8373WAT      O25360   6.644   1.186   0.803
 8373WAT     H125361   6.546   1.195   0.788
 8373WAT     H225362   6.668   1.089   0.810
 8374WAT      O25363   5.323   6.120   6.202
 8374WAT     H125364   5.365   6.031   6.182
 8374WAT     H225365   5.226   6.107   6.222
 8375WAT      O25366   3.006   1.226   5.630
 8375WAT     H125367   3.073   1.278   5.578
 8375WAT     H225368   2.918   1.226   5.582
 8376WAT      O25369   8.758   3.212   7.202
 8376WAT     H125370   8.778   3.196   7.298
 8376WAT     H225371   8.748   3.125   7.154
 8377WAT      O25372   2.639   0.603   0.844
 8377WAT     H125373   2.670   0.655   0.923
 8377WAT     H225374   2.640   0.505   0.866
 8378WAT      O25375   9.173   5.828   2.723
 8378WAT     H125376   9.120   5.872   2.651
 8378WAT     H225377   9.228   5.896   2.771
 8379WAT      O25378   2.210   3.233   7.173
 8379WAT     H125379   2.114   3.207   7.185
 8379WAT     H225380   2.243   3.201   7.085
 8380WAT      O25381   0.992   4.064   9.841
 8380WAT     H125382   1.063   4.099   9.902
 8380WAT     H225383   0.987   4.121   9.759
 8381WAT      O25384   8.064   3.027   0.025
 8381WAT     H125385   8.016   2.940   0.017
 8381WAT     H225386   8.040   3.086  -0.053
 8382WAT      O25387   4.935   3.726   8.110
 8382WAT     H125388   4.923   3.637   8.065
 8382WAT     H225389   4.889   3.725   8.198
 8383WAT      O25390   8.820   0.838   4.299
 8383WAT     H125391   8.881   0.760   4.316
 8383WAT     H225392   8.841   0.876   4.209
 8384WAT      O25393   0.755   2.423   9.167
 8384WAT     H125394   0.728   2.327   9.167
 8384WAT     H225395   0.691   2.475   9.111
 8385WAT      O25396   1.028   2.504   3.972
 8385WAT     H125397   1.119   2.537   4.000
 8385WAT     H225398   0.985   2.573   3.914
 8386WAT      O25399   3.072   9.474   7.899
 8386WAT     H125400   3.018   9.474   7.983
 8386WAT     H225401   3.022   9.427   7.826
 8387WAT      O25402   4.929   6.351   1.703
 8387WAT     H125403   4.909   6.256   1.728
 8387WAT     H225404   5.016   6.355   1.655
 8388WAT      O25405   3.489   8.035   8.514
 8388WAT     H125406   3.428   8.103   8.474
 8388WAT     H225407   3.445   7.945   8.512
 8389WAT      O25408   9.021   1.315   6.348
 8389WAT     H125409   9.074   1.397   6.369
 8389WAT     H225410   9.051   1.240   6.406
 8390WAT      O25411   2.826   8.882   4.429
 8390WAT     H125412   2.901   8.863   4.493
 8390WAT     H225413   2.773   8.959   4.463
 8391WAT      O25414   9.863   6.657   9.665
 8391WAT     H125415   9.818   6.746   9.672
 8391WAT     H225416   9.933   6.660   9.594
 8392WAT      O25417   8.197   4.259   2.592
 8392WAT     H125418   8.200   4.336   2.655
 8392WAT     H225419   8.123   4.197   2.619
 8393WAT      O25420   5.890   0.246   6.265
 8393WAT     H125421   5.945   0.165   6.245
 8393WAT     H225422   5.920   0.286   6.352
 8394WAT      O25423   9.183   6.913   0.685
 8394WAT     H125424   9.141   7.004   0.687
 8394WAT     H225425   9.245   6.903   0.763
 8395WAT      O25426   8.351   1.995   7.499
 8395WAT     H125427   8.279   1.928   7.483
 8395WAT     H225428   8.435   1.948   7.527
 8396WAT      O25429   4.376   0.785   6.689
 8396WAT     H125430   4.334   0.857   6.633
 8396WAT     H225431   4.308   0.714   6.710
 8397WAT      O25432   3.238   9.767   8.562
 8397WAT     H125433   3.195   9.786   8.651
 8397WAT     H225434   3.167   9.753   8.493
 8398WAT      O25435   3.299   9.300   5.544
 8398WAT     H125436   3.337   9.269   5.631
 8398WAT     H225437   3.212   9.253   5.527
 8399WAT      O25438   2.872   5.691   8.548
 8399WAT     H125439   2.858   5.773   8.604
 8399WAT     H225440   2.784   5.650   8.526
 8400WAT      O25441   6.653   6.374   6.111
 8400WAT     H125442   6.708   6.316   6.170
 8400WAT     H225443   6.663   6.343   6.016
 8401WAT      O25444   9.688   1.093   5.479
 8401WAT     H125445   9.639   1.074   5.395
 8401WAT     H225446   9.696   1.192   5.493
 8402WAT      O25447   1.575   3.119   6.193
 8402WAT     H125448   1.659   3.149   6.237
 8402WAT     H225449   1.570   3.019   6.197
 8403WAT      O25450   2.099   4.719   2.160
 8403WAT     H125451   2.197   4.739   2.155
 8403WAT     H225452   2.081   4.630   2.118
 8404WAT      O25453   6.004   7.362   9.510
 8404WAT     H125454   5.988   7.449   9.464
 8404WAT     H225455   5.921   7.305   9.504
 8405WAT      O25456   7.660   5.034   5.905
 8405WAT     H125457   7.664   4.935   5.895
 8405WAT     H225458   7.736   5.065   5.962
 8406WAT      O25459   6.517   6.632   6.500
 8406WAT     H125460   6.547   6.601   6.410
 8406WAT     H225461   6.584   6.603   6.569
 8407WAT      O25462   3.942   7.718   1.412
 8407WAT     H125463   4.011   7.673   1.468
 8407WAT     H225464   3.878   7.650   1.377
 8408WAT      O25465   0.413   2.698   3.832
 8408WAT     H125466   0.320   2.734   3.835
 8408WAT     H225467   0.434   2.667   3.739
 8409WAT      O25468   1.664   6.268   1.883
 8409WAT     H125469   1.700   6.338   1.822
 8409WAT     H225470   1.611   6.201   1.830
 8410WAT      O25471   3.758   8.354   0.622
 8410WAT     H125472   3.660   8.338   0.632
 8410WAT     H225473   3.793   8.300   0.545
 8411WAT      O25474   8.587   1.689   8.444
 8411WAT     H125475   8.539   1.741   8.515
 8411WAT     H225476   8.520   1.652   8.379
 8412WAT      O25477   1.024   4.645   8.735
 8412WAT     H125478   1.086   4.655   8.657
 8412WAT     H225479   1.000   4.548   8.746
 8413WAT      O25480   1.811   3.053   6.773
 8413WAT     H125481   1.794   2.955   6.780
 8413WAT     H225482   1.901   3.075   6.811
 8414WAT      O25483   3.414   8.375   9.668
 8414WAT     H125484   3.454   8.358   9.578
 8414WAT     H225485   3.440   8.467   9.699
 8415WAT      O25486   0.051   0.563   4.444
 8415WAT     H125487   0.112   0.512   4.383
 8415WAT     H225488  -0.017   0.500   4.483
 8416WAT      O25489   9.473   0.842   8.578
 8416WAT     H125490   9.479   0.895   8.494
 8416WAT     H225491   9.524   0.756   8.567
 8417WAT      O25492   1.581   6.467   8.904
 8417WAT     H125493   1.668   6.457   8.856
 8417WAT     H225494   1.582   6.552   8.957
 8418WAT      O25495   9.080   7.694   3.855
 8418WAT     H125496   9.128   7.642   3.926
 8418WAT     H225497   9.014   7.635   3.808
 8419WAT      O25498   0.895   8.865   0.836
 8419WAT     H125499   0.944   8.785   0.872
 8419WAT     H225500   0.816   8.834   0.783
 8420WAT      O25501   6.254   1.458   1.633
 8420WAT     H125502   6.303   1.390   1.689
 8420WAT     H225503   6.312   1.486   1.557
 8421WAT      O25504   8.101   7.082   7.626
 8421WAT     H125505   8.127   7.146   7.699
 8421WAT     H225506   8.125   6.988   7.654
 8422WAT      O25507   5.329   1.066   2.987
 8422WAT     H125508   5.324   1.116   2.901
 8422WAT     H225509   5.255   0.999   2.992
 8423WAT      O25510   4.235   2.003   6.651
 8423WAT     H125511   4.279   2.024   6.564
 8423WAT     H225512   4.262   1.910   6.680
 8424WAT      O25513   1.365   2.410   6.445
 8424WAT     H125514   1.381   2.447   6.536
 8424WAT     H225515   1.449   2.417   6.390
 8425WAT      O25516   0.656   2.572   2.178
 8425WAT     H125517   0.697   2.481   2.166
 8425WAT     H225518   0.560   2.568   2.153
 8426WAT      O25519   3.360   9.654   0.075
 8426WAT     H125520   3.289   9.586   0.097
 8426WAT     H225521   3.439   9.608   0.036
 8427WAT      O25522   2.974   3.914   1.363
 8427WAT     H125523   3.044   3.931   1.432
 8427WAT     H225524   2.883   3.920   1.404
 8428WAT      O25525   2.694   8.963   8.543
 8428WAT     H125526   2.602   8.946   8.508
 8428WAT     H225527   2.721   9.057   8.525
 8429WAT      O25528   1.148   1.193   2.266
 8429WAT     H125529   1.175   1.118   2.327
 8429WAT     H225530   1.186   1.279   2.299
 8430WAT      O25531   2.736   5.661   1.909
 8430WAT     H125532   2.749   5.756   1.938
 8430WAT     H225533   2.698   5.659   1.816
 8431WAT      O25534   4.568   1.757   8.457
 8431WAT     H125535   4.643   1.711   8.410
 8431WAT     H225536   4.524   1.822   8.394
 8432WAT      O25537   0.470   1.890   6.211
 8432WAT     H125538   0.565   1.889   6.179
 8432WAT     H225539   0.423   1.809   6.176
 8433WAT      O25540   6.611   1.836   7.504
 8433WAT     H125541   6.639   1.838   7.600
 8433WAT     H225542   6.514   1.859   7.497
 8434WAT      O25543   3.848   3.244   9.436
 8434WAT     H125544   3.802   3.326   9.401
 8434WAT     H225545   3.947   3.258   9.436
 8435WAT      O25546   1.900   3.779   6.871
 8435WAT     H125547   1.942   3.806   6.957
 8435WAT     H225548   1.804   3.809   6.870
 8436WAT      O25549   6.641   5.122   0.691
 8436WAT     H125550   6.605   5.042   0.741
 8436WAT     H225551   6.570   5.192   0.686
 8437WAT      O25552   5.969   3.178   5.695
 8437WAT     H125553   5.934   3.250   5.755
 8437WAT     H225554   5.930   3.090   5.723
 8438WAT      O25555   0.733   5.335   8.933
 8438WAT     H125556   0.732   5.397   8.855
 8438WAT     H225557   0.823   5.292   8.940
 8439WAT      O25558   3.840   3.664   4.521
 8439WAT     H125559   3.782   3.744   4.507
 8439WAT     H225560   3.785   3.581   4.510
 8440WAT      O25561   4.085   0.607   9.086
 8440WAT     H125562   4.072   0.692   9.034
 8440WAT     H225563   4.162   0.617   9.148
 8441WAT      O25564   3.967   2.688   3.114
 8441WAT     H125565   3.913   2.671   3.197
 8441WAT     H225566   3.954   2.783   3.085
 8442WAT      O25567   6.390   5.321   1.075
 8442WAT     H125568   6.370   5.419   1.073
 8442WAT     H225569   6.305   5.270   1.082
 8443WAT      O25570   4.790   5.255   6.393
 8443WAT     H125571   4.707   5.290   6.436
 8443WAT     H225572   4.863   5.249   6.461
 8444WAT      O25573   8.619   1.022   6.993
 8444WAT     H125574   8.537   0.987   7.038
 8444WAT     H225575   8.683   0.947   6.977
 8445WAT      O25576   6.982   0.808   4.014
 8445WAT     H125577   7.030   0.881   4.062
 8445WAT     H225578   6.912   0.848   3.954
 8446WAT      O25579   9.498   2.714   4.089
 8446WAT     H125580   9.467   2.803   4.122
 8446WAT     H225581   9.588   2.722   4.048
 8447WAT      O25582   3.791   2.537   6.785
 8447WAT     H125583   3.813   2.627   6.749
 8447WAT     H225584   3.806   2.536   6.884
 8448WAT      O25585   3.136   3.118   0.183
 8448WAT     H125586   3.223   3.071   0.169
 8448WAT     H225587   3.060   3.053   0.172
 8449WAT      O25588   5.901   0.397   1.087
 8449WAT     H125589   5.966   0.341   1.036
 8449WAT     H225590   5.915   0.493   1.064
 8450WAT      O25591   0.445   9.619   6.197
 8450WAT     H125592   0.403   9.587   6.112
 8450WAT     H225593   0.432   9.718   6.204
 8451WAT      O25594   0.813   6.347   0.644
 8451WAT     H125595   0.799   6.446   0.643
 8451WAT     H225596   0.756   6.306   0.715
 8452WAT      O25597   4.407   0.433   5.446
 8452WAT     H125598   4.394   0.506   5.378
 8452WAT     H225599   4.438   0.474   5.532
 8453WAT      O25600   6.871   8.254   1.911
 8453WAT     H125601   6.937   8.305   1.966
 8453WAT     H225602   6.853   8.304   1.826
 8454WAT      O25603   1.609   9.437   4.065
 8454WAT     H125604   1.593   9.340   4.046
 8454WAT     H225605   1.561   9.463   4.149
 8455WAT      O25606   3.582   0.260   8.418
 8455WAT     H125607   3.664   0.273   8.474
 8455WAT     H225608   3.578   0.332   8.349
 8456WAT      O25609   0.095   9.150   8.072
 8456WAT     H125610   0.103   9.179   8.167
 8456WAT     H225611   0.011   9.187   8.033
 8457WAT      O25612   2.177   5.486   3.529
 8457WAT     H125613   2.179   5.581   3.558
 8457WAT     H225614   2.269   5.457   3.504
 8458WAT      O25615   2.398   6.212   4.683
 8458WAT     H125616   2.485   6.262   4.687
 8458WAT     H225617   2.408   6.125   4.731
 8459WAT      O25618   9.094   9.098   2.259
 8459WAT     H125619   9.089   9.181   2.202
 8459WAT     H225620   9.141   9.119   2.344
 8460WAT      O25621   1.979   0.083   3.212
 8460WAT     H125622   2.021   0.103   3.123
 8460WAT     H225623   2.043   0.108   3.285
 8461WAT      O25624   1.926   1.333   7.613
 8461WAT     H125625   1.901   1.376   7.526
 8461WAT     H225626   2.009   1.278   7.601
 8462WAT      O25627   8.098   8.436   2.576
 8462WAT     H125628   8.133   8.354   2.530
 8462WAT     H225629   8.102   8.513   2.512
 8463WAT      O25630   8.150   5.222   6.854
 8463WAT     H125631   8.186   5.277   6.929
 8463WAT     H225632   8.202   5.138   6.846
 8464WAT      O25633   1.311   6.271   4.037
 8464WAT     H125634   1.238   6.209   4.065
 8464WAT     H225635   1.399   6.232   4.063
 8465WAT      O25636   5.783   7.026   7.770
 8465WAT     H125637   5.797   7.120   7.739
 8465WAT     H225638   5.871   6.982   7.786
 8466WAT      O25639   7.496   9.710   9.309
 8466WAT     H125640   7.458   9.753   9.227
 8466WAT     H225641   7.494   9.775   9.385
 8467WAT      O25642   5.165   2.815   2.749
 8467WAT     H125643   5.143   2.775   2.838
 8467WAT     H225644   5.096   2.883   2.725
 8468WAT      O25645   7.659   6.795   9.055
 8468WAT     H125646   7.638   6.782   9.151
 8468WAT     H225647   7.573   6.804   9.003
 8469WAT      O25648   1.630   5.875   8.606
 8469WAT     H125649   1.626   5.937   8.685
 8469WAT     H225650   1.700   5.908   8.543
 8470WAT      O25651   6.864   1.701   7.862
 8470WAT     H125652   6.903   1.723   7.952
 8470WAT     H225653   6.920   1.743   7.791
 8471WAT      O25654   5.439   0.726   4.659
 8471WAT     H125655   5.499   0.688   4.729
 8471WAT     H225656   5.354   0.757   4.701
 8472WAT      O25657   9.579   4.591   8.835
 8472WAT     H125658   9.633   4.603   8.918
 8472WAT     H225659   9.540   4.679   8.808
 8473WAT      O25660   8.077   5.555   7.789
 8473WAT     H125661   8.156   5.602   7.827
 8473WAT     H225662   8.107   5.470   7.745
 8474WAT      O25663   0.777   1.026   9.549
 8474WAT     H125664   0.838   1.103   9.527
 8474WAT     H225665   0.815   0.974   9.625
 8475WAT      O25666   3.815   8.942   4.372
 8475WAT     H125667   3.812   8.851   4.331
 8475WAT     H225668   3.836   9.009   4.300
 8476WAT      O25669   9.159   8.204   8.482
 8476WAT     H125670   9.238   8.145   8.493
 8476WAT     H225671   9.163   8.249   8.392
 8477WAT      O25672   8.723   0.477   5.062
 8477WAT     H125673   8.717   0.573   5.034
 8477WAT     H225674   8.749   0.472   5.159
 8478WAT      O25675   8.046   4.971   3.136
 8478WAT     H125676   8.133   4.966   3.087
 8478WAT     H225677   8.064   4.983   3.234
 8479WAT      O25678   9.490   9.685   6.772
 8479WAT     H125679   9.476   9.782   6.795
 8479WAT     H225680   9.417   9.655   6.711
 8480WAT      O25681   1.925   3.569   7.301
 8480WAT     H125682   1.872   3.556   7.385
 8480WAT     H225683   2.018   3.533   7.314
 8481WAT      O25684   6.139   2.781   2.338
 8481WAT     H125685   6.234   2.811   2.350
 8481WAT     H225686   6.092   2.843   2.276
 8482WAT      O25687   8.156   2.363   7.758
 8482WAT     H125688   8.206   2.383   7.843
 8482WAT     H225689   8.088   2.434   7.742
 8483WAT      O25690   2.402   3.838   5.822
 8483WAT     H125691   2.319   3.848   5.766
 8483WAT     H225692   2.482   3.859   5.765
 8484WAT      O25693   8.274   7.219   3.819
 8484WAT     H125694   8.367   7.243   3.848
 8484WAT     H225695   8.244   7.138   3.869
 8485WAT      O25696   0.887   7.914   4.657
 8485WAT     H125697   0.844   7.921   4.747
 8485WAT     H225698   0.878   7.820   4.623
 8486WAT      O25699   2.251   5.240   3.035
 8486WAT     H125700   2.206   5.250   3.124
 8486WAT     H225701   2.328   5.302   3.029
 8487WAT      O25702   5.116   3.985   3.810
 8487WAT     H125703   5.201   3.981   3.756
 8487WAT     H225704   5.048   4.040   3.761
 8488WAT      O25705   8.380   7.907   6.965
 8488WAT     H125706   8.394   7.910   7.064
 8488WAT     H225707   8.324   7.984   6.937
 8489WAT      O25708   5.426   7.115   7.969
 8489WAT     H125709   5.492   7.046   7.996
 8489WAT     H225710   5.448   7.149   7.877
 8490WAT      O25711   1.532   3.163   0.724
 8490WAT     H125712   1.626   3.193   0.705
 8490WAT     H225713   1.522   3.144   0.822
 8491WAT      O25714   3.758   4.976   7.173
 8491WAT     H125715   3.676   4.938   7.217
 8491WAT     H225716   3.761   5.075   7.190
 8492WAT      O25717   0.797   7.188   4.943
 8492WAT     H125718   0.879   7.132   4.935
 8492WAT     H225719   0.745   7.160   5.024
 8493WAT      O25720   7.546   6.277   5.282
 8493WAT     H125721   7.555   6.368   5.243
 8493WAT     H225722   7.578   6.209   5.215
 8494WAT      O25723   8.510   9.364   4.190
 8494WAT     H125724   8.586   9.366   4.255
 8494WAT     H225725   8.441   9.430   4.218
 8495WAT      O25726   9.596   8.333   6.415
 8495WAT     H125727   9.620   8.367   6.506
 8495WAT     H225728   9.497   8.318   6.410
 8496WAT      O25729   4.683   3.124   0.496
 8496WAT     H125730   4.684   3.186   0.574
 8496WAT     H225731   4.589   3.099   0.473
 8497WAT      O25732   6.785   8.650   1.448
 8497WAT     H125733   6.858   8.688   1.391
 8497WAT     H225734   6.811   8.559   1.480
 8498WAT      O25735   0.735   6.488   9.889
 8498WAT     H125736   0.732   6.581   9.852
 8498WAT     H225737   0.680   6.482   9.972
 8499WAT      O25738   2.705   1.395   0.426
 8499WAT     H125739   2.697   1.441   0.338
 8499WAT     H225740   2.785   1.429   0.474
 8500WAT      O25741   8.718   8.767   9.867
 8500WAT     H125742   8.636   8.819   9.890
 8500WAT     H225743   8.701   8.712   9.785
 8501WAT      O25744   6.691   5.754   9.610
 8501WAT     H125745   6.594   5.743   9.591
 8501WAT     H225746   6.742   5.680   9.567
 8502WAT      O25747   7.895   2.141   5.814
 8502WAT     H125748   7.931   2.086   5.889
 8502WAT     H225749   7.841   2.084   5.752
 8503WAT      O25750   2.638   3.147   3.181
 8503WAT     H125751   2.554   3.174   3.229
 8503WAT     H225752   2.629   3.052   3.151
 8504WAT      O25753   7.864   0.633   5.467
 8504WAT     H125754   7.904   0.606   5.379
 8504WAT     H225755   7.779   0.684   5.451
 8505WAT      O25756   2.018   2.453   3.742
 8505WAT     H125757   2.109   2.465   3.783
 8505WAT     H225758   1.951   2.505   3.795
 8506WAT      O25759   1.395   4.150   6.871
 8506WAT     H125760   1.344   4.066   6.852
 8506WAT     H225761   1.415   4.157   6.968
 8507WAT      O25762   4.261   8.386   6.174
 8507WAT     H125763   4.350   8.345   6.194
 8507WAT     H225764   4.224   8.428   6.258
 8508WAT      O25765   2.812   6.317   4.444
 8508WAT     H125766   2.717   6.299   4.418
 8508WAT     H225767   2.864   6.346   4.363
 8509WAT      O25768   1.032   7.271   1.002
 8509WAT     H125769   1.002   7.297   1.093
 8509WAT     H225770   1.109   7.328   0.974
 8510WAT      O25771   8.020   9.376   3.643
 8510WAT     H125772   7.925   9.398   3.666
 8510WAT     H225773   8.042   9.411   3.553
 8511WAT      O25774   5.241   4.875   2.770
 8511WAT     H125775   5.262   4.969   2.743
 8511WAT     H225776   5.289   4.812   2.708
 8512WAT      O25777   2.177   3.746   7.698
 8512WAT     H125778   2.199   3.715   7.790
 8512WAT     H225779   2.261   3.778   7.653
 8513WAT      O25780   2.062   5.128   4.480
 8513WAT     H125781   2.029   5.095   4.568
 8513WAT     H225782   2.028   5.221   4.465
 8514WAT      O25783   0.169   3.398   7.138
 8514WAT     H125784   0.159   3.403   7.237
 8514WAT     H225785   0.238   3.464   7.108
 8515WAT      O25786   7.328   8.318   3.932
 8515WAT     H125787   7.405   8.341   3.872
 8515WAT     H225788   7.245   8.309   3.877
 8516WAT      O25789   8.013   8.746   2.496
 8516WAT     H125790   7.928   8.770   2.449
 8516WAT     H225791   7.992   8.704   2.584
 8517WAT      O25792   0.161   4.260   5.643
 8517WAT     H125793   0.147   4.357   5.622
 8517WAT     H225794   0.150   4.206   5.560
 8518WAT      O25795   6.937   2.139   6.144
 8518WAT     H125796   7.036   2.152   6.142
 8518WAT     H225797   6.898   2.193   6.219
 8519WAT      O25798   4.795   2.697   3.533
 8519WAT     H125799   4.798   2.715   3.435
 8519WAT     H225800   4.887   2.697   3.571
 8520WAT      O25801   5.188   8.902   3.077
 8520WAT     H125802   5.123   8.977   3.062
 8520WAT     H225803   5.157   8.847   3.155
 8521WAT      O25804   9.737   7.824   7.406
 8521WAT     H125805   9.799   7.811   7.483
 8521WAT     H225806   9.671   7.749   7.404
 8522WAT      O25807   5.149   0.894   4.415
 8522WAT     H125808   5.193   0.982   4.402
 8522WAT     H225809   5.219   0.823   4.427
 8523WAT      O25810   6.581   5.736   8.498
 8523WAT     H125811   6.592   5.835   8.508
 8523WAT     H225812   6.594   5.692   8.587
 8524WAT      O25813   2.426   4.824   3.680
 8524WAT     H125814   2.452   4.898   3.742
 8524WAT     H225815   2.423   4.737   3.730
 8525WAT      O25816   9.512   0.767   2.891
 8525WAT     H125817   9.428   0.737   2.846
 8525WAT     H225818   9.585   0.702   2.871
 8526WAT      O25819   5.376   1.664   1.071
 8526WAT     H125820   5.362   1.627   0.979
 8526WAT     H225821   5.473   1.680   1.085
 8527WAT      O25822   1.984   5.889   3.977
 8527WAT     H125823   2.071   5.853   4.012
 8527WAT     H225824   1.931   5.925   4.053
 8528WAT      O25825   1.364   9.069   7.599
 8528WAT     H125826   1.268   9.081   7.573
 8528WAT     H225827   1.417   9.044   7.519
 8529WAT      O25828   4.165   7.069   1.347
 8529WAT     H125829   4.095   7.115   1.293
 8529WAT     H225830   4.230   7.137   1.381
 8530WAT      O25831   4.415   8.519   0.740
 8530WAT     H125832   4.500   8.571   0.745
 8530WAT     H225833   4.372   8.517   0.830
 8531WAT      O25834   2.479   5.195   4.425
 8531WAT     H125835   2.468   5.160   4.518
 8531WAT     H225836   2.544   5.271   4.425
 8532WAT      O25837   3.389   1.723   0.724
 8532WAT     H125838   3.482   1.686   0.728
 8532WAT     H225839   3.394   1.823   0.735
 8533WAT      O25840   9.570   7.417   0.235
 8533WAT     H125841   9.472   7.412   0.257
 8533WAT     H225842   9.611   7.495   0.282
 8534WAT      O25843   5.577   9.106   6.358
 8534WAT     H125844   5.677   9.109   6.357
 8534WAT     H225845   5.542   9.193   6.394
 8535WAT      O25846   2.521   0.948   1.295
 8535WAT     H125847   2.613   0.986   1.308
 8535WAT     H225848   2.528   0.859   1.250
 8536WAT      O25849   2.952   4.128   7.485
 8536WAT     H125850   2.880   4.146   7.418
 8536WAT     H225851   3.028   4.082   7.440
 8537WAT      O25852   2.087   2.152   0.328
 8537WAT     H125853   2.021   2.200   0.270
 8537WAT     H225854   2.040   2.084   0.383
 8538WAT      O25855   9.731   7.976   6.933
 8538WAT     H125856   9.727   7.997   7.031
 8538WAT     H225857   9.705   8.057   6.881
 8539WAT      O25858   7.544   0.811   2.400
 8539WAT     H125859   7.549   0.750   2.479
 8539WAT     H225860   7.578   0.763   2.319
 8540WAT      O25861   2.020   9.698   5.759
 8540WAT     H125862   2.103   9.753   5.758
 8540WAT     H225863   2.014   9.649   5.846
 8541WAT      O25864   8.749   3.554   3.509
 8541WAT     H125865   8.720   3.617   3.436
 8541WAT     H225866   8.831   3.590   3.552
 8542WAT      O25867   2.697   8.860   4.044
 8542WAT     H125868   2.677   8.951   4.010
 8542WAT     H225869   2.782   8.826   4.003
 8543WAT      O25870   9.339   5.541   1.332
 8543WAT     H125871   9.301   5.463   1.381
 8543WAT     H225872   9.332   5.623   1.389
 8544WAT      O25873   4.693   1.324   4.683
 8544WAT     H125874   4.685   1.422   4.700
 8544WAT     H225875   4.602   1.283   4.684
 8545WAT      O25876   2.926   5.005   2.186
 8545WAT     H125877   2.950   4.985   2.281
 8545WAT     H225878   2.855   5.076   2.184
 8546WAT      O25879   3.169   9.708   3.796
 8546WAT     H125880   3.263   9.702   3.762
 8546WAT     H225881   3.163   9.666   3.886
 8547WAT      O25882   9.374   9.506   9.374
 8547WAT     H125883   9.340   9.599   9.365
 8547WAT     H225884   9.474   9.508   9.384
 8548WAT      O25885   9.872   5.244   5.181
 8548WAT     H125886   9.939   5.188   5.230
 8548WAT     H225887   9.841   5.195   5.100
 8549WAT      O25888   7.354   4.319   7.820
 8549WAT     H125889   7.344   4.230   7.777
 8549WAT     H225890   7.400   4.309   7.908
 8550WAT      O25891   8.671   7.586   1.045
 8550WAT     H125892   8.693   7.589   0.948
 8550WAT     H225893   8.575   7.611   1.059
 8551WAT      O25894   7.039   1.872   2.606
 8551WAT     H125895   6.974   1.839   2.538
 8551WAT     H225896   7.099   1.797   2.634
 8552WAT      O25897   8.454   5.122   7.455
 8552WAT     H125898   8.518   5.075   7.394
 8552WAT     H225899   8.360   5.094   7.434
 8553WAT      O25900   1.837   0.144   4.307
 8553WAT     H125901   1.823   0.123   4.210
 8553WAT     H225902   1.901   0.078   4.347
 8554WAT      O25903   6.989   7.397   7.677
 8554WAT     H125904   6.909   7.338   7.689
 8554WAT     H225905   7.044   7.362   7.600
 8555WAT      O25906   0.974   4.350   7.213
 8555WAT     H125907   0.888   4.349   7.266
 8555WAT     H225908   0.982   4.438   7.166
 8556WAT      O25909   6.849   2.117   3.795
 8556WAT     H125910   6.941   2.156   3.794
 8556WAT     H225911   6.855   2.018   3.810
 8557WAT      O25912   8.088   1.288   0.788
 8557WAT     H125913   8.172   1.319   0.743
 8557WAT     H225914   8.028   1.366   0.804
 8558WAT      O25915   2.075   3.959   5.699
 8558WAT     H125916   2.130   3.978   5.617
 8558WAT     H225917   2.091   3.864   5.728
 8559WAT      O25918   3.988   1.338   9.214
 8559WAT     H125919   4.081   1.363   9.241
 8559WAT     H225920   3.945   1.285   9.286
 8560WAT      O25921   4.546   7.950   3.809
 8560WAT     H125922   4.493   7.866   3.820
 8560WAT     H225923   4.567   7.988   3.899
 8561WAT      O25924   2.556   7.101   2.754
 8561WAT     H125925   2.578   7.141   2.843
 8561WAT     H225926   2.519   7.172   2.694
 8562WAT      O25927   5.712   8.565   1.039
 8562WAT     H125928   5.714   8.639   0.971
 8562WAT     H225929   5.800   8.560   1.085
 8563WAT      O25930   0.283   6.965   4.692
 8563WAT     H125931   0.312   7.059   4.677
 8563WAT     H225932   0.189   6.953   4.660
 8564WAT      O25933   5.610   9.693   6.123
 8564WAT     H125934   5.514   9.664   6.122
 8564WAT     H225935   5.622   9.767   6.190
 8565WAT      O25936   2.211   8.426   8.868
 8565WAT     H125937   2.290   8.438   8.929
 8565WAT     H225938   2.199   8.509   8.813
 8566WAT      O25939   3.131   9.776   0.861
 8566WAT     H125940   3.145   9.873   0.881
 8566WAT     H225941   3.110   9.765   0.764
 8567WAT      O25942   4.351   3.091   0.144
 8567WAT     H125943   4.267   3.141   0.166
 8567WAT     H225944   4.430   3.143   0.176
 8568WAT      O25945   5.723   6.134   9.522
 8568WAT     H125946   5.656   6.072   9.564
 8568WAT     H225947   5.700   6.228   9.547
 8569WAT      O25948   5.846   4.661   4.684
 8569WAT     H125949   5.748   4.650   4.668
 8569WAT     H225950   5.862   4.694   4.777
 8570WAT      O25951   9.077   5.409   4.689
 8570WAT     H125952   9.055   5.447   4.599
 8570WAT     H225953   9.136   5.474   4.739
 8571WAT      O25954   2.170   8.714   9.427
 8571WAT     H125955   2.180   8.808   9.461
 8571WAT     H225956   2.239   8.656   9.470
 8572WAT      O25957   7.956   3.305   4.557
 8572WAT     H125958   7.902   3.321   4.639
 8572WAT     H225959   7.897   3.308   4.476
 8573WAT      O25960   9.061   2.220   7.733
 8573WAT     H125961   9.051   2.181   7.642
 8573WAT     H225962   9.086   2.316   7.726
 8574WAT      O25963   0.842   6.241   0.234
 8574WAT     H125964   0.806   6.334   0.238
 8574WAT     H225965   0.794   6.189   0.163
 8575WAT      O25966   1.405   5.921   0.666
 8575WAT     H125967   1.503   5.940   0.675
 8575WAT     H225968   1.378   5.932   0.570
 8576WAT      O25969   9.466   6.944   5.063
 8576WAT     H125970   9.555   6.971   5.026
 8576WAT     H225971   9.394   6.993   5.015
 8577WAT      O25972   2.805   9.359   6.861
 8577WAT     H125973   2.802   9.295   6.938
 8577WAT     H225974   2.900   9.383   6.840
 8578WAT      O25975   2.965   6.363   2.474
 8578WAT     H125976   2.916   6.387   2.558
 8578WAT     H225977   3.038   6.429   2.458
 8579WAT      O25978   0.501   0.660   9.865
 8579WAT     H125979   0.582   0.667   9.922
 8579WAT     H225980   0.444   0.742   9.878
 8580WAT      O25981   3.401   8.324   5.155
 8580WAT     H125982   3.406   8.422   5.177
 8580WAT     H225983   3.472   8.301   5.089
 8581WAT      O25984   3.556   1.068   6.244
 8581WAT     H125985   3.635   1.007   6.247
 8581WAT     H225986   3.493   1.037   6.173
 8582WAT      O25987   8.188   2.517   8.804
 8582WAT     H125988   8.268   2.478   8.759
 8582WAT     H225989   8.121   2.544   8.735
 8583WAT      O25990   8.389   6.249   9.084
 8583WAT     H125991   8.309   6.304   9.057
 8583WAT     H225992   8.409   6.183   9.012
 8584WAT      O25993   0.222   4.167   9.811
 8584WAT     H125994   0.187   4.213   9.893
 8584WAT     H225995   0.299   4.219   9.775
 8585WAT      O25996   6.315   9.691   5.862
 8585WAT     H125997   6.399   9.640   5.846
 8585WAT     H225998   6.261   9.645   5.933
 8586WAT      O25999   3.543   1.429   9.132
 8586WAT     H126000   3.608   1.490   9.087
 8586WAT     H226001   3.531   1.457   9.227
 8587WAT      O26002   7.422   2.847   9.701
 8587WAT     H126003   7.501   2.804   9.658
 8587WAT     H226004   7.370   2.898   9.633
 8588WAT      O26005   9.810   1.193   0.830
 8588WAT     H126006   9.760   1.261   0.883
 8588WAT     H226007   9.747   1.125   0.793
 8589WAT      O26008   3.240   8.667   3.938
 8589WAT     H126009   3.264   8.613   3.857
 8589WAT     H226010   3.307   8.741   3.949
 8590WAT      O26011   9.288   7.444   0.248
 8590WAT     H126012   9.251   7.361   0.208
 8590WAT     H226013   9.255   7.454   0.342
 8591WAT      O26014   9.628   3.947   3.284
 8591WAT     H126015   9.546   3.926   3.231
 8591WAT     H226016   9.700   3.881   3.262
 8592WAT      O26017   8.185   8.220   1.295
 8592WAT     H126018   8.225   8.271   1.219
 8592WAT     H226019   8.086   8.228   1.292
 8593WAT      O26020   0.731   7.606   4.085
 8593WAT     H126021   0.760   7.664   4.162
 8593WAT     H226022   0.651   7.552   4.111
 8594WAT      O26023   1.965   6.270   3.549
 8594WAT     H126024   1.904   6.347   3.530
 8594WAT     H226025   2.037   6.299   3.613
 8595WAT      O26026   4.989   7.952   7.425
 8595WAT     H126027   5.031   7.937   7.336
 8595WAT     H226028   4.890   7.939   7.417
 8596WAT      O26029   7.961   5.298   0.039
 8596WAT     H126030   8.047   5.271   0.084
 8596WAT     H226031   7.884   5.256   0.087
 8597WAT      O26032   5.414   1.317   9.133
 8597WAT     H126033   5.349   1.340   9.206
 8597WAT     H226034   5.479   1.392   9.121
 8598WAT      O26035   7.583   6.910   7.734
 8598WAT     H126036   7.642   6.989   7.748
 8598WAT     H226037   7.638   6.831   7.709
 8599WAT      O26038   6.944   4.684   3.277
 8599WAT     H126039   6.935   4.584   3.281
 8599WAT     H226040   6.917   4.724   3.364
 8600WAT      O26041   5.488   4.911   6.242
 8600WAT     H126042   5.524   4.945   6.329
 8600WAT     H226043   5.394   4.943   6.230
 8601WAT      O26044   2.409   6.504   3.115
 8601WAT     H126045   2.312   6.528   3.106
 8601WAT     H226046   2.461   6.584   3.142
 8602WAT      O26047   2.670   7.737   3.388
 8602WAT     H126048   2.755   7.693   3.418
 8602WAT     H226049   2.630   7.686   3.312
 8603WAT      O26050   6.309   6.943   0.156
 8603WAT     H126051   6.305   6.866   0.220
 8603WAT     H226052   6.245   6.927   0.081
 8604WAT      O26053   2.508   4.981   8.920
 8604WAT     H126054   2.485   5.060   8.977
 8604WAT     H226055   2.471   4.995   8.828
 8605WAT      O26056   3.426   2.666   5.500
 8605WAT     H126057   3.355   2.608   5.462
 8605WAT     H226058   3.456   2.732   5.431
 8606WAT      O26059   9.251   7.203   8.168
 8606WAT     H126060   9.235   7.302   8.176
 8606WAT     H226061   9.336   7.187   8.119
 8607WAT      O26062   6.992   2.373   7.443
 8607WAT     H126063   6.899   2.382   7.479
 8607WAT     H226064   7.035   2.291   7.481
 8608WAT      O26065   5.501   7.067   8.944
 8608WAT     H126066   5.548   6.979   8.952
 8608WAT     H226067   5.470   7.096   9.035
 8609WAT      O26068   4.974   4.324   5.823
 8609WAT     H126069   4.936   4.316   5.731
 8609WAT     H226070   5.058   4.379   5.819
 8610WAT      O26071   3.688   7.220   1.886
 8610WAT     H126072   3.767   7.177   1.930
 8610WAT     H226073   3.708   7.236   1.790
 8611WAT      O26074   4.331   9.499   4.004
 8611WAT     H126075   4.293   9.482   3.913
 8611WAT     H226076   4.353   9.596   4.013
 8612WAT      O26077   3.546   4.680   6.959
 8612WAT     H126078   3.543   4.675   6.859
 8612WAT     H226079   3.457   4.652   6.996
 8613WAT      O26080   6.710   4.738   6.699
 8613WAT     H126081   6.730   4.737   6.797
 8613WAT     H226082   6.708   4.833   6.666
 8614WAT      O26083   7.027   7.995   7.268
 8614WAT     H126084   7.126   8.010   7.258
 8614WAT     H226085   7.008   7.897   7.268
 8615WAT      O26086   9.249   9.593   7.910
 8615WAT     H126087   9.194   9.556   7.985
 8615WAT     H226088   9.310   9.663   7.946
 8616WAT      O26089   2.624   6.125   6.269
 8616WAT     H126090   2.607   6.156   6.175
 8616WAT     H226091   2.659   6.032   6.267
 8617WAT      O26092   1.293   7.398   9.743
 8617WAT     H126093   1.205   7.440   9.767
 8617WAT     H226094   1.318   7.330   9.812
 8618WAT      O26095   8.116   1.597   8.824
 8618WAT     H126096   8.102   1.518   8.884
 8618WAT     H226097   8.166   1.567   8.742
 8619WAT      O26098   4.383   3.839   0.492
 8619WAT     H126099   4.411   3.930   0.462
 8619WAT     H226100   4.429   3.816   0.578
 8620WAT      O26101   2.845   6.448   2.697
 8620WAT     H126102   2.815   6.388   2.771
 8620WAT     H226103   2.906   6.518   2.733
 8621WAT      O26104   1.122   1.314   6.308
 8621WAT     H126105   1.188   1.364   6.364
 8621WAT     H226106   1.148   1.217   6.305
 8622WAT      O26107   2.691   9.718   2.532
 8622WAT     H126108   2.618   9.700   2.598
 8622WAT     H226109   2.683   9.654   2.455
 8623WAT      O26110   0.602   2.372   1.547
 8623WAT     H126111   0.644   2.297   1.496
 8623WAT     H226112   0.503   2.373   1.531
 8624WAT      O26113   3.778   4.419   6.525
 8624WAT     H126114   3.752   4.435   6.430
 8624WAT     H226115   3.866   4.373   6.528
 8625WAT      O26116   1.272   8.313   8.313
 8625WAT     H126117   1.352   8.259   8.340
 8625WAT     H226118   1.302   8.394   8.262
 8626WAT      O26119   7.327   6.110   2.190
 8626WAT     H126120   7.289   6.110   2.098
 8626WAT     H226121   7.426   6.101   2.186
 8627WAT      O26122   6.164   8.502   4.272
 8627WAT     H126123   6.157   8.535   4.177
 8627WAT     H226124   6.195   8.577   4.331
 8628WAT      O26125   3.737   2.353   1.248
 8628WAT     H126126   3.832   2.354   1.216
 8628WAT     H226127   3.731   2.403   1.334
 8629WAT      O26128   2.613   2.750   7.803
 8629WAT     H126129   2.674   2.759   7.882
 8629WAT     H226130   2.657   2.790   7.722
 8630WAT      O26131   9.403   7.052   2.540
 8630WAT     H126132   9.500   7.040   2.562
 8630WAT     H226133   9.347   7.007   2.610
 8631WAT      O26134   1.706   4.837   2.531
 8631WAT     H126135   1.799   4.820   2.499
 8631WAT     H226136   1.646   4.765   2.498
 8632WAT      O26137   2.984   6.729   9.252
 8632WAT     H126138   3.033   6.790   9.190
 8632WAT     H226139   2.888   6.757   9.257
 8633WAT      O26140   8.889   2.696   9.682
 8633WAT     H126141   8.810   2.641   9.653
 8633WAT     H226142   8.914   2.760   9.610
 8634WAT      O26143   6.779   1.512   0.180
 8634WAT     H126144   6.794   1.482   0.274
 8634WAT     H226145   6.764   1.432   0.121
 8635WAT      O26146   2.616   8.507   0.886
 8635WAT     H126147   2.557   8.442   0.934
 8635WAT     H226148   2.624   8.591   0.940
 8636WAT      O26149   3.680   5.233   3.560
 8636WAT     H126150   3.738   5.248   3.640
 8636WAT     H226151   3.738   5.210   3.481
 8637WAT      O26152   9.663   6.902   8.472
 8637WAT     H126153   9.729   6.907   8.397
 8637WAT     H226154   9.636   6.806   8.485
 8638WAT      O26155   6.721   0.859   6.475
 8638WAT     H126156   6.738   0.761   6.466
 8638WAT     H226157   6.757   0.907   6.395
 8639WAT      O26158   4.688   3.402   0.316
 8639WAT     H126159   4.718   3.353   0.398
 8639WAT     H226160   4.743   3.485   0.305
 8640WAT      O26161   9.597   3.479   9.268
 8640WAT     H126162   9.538   3.511   9.342
 8640WAT     H226163   9.543   3.463   9.186
 8641WAT      O26164   9.536   9.406   1.850
 8641WAT     H126165   9.586   9.469   1.908
 8641WAT     H226166   9.581   9.401   1.760
 8642WAT      O26167   1.991   5.353   1.215
 8642WAT     H126168   1.956   5.428   1.270
 8642WAT     H226169   2.015   5.387   1.123
 8643WAT      O26170   9.725   4.780   4.164
 8643WAT     H126171   9.790   4.798   4.089
 8643WAT     H226172   9.776   4.760   4.247
 8644WAT      O26173   8.403   0.578   2.307
 8644WAT     H126174   8.447   0.569   2.397
 8644WAT     H226175   8.447   0.652   2.257
 8645WAT      O26176   2.280   4.645   4.798
 8645WAT     H126177   2.239   4.565   4.754
 8645WAT     H226178   2.379   4.638   4.794
 8646WAT      O26179   5.817   2.055   3.125
 8646WAT     H126180   5.770   2.141   3.144
 8646WAT     H226181   5.754   1.991   3.082
 8647WAT      O26182   9.691   0.687   6.371
 8647WAT     H126183   9.658   0.664   6.462
 8647WAT     H226184   9.726   0.604   6.327
 8648WAT      O26185   7.494   5.184   0.433
 8648WAT     H126186   7.542   5.130   0.502
 8648WAT     H226187   7.416   5.132   0.399
 8649WAT      O26188   5.763   8.994   4.124
 8649WAT     H126189   5.824   9.001   4.203
 8649WAT     H226190   5.676   8.954   4.152
 8650WAT      O26191   9.801   0.561   1.426
 8650WAT     H126192   9.717   0.585   1.378
 8650WAT     H226193   9.840   0.478   1.386
 8651WAT      O26194   0.158   2.095   3.896
 8651WAT     H126195   0.105   2.117   3.978
 8651WAT     H226196   0.096   2.089   3.818
 8652WAT      O26197   2.366   9.065   4.570
 8652WAT     H126198   2.396   9.033   4.481
 8652WAT     H226199   2.336   8.987   4.625
 8653WAT      O26200   4.763   2.247   8.499
 8653WAT     H126201   4.814   2.308   8.559
 8653WAT     H226202   4.728   2.170   8.551
 8654WAT      O26203   6.859   7.541   0.041
 8654WAT     H126204   6.808   7.500  -0.035
 8654WAT     H226205   6.836   7.638   0.047
 8655WAT      O26206   3.674   8.998   9.545
 8655WAT     H126207   3.593   9.057   9.540
 8655WAT     H226208   3.688   8.967   9.639
 8656WAT      O26209   3.373   6.780   5.952
 8656WAT     H126210   3.421   6.771   5.864
 8656WAT     H226211   3.429   6.836   6.014
 8657WAT      O26212   3.784   4.002   9.669
 8657WAT     H126213   3.689   3.975   9.655
 8657WAT     H226214   3.796   4.034   9.763
 8658WAT      O26215   8.071   0.383   0.446
 8658WAT     H126216   8.086   0.470   0.400
 8658WAT     H226217   8.070   0.309   0.379
 8659WAT      O26218   8.944   3.156   6.060
 8659WAT     H126219   8.845   3.144   6.058
 8659WAT     H226220   8.965   3.253   6.049
 8660WAT      O26221   8.788   0.297   0.209
 8660WAT     H126222   8.745   0.298   0.299
 8660WAT     H226223   8.723   0.264   0.140
 8661WAT      O26224   1.602   5.918   1.614
 8661WAT     H126225   1.686   5.911   1.669
 8661WAT     H226226   1.568   5.826   1.594
 8662WAT      O26227   2.880   4.769   0.765
 8662WAT     H126228   2.803   4.708   0.745
 8662WAT     H226229   2.878   4.847   0.702
 8663WAT      O26230   5.312   1.566   5.222
 8663WAT     H126231   5.344   1.499   5.289
 8663WAT     H226232   5.213   1.557   5.211
 8664WAT      O26233   8.549   6.726   1.723
 8664WAT     H126234   8.601   6.799   1.679
 8664WAT     H226235   8.516   6.662   1.654
 8665WAT      O26236   2.914   7.621   4.526
 8665WAT     H126237   2.818   7.623   4.554
 8665WAT     H226238   2.943   7.712   4.500
 8666WAT      O26239   3.179   2.690   5.870
 8666WAT     H126240   3.120   2.734   5.939
 8666WAT     H226241   3.156   2.593   5.864
 8667WAT      O26242   7.290   8.964   3.935
 8667WAT     H126243   7.209   9.022   3.942
 8667WAT     H226244   7.265   8.878   3.889
 8668WAT      O26245   2.261   7.591   3.774
 8668WAT     H126246   2.358   7.613   3.772
 8668WAT     H226247   2.249   7.492   3.783
 8669WAT      O26248   8.067   4.920   0.650
 8669WAT     H126249   8.054   5.018   0.663
 8669WAT     H226250   8.015   4.890   0.569
 8670WAT      O26251   9.339   0.232   7.526
 8670WAT     H126252   9.289   0.228   7.612
 8670WAT     H226253   9.274   0.226   7.450
 8671WAT      O26254   3.309   4.985   8.832
 8671WAT     H126255   3.351   5.050   8.896
 8671WAT     H226256   3.276   4.905   8.882
 8672WAT      O26257   5.036   8.333   6.727
 8672WAT     H126258   4.943   8.303   6.706
 8672WAT     H226259   5.098   8.304   6.654
 8673WAT      O26260   9.620   9.532   3.455
 8673WAT     H126261   9.699   9.553   3.512
 8673WAT     H226262   9.633   9.570   3.364
 8674WAT      O26263   8.708   6.739   7.865
 8674WAT     H126264   8.805   6.761   7.868
 8674WAT     H226265   8.654   6.819   7.892
 8675WAT      O26266   1.233   5.177   3.241
 8675WAT     H126267   1.242   5.100   3.177
 8675WAT     H226268   1.282   5.256   3.206
 8676WAT      O26269   9.322   8.291   6.469
 8676WAT     H126270   9.247   8.323   6.412
 8676WAT     H226271   9.362   8.208   6.430
 8677WAT      O26272   0.781   2.754   1.972
 8677WAT     H126273   0.738   2.684   2.028
 8677WAT     H226274   0.775   2.843   2.018
 8678WAT      O26275   2.664   8.138   4.045
 8678WAT     H126276   2.573   8.097   4.049
 8678WAT     H226277   2.732   8.067   4.025
 8679WAT      O26278   0.390   0.017   4.381
 8679WAT     H126279   0.366  -0.035   4.463
 8679WAT     H226280   0.487   0.005   4.361
 8680WAT      O26281   7.983   9.591   6.249
 8680WAT     H126282   7.986   9.641   6.162
 8680WAT     H226283   7.891   9.598   6.287
 8681WAT      O26284   5.404   8.891   9.000
 8681WAT     H126285   5.436   8.797   8.998
 8681WAT     H226286   5.389   8.923   8.907
 8682WAT      O26287   4.442   1.385   3.731
 8682WAT     H126288   4.527   1.423   3.695
 8682WAT     H226289   4.461   1.342   3.820
 8683WAT      O26290   9.824   4.202   2.087
 8683WAT     H126291   9.751   4.250   2.038
 8683WAT     H226292   9.832   4.241   2.179
 8684WAT      O26293   4.797   0.617   6.632
 8684WAT     H126294   4.893   0.599   6.655
 8684WAT     H226295   4.739   0.552   6.681
 8685WAT      O26296   8.265   1.445   4.524
 8685WAT     H126297   8.330   1.421   4.596
 8685WAT     H226298   8.309   1.437   4.435
 8686WAT      O26299   2.984   5.381   1.348
 8686WAT     H126300   2.932   5.420   1.423
 8686WAT     H226301   2.962   5.285   1.338
 8687WAT      O26302   3.304   3.072   2.937
 8687WAT     H126303   3.338   3.000   2.876
 8687WAT     H226304   3.346   3.062   3.027
 8688WAT      O26305   4.351   9.137   2.113
 8688WAT     H126306   4.306   9.112   2.199
 8688WAT     H226307   4.330   9.069   2.044
 8689WAT      O26308   4.885   3.843   8.768
 8689WAT     H126309   4.983   3.847   8.789
 8689WAT     H226310   4.832   3.864   8.851
 8690WAT      O26311   1.238   0.544   3.053
 8690WAT     H126312   1.168   0.508   3.115
 8690WAT     H226313   1.199   0.615   2.996
 8691WAT      O26314   4.151   5.914   6.163
 8691WAT     H126315   4.120   6.009   6.159
 8691WAT     H226316   4.182   5.893   6.256
 8692WAT      O26317   9.347   5.378   6.170
 8692WAT     H126318   9.330   5.362   6.073
 8692WAT     H226319   9.320   5.297   6.222
 8693WAT      O26320   8.896   8.941   8.533
 8693WAT     H126321   8.901   8.883   8.614
 8693WAT     H226322   8.899   8.885   8.451
 8694WAT      O26323   7.275   7.757   1.685
 8694WAT     H126324   7.261   7.711   1.598
 8694WAT     H226325   7.187   7.787   1.722
 8695WAT      O26326   0.961   9.081   0.301
 8695WAT     H126327   1.001   9.145   0.236
 8695WAT     H226328   0.987   9.109   0.394
 8696WAT      O26329   4.897   6.400   3.361
 8696WAT     H126330   4.971   6.410   3.427
 8696WAT     H226331   4.825   6.467   3.380
 8697WAT      O26332   3.472   8.734   6.890
 8697WAT     H126333   3.440   8.823   6.858
 8697WAT     H226334   3.425   8.710   6.975
 8698WAT      O26335   5.061   1.121   9.453
 8698WAT     H126336   5.068   1.033   9.407
 8698WAT     H226337   4.990   1.176   9.408
 8699WAT      O26338   4.037   0.594   7.454
 8699WAT     H126339   3.972   0.669   7.447
 8699WAT     H226340   3.990   0.512   7.489
 8700WAT      O26341   3.152   7.842   5.195
 8700WAT     H126342   3.243   7.802   5.183
 8700WAT     H226343   3.144   7.877   5.288
 8701WAT      O26344   5.398   0.151   5.216
 8701WAT     H126345   5.440   0.241   5.207
 8701WAT     H226346   5.465   0.081   5.190
 8702WAT      O26347   6.413   5.816   1.214
 8702WAT     H126348   6.457   5.902   1.187
 8702WAT     H226349   6.412   5.809   1.313
 8703WAT      O26350   6.209   0.924   7.914
 8703WAT     H126351   6.145   0.868   7.863
 8703WAT     H226352   6.229   0.882   8.002
 8704WAT      O26353   3.541   4.115   7.002
 8704WAT     H126354   3.498   4.042   7.055
 8704WAT     H226355   3.563   4.191   7.063
 8705WAT      O26356   3.424   4.492   9.222
 8705WAT     H126357   3.491   4.503   9.149
 8705WAT     H226358   3.349   4.434   9.190
 8706WAT      O26359   4.757   6.035   7.113
 8706WAT     H126360   4.703   5.964   7.159
 8706WAT     H226361   4.848   6.000   7.093
 8707WAT      O26362   9.649   4.255   6.754
 8707WAT     H126363   9.703   4.172   6.770
 8707WAT     H226364   9.633   4.266   6.656
 8708WAT      O26365   3.194   3.031   9.563
 8708WAT     H126366   3.122   3.082   9.516
 8708WAT     H226367   3.246   3.093   9.622
 8709WAT      O26368   3.217   3.384   8.475
 8709WAT     H126369   3.299   3.433   8.505
 8709WAT     H226370   3.136   3.431   8.509
 8710WAT      O26371   1.004   4.403   6.532
 8710WAT     H126372   1.010   4.468   6.456
 8710WAT     H226373   0.997   4.310   6.496
 8711WAT      O26374   3.899   1.254   4.392
 8711WAT     H126375   3.940   1.175   4.346
 8711WAT     H226376   3.842   1.303   4.327
 8712WAT      O26377   1.325   1.303   1.408
 8712WAT     H126378   1.283   1.393   1.399
 8712WAT     H226379   1.356   1.289   1.502
 8713WAT      O26380   4.795   2.830   0.833
 8713WAT     H126381   4.720   2.873   0.783
 8713WAT     H226382   4.760   2.788   0.917
 8714WAT      O26383   1.216   5.015   9.660
 8714WAT     H126384   1.300   5.068   9.668
 8714WAT     H226385   1.213   4.970   9.571
 8715WAT      O26386   4.985   9.776   8.630
 8715WAT     H126387   4.961   9.845   8.699
 8715WAT     H226388   5.001   9.821   8.542
 8716WAT      O26389   9.049   9.094   3.137
 8716WAT     H126390   8.998   9.083   3.222
 8716WAT     H226391   9.131   9.150   3.153
 8717WAT      O26392   0.410   1.055   6.048
 8717WAT     H126393   0.334   1.106   6.009
 8717WAT     H226394   0.419   1.078   6.145
 8718WAT      O26395   8.763   9.499   7.208
 8718WAT     H126396   8.757   9.582   7.263
 8718WAT     H226397   8.730   9.517   7.116
 8719WAT      O26398   4.218   6.467   8.877
 8719WAT     H126399   4.310   6.427   8.868
 8719WAT     H226400   4.151   6.394   8.890
 8720WAT      O26401   8.158   6.382   2.567
 8720WAT     H126402   8.092   6.457   2.565
 8720WAT     H226403   8.237   6.408   2.623
 8721WAT      O26404   3.427   1.432   8.514
 8721WAT     H126405   3.389   1.397   8.428
 8721WAT     H226406   3.525   1.414   8.517
 8722WAT      O26407   1.742   0.034   9.386
 8722WAT     H126408   1.766   0.098   9.459
 8722WAT     H226409   1.808   0.042   9.311
 8723WAT      O26410   6.027   8.111   6.829
 8723WAT     H126411   6.035   8.057   6.745
 8723WAT     H226412   6.075   8.198   6.817
 8724WAT      O26413   6.381   5.310   2.285
 8724WAT     H126414   6.440   5.375   2.238
 8724WAT     H226415   6.305   5.359   2.328
 8725WAT      O26416   8.946   1.497   7.922
 8725WAT     H126417   9.041   1.482   7.949
 8725WAT     H226418   8.911   1.416   7.875
 8726WAT      O26419   2.634   5.199   7.910
 8726WAT     H126420   2.702   5.155   7.968
 8726WAT     H226421   2.660   5.294   7.894
 8727WAT      O26422   7.409   5.304   3.872
 8727WAT     H126423   7.316   5.337   3.856
 8727WAT     H226424   7.467   5.329   3.794
 8728WAT      O26425   4.641   6.079   1.483
 8728WAT     H126426   4.738   6.060   1.465
 8728WAT     H226427   4.624   6.073   1.581
 8729WAT      O26428   6.022   8.047   8.944
 8729WAT     H126429   5.928   8.076   8.964
 8729WAT     H226430   6.086   8.114   8.981
 8730WAT      O26431   2.496   7.472   8.604
 8730WAT     H126432   2.587   7.432   8.594
 8730WAT     H226433   2.498   7.568   8.576
 8731WAT      O26434   0.670   8.744   7.000
 8731WAT     H126435   0.646   8.654   6.963
 8731WAT     H226436   0.747   8.735   7.063
 8732WAT      O26437   4.765   5.566   2.077
 8732WAT     H126438   4.798   5.575   1.983
 8732WAT     H226439   4.666   5.578   2.079
 8733WAT      O26440   3.895   0.264   3.330
 8733WAT     H126441   3.932   0.306   3.248
 8733WAT     H226442   3.798   0.245   3.317
 8734WAT      O26443   8.400   2.282   0.285
 8734WAT     H126444   8.364   2.375   0.293
 8734WAT     H226445   8.472   2.268   0.354
 8735WAT      O26446   5.114   9.840   3.842
 8735WAT     H126447   5.070   9.889   3.766
 8735WAT     H226448   5.213   9.844   3.831
 8736WAT      O26449   6.586   7.341   4.916
 8736WAT     H126450   6.535   7.265   4.955
 8736WAT     H226451   6.565   7.425   4.967
 8737WAT      O26452   7.383   1.741   1.685
 8737WAT     H126453   7.457   1.769   1.624
 8737WAT     H226454   7.336   1.821   1.720
 8738WAT      O26455   2.189   2.601   5.708
 8738WAT     H126456   2.220   2.604   5.803
 8738WAT     H226457   2.117   2.668   5.693
 8739WAT      O26458   1.728   0.668   0.953
 8739WAT     H126459   1.784   0.750   0.938
 8739WAT     H226460   1.787   0.591   0.974
 8740WAT      O26461   1.046   3.961   4.100
 8740WAT     H126462   1.052   3.867   4.068
 8740WAT     H226463   0.983   3.967   4.177
 8741WAT      O26464   0.887   9.841   0.358
 8741WAT     H126465   0.839   9.841   0.270
 8741WAT     H226466   0.953   9.766   0.359
 8742WAT      O26467   7.783   6.272   7.545
 8742WAT     H126468   7.733   6.254   7.460
 8742WAT     H226469   7.721   6.317   7.610
 8743WAT      O26470   0.545   9.782   3.339
 8743WAT     H126471   0.612   9.838   3.291
 8743WAT     H226472   0.493   9.728   3.273
 8744WAT      O26473   8.620   0.402   2.825
 8744WAT     H126474   8.559   0.476   2.852
 8744WAT     H226475   8.715   0.429   2.844
 8745WAT      O26476   1.781   8.547   6.172
 8745WAT     H126477   1.773   8.618   6.241
 8745WAT     H226478   1.873   8.508   6.175
 8746WAT      O26479   3.634   6.757   6.746
 8746WAT     H126480   3.640   6.776   6.648
 8746WAT     H226481   3.714   6.797   6.792
 8747WAT      O26482   1.333   9.039   2.873
 8747WAT     H126483   1.322   8.943   2.849
 8747WAT     H226484   1.400   9.047   2.947
 8748WAT      O26485   6.194   8.171   5.433
 8748WAT     H126486   6.223   8.096   5.373
 8748WAT     H226487   6.094   8.179   5.431
 8749WAT      O26488   9.443   9.660   4.193
 8749WAT     H126489   9.461   9.752   4.157
 8749WAT     H226490   9.530   9.612   4.205
 8750WAT      O26491   1.444   0.405   8.703
 8750WAT     H126492   1.453   0.349   8.785
 8750WAT     H226493   1.360   0.380   8.655
 8751WAT      O26494   0.304   5.233   4.729
 8751WAT     H126495   0.212   5.211   4.698
 8751WAT     H226496   0.364   5.155   4.715
 8752WAT      O26497   1.263   6.362   9.846
 8752WAT     H126498   1.274   6.460   9.830
 8752WAT     H226499   1.288   6.341   9.941
 8753WAT      O26500   5.869   1.259   1.441
 8753WAT     H126501   5.770   1.256   1.454
 8753WAT     H226502   5.907   1.338   1.489
 8754WAT      O26503   4.107   6.024   0.210
 8754WAT     H126504   4.125   5.940   0.158
 8754WAT     H226505   4.022   6.065   0.178
 8755WAT      O26506   4.619   2.104   6.819
 8755WAT     H126507   4.612   2.046   6.738
 8755WAT     H226508   4.552   2.178   6.812
 8756WAT      O26509   6.940   2.840   4.011
 8756WAT     H126510   6.985   2.920   4.050
 8756WAT     H226511   6.983   2.816   3.924
 8757WAT      O26512   2.168   1.481   1.116
 8757WAT     H126513   2.137   1.569   1.152
 8757WAT     H226514   2.092   1.416   1.116
 8758WAT      O26515   3.188   7.122   5.368
 8758WAT     H126516   3.118   7.050   5.373
 8758WAT     H226517   3.217   7.147   5.460
 8759WAT      O26518   7.274   6.429   2.025
 8759WAT     H126519   7.274   6.377   2.110
 8759WAT     H226520   7.180   6.458   2.004
 8760WAT      O26521   0.560   9.161   7.913
 8760WAT     H126522   0.467   9.125   7.913
 8760WAT     H226523   0.561   9.252   7.955
 8761WAT      O26524   1.265   8.071   7.721
 8761WAT     H126525   1.214   8.124   7.653
 8761WAT     H226526   1.363   8.072   7.698
 8762WAT      O26527   5.928   0.524   1.884
 8762WAT     H126528   6.008   0.468   1.863
 8762WAT     H226529   5.853   0.499   1.823
 8763WAT      O26530   7.243   5.686   4.505
 8763WAT     H126531   7.231   5.784   4.489
 8763WAT     H226532   7.170   5.635   4.459
 8764WAT      O26533   2.440   2.454   6.581
 8764WAT     H126534   2.483   2.456   6.671
 8764WAT     H226535   2.479   2.380   6.526
 8765WAT      O26536   1.836   2.786   5.898
 8765WAT     H126537   1.743   2.809   5.869
 8765WAT     H226538   1.901   2.823   5.832
 8766WAT      O26539   9.574   6.959   6.063
 8766WAT     H126540   9.617   7.037   6.110
 8766WAT     H226541   9.486   6.939   6.105
 8767WAT      O26542   2.506   2.494   5.755
 8767WAT     H126543   2.562   2.543   5.822
 8767WAT     H226544   2.417   2.537   5.747
 8768WAT      O26545   5.588   4.548   6.987
 8768WAT     H126546   5.655   4.536   6.913
 8768WAT     H226547   5.589   4.643   7.019
 8769WAT      O26548   1.824   7.953   3.591
 8769WAT     H126549   1.880   7.894   3.648
 8769WAT     H226550   1.821   7.917   3.498
 8770WAT      O26551   7.157   4.778   3.889
 8770WAT     H126552   7.202   4.743   3.970
 8770WAT     H226553   7.222   4.830   3.833
 8771WAT      O26554   1.806   8.993   3.457
 8771WAT     H126555   1.771   8.985   3.550
 8771WAT     H226556   1.807   9.089   3.430
 8772WAT      O26557   3.356   9.231   4.431
 8772WAT     H126558   3.434   9.179   4.465
 8772WAT     H226559   3.311   9.278   4.508
 8773WAT      O26560   7.053   8.252   7.810
 8773WAT     H126561   6.972   8.256   7.751
 8773WAT     H226562   7.135   8.261   7.754
 8774WAT      O26563   4.190   5.060   5.511
 8774WAT     H126564   4.152   4.969   5.490
 8774WAT     H226565   4.125   5.110   5.569
 8775WAT      O26566   1.542   0.228   3.618
 8775WAT     H126567   1.579   0.163   3.552
 8775WAT     H226568   1.546   0.320   3.581
 8776WAT      O26569   9.366   9.719   7.560
 8776WAT     H126570   9.366   9.798   7.621
 8776WAT     H226571   9.274   9.708   7.520
 8777WAT      O26572   8.401   5.547   4.069
 8777WAT     H126573   8.364   5.455   4.084
 8777WAT     H226574   8.330   5.615   4.090
 8778WAT      O26575   5.739   3.315   8.207
 8778WAT     H126576   5.701   3.390   8.262
 8778WAT     H226577   5.697   3.229   8.236
 8779WAT      O26578   5.867   6.159   6.775
 8779WAT     H126579   5.829   6.119   6.692
 8779WAT     H226580   5.962   6.184   6.759
 8780WAT      O26581   1.790   2.491   1.876
 8780WAT     H126582   1.795   2.513   1.973
 8780WAT     H226583   1.879   2.456   1.845
 8781WAT      O26584   2.310   0.268   6.300
 8781WAT     H126585   2.271   0.253   6.391
 8781WAT     H226586   2.377   0.196   6.280
 8782WAT      O26587   2.990   1.964   0.698
 8782WAT     H126588   2.936   2.048   0.698
 8782WAT     H226589   3.088   1.987   0.694
 8783WAT      O26590   7.216   2.921   9.870
 8783WAT     H126591   7.295   2.908   9.811
 8783WAT     H226592   7.237   2.991   9.938
 8784WAT      O26593   4.774   9.260   9.066
 8784WAT     H126594   4.730   9.189   9.011
 8784WAT     H226595   4.772   9.234   9.162
 8785WAT      O26596   8.488   0.225   7.999
 8785WAT     H126597   8.564   0.196   8.058
 8785WAT     H226598   8.402   0.189   8.035
 8786WAT      O26599   0.108   1.317   4.509
 8786WAT     H126600   0.117   1.288   4.605
 8786WAT     H226601   0.053   1.250   4.460
 8787WAT      O26602   0.507   2.679   7.701
 8787WAT     H126603   0.465   2.725   7.779
 8787WAT     H226604   0.480   2.583   7.701
 8788WAT      O26605   3.876   5.287   9.482
 8788WAT     H126606   3.811   5.260   9.553
 8788WAT     H226607   3.958   5.231   9.489
 8789WAT      O26608   4.854   8.525   8.189
 8789WAT     H126609   4.947   8.547   8.161
 8789WAT     H226610   4.853   8.498   8.285
 8790WAT      O26611   9.311   5.200   6.673
 8790WAT     H126612   9.233   5.238   6.722
 8790WAT     H226613   9.339   5.262   6.600
 8791WAT      O26614   9.727   0.554   7.838
 8791WAT     H126615   9.700   0.534   7.744
 8791WAT     H226616   9.659   0.614   7.880
 8792WAT      O26617   9.753   7.493   4.813
 8792WAT     H126618   9.724   7.546   4.893
 8792WAT     H226619   9.751   7.552   4.732
 8793WAT      O26620   1.777   7.529   7.743
 8793WAT     H126621   1.841   7.532   7.667
 8793WAT     H226622   1.773   7.436   7.780
 8794WAT      O26623   0.209   8.650   2.181
 8794WAT     H126624   0.291   8.606   2.145
 8794WAT     H226625   0.222   8.749   2.182
 8795WAT      O26626   3.523   7.229   2.510
 8795WAT     H126627   3.456   7.290   2.468
 8795WAT     H226628   3.609   7.279   2.524
 8796WAT      O26629   5.369   8.029   3.744
 8796WAT     H126630   5.344   8.123   3.722
 8796WAT     H226631   5.420   7.989   3.668
 8797WAT      O26632   6.611   4.369   2.788
 8797WAT     H126633   6.556   4.315   2.724
 8797WAT     H226634   6.703   4.330   2.794
 8798WAT      O26635   9.835   5.984   4.444
 8798WAT     H126636   9.825   6.047   4.367
 8798WAT     H226637   9.930   5.988   4.478
 8799WAT      O26638   8.609   3.107   7.927
 8799WAT     H126639   8.639   3.142   8.016
 8799WAT     H226640   8.551   3.175   7.882
 8800WAT      O26641   7.901   2.301   3.052
 8800WAT     H126642   7.923   2.397   3.035
 8800WAT     H226643   7.873   2.258   2.966
 8801WAT      O26644   9.663   9.013   7.886
 8801WAT     H126645   9.580   8.958   7.884
 8801WAT     H226646   9.737   8.959   7.928
 8802WAT      O26647   8.352   1.661   4.214
 8802WAT     H126648   8.416   1.621   4.148
 8802WAT     H226649   8.318   1.590   4.275
 8803WAT      O26650   5.177   9.028   0.034
 8803WAT     H126651   5.274   9.040   0.013
 8803WAT     H226652   5.158   8.931   0.050
 8804WAT      O26653   4.821   1.076   6.744
 8804WAT     H126654   4.916   1.100   6.724
 8804WAT     H226655   4.785   1.017   6.672
 8805WAT      O26656   7.628   2.360   7.049
 8805WAT     H126657   7.604   2.308   7.131
 8805WAT     H226658   7.727   2.379   7.049
 8806WAT      O26659   9.025   6.186   6.456
 8806WAT     H126660   9.097   6.254   6.469
 8806WAT     H226661   8.989   6.158   6.546
 8807WAT      O26662   9.693   3.322   9.520
 8807WAT     H126663   9.648   3.374   9.448
 8807WAT     H226664   9.673   3.224   9.509
 8808WAT      O26665   4.923   5.133   1.005
 8808WAT     H126666   4.944   5.063   0.936
 8808WAT     H226667   4.901   5.088   1.092
 8809WAT      O26668   9.162   5.989   3.107
 8809WAT     H126669   9.227   6.030   3.171
 8809WAT     H226670   9.133   5.900   3.141
 8810WAT      O26671   1.269   8.618   8.204
 8810WAT     H126672   1.192   8.617   8.268
 8810WAT     H226673   1.278   8.709   8.163
 8811WAT      O26674   0.086   7.067   9.454
 8811WAT     H126675   0.049   6.999   9.391
 8811WAT     H226676   0.021   7.083   9.528
 8812WAT      O26677   7.066   0.796   3.521
 8812WAT     H126678   7.110   0.793   3.611
 8812WAT     H226679   7.125   0.843   3.456
 8813WAT      O26680   4.537   2.359   8.351
 8813WAT     H126681   4.612   2.302   8.384
 8813WAT     H226682   4.574   2.447   8.320
 8814WAT      O26683   5.174   5.181   0.765
 8814WAT     H126684   5.093   5.124   0.776
 8814WAT     H226685   5.245   5.130   0.716
 8815WAT      O26686   4.150   2.630   8.218
 8815WAT     H126687   4.078   2.698   8.205
 8815WAT     H226688   4.173   2.622   8.315
 8816WAT      O26689   6.417   6.900   4.590
 8816WAT     H126690   6.494   6.941   4.639
 8816WAT     H226691   6.432   6.909   4.491
 8817WAT      O26692   4.860   6.248   8.851
 8817WAT     H126693   4.918   6.197   8.914
 8817WAT     H226694   4.912   6.270   8.768
 8818WAT      O26695   7.630   3.555   3.575
 8818WAT     H126696   7.690   3.490   3.530
 8818WAT     H226697   7.537   3.518   3.579
 8819WAT      O26698   5.486   7.953   6.276
 8819WAT     H126699   5.534   8.014   6.339
 8819WAT     H226700   5.491   7.991   6.183
 8820WAT      O26701   9.135   2.465   7.694
 8820WAT     H126702   9.205   2.499   7.756
 8820WAT     H226703   9.070   2.539   7.674
 8821WAT      O26704   7.570   3.153   3.267
 8821WAT     H126705   7.652   3.193   3.227
 8821WAT     H226706   7.577   3.053   3.266
 8822WAT      O26707   5.794   6.809   1.551
 8822WAT     H126708   5.703   6.806   1.593
 8822WAT     H226709   5.862   6.830   1.621
 8823WAT      O26710   5.877   1.763   1.972
 8823WAT     H126711   5.859   1.777   2.069
 8823WAT     H226712   5.959   1.706   1.962
 8824WAT      O26713   9.544   2.948   9.427
 8824WAT     H126714   9.629   2.897   9.420
 8824WAT     H226715   9.527   2.971   9.523
 8825WAT      O26716   2.638   7.659   1.227
 8825WAT     H126717   2.679   7.689   1.141
 8825WAT     H226718   2.710   7.648   1.296
 8826WAT      O26719   3.671   6.153   8.247
 8826WAT     H126720   3.694   6.058   8.267
 8826WAT     H226721   3.752   6.210   8.261
 8827WAT      O26722   3.830   6.733   1.611
 8827WAT     H126723   3.898   6.801   1.584
 8827WAT     H226724   3.748   6.743   1.553
 8828WAT      O26725   1.785   6.766   8.494
 8828WAT     H126726   1.800   6.750   8.591
 8828WAT     H226727   1.796   6.863   8.473
 8829WAT      O26728   3.534   8.804   8.072
 8829WAT     H126729   3.607   8.771   8.133
 8829WAT     H226730   3.450   8.754   8.091
 8830WAT      O26731   8.951   2.738   0.068
 8830WAT     H126732   8.953   2.838   0.068
 8830WAT     H226733   8.945   2.704  -0.025
 8831WAT      O26734   3.680   3.107   5.913
 8831WAT     H126735   3.769   3.123   5.872
 8831WAT     H226736   3.609   3.121   5.844
 8832WAT      O26737   4.274   4.226   7.671
 8832WAT     H126738   4.213   4.287   7.620
 8832WAT     H226739   4.248   4.131   7.654
 8833WAT      O26740   2.865   8.700   9.493
 8833WAT     H126741   2.959   8.667   9.501
 8833WAT     H226742   2.850   8.775   9.557
 8834WAT      O26743   7.722   2.395   5.280
 8834WAT     H126744   7.708   2.385   5.378
 8834WAT     H226745   7.715   2.491   5.254
 8835WAT      O26746   8.521   2.375   9.713
 8835WAT     H126747   8.576   2.338   9.787
 8835WAT     H226748   8.460   2.304   9.677
 8836WAT      O26749   4.024   9.806   5.559
 8836WAT     H126750   4.105   9.858   5.531
 8836WAT     H226751   3.960   9.868   5.605
 8837WAT      O26752   4.042   3.580   6.763
 8837WAT     H126753   4.086   3.617   6.680
 8837WAT     H226754   4.044   3.650   6.835
 8838WAT      O26755   2.244   3.987   0.484
 8838WAT     H126756   2.247   3.964   0.581
 8838WAT     H226757   2.330   4.030   0.456
 8839WAT      O26758   0.442   1.687   5.418
 8839WAT     H126759   0.375   1.677   5.345
 8839WAT     H226760   0.453   1.784   5.441
 8840WAT      O26761   1.366   6.984   4.288
 8840WAT     H126762   1.305   6.919   4.242
 8840WAT     H226763   1.312   7.042   4.350
 8841WAT      O26764   8.736   3.981   3.472
 8841WAT     H126765   8.673   3.972   3.549
 8841WAT     H226766   8.716   3.910   3.404
 8842WAT      O26767   7.973   1.812   0.041
 8842WAT     H126768   7.964   1.715   0.021
 8842WAT     H226769   8.069   1.837   0.041
 8843WAT      O26770   9.217   8.803   8.260
 8843WAT     H126771   9.247   8.777   8.351
 8843WAT     H226772   9.219   8.902   8.251
 8844WAT      O26773   3.356   6.437   9.740
 8844WAT     H126774   3.306   6.503   9.796
 8844WAT     H226775   3.424   6.485   9.685
 8845WAT      O26776   1.473   0.485   4.914
 8845WAT     H126777   1.461   0.578   4.878
 8845WAT     H226778   1.569   0.470   4.935
 8846WAT      O26779   1.655   5.381   7.311
 8846WAT     H126780   1.609   5.353   7.395
 8846WAT     H226781   1.744   5.421   7.333
 8847WAT      O26782   1.174   3.152   6.810
 8847WAT     H126783   1.077   3.147   6.837
 8847WAT     H226784   1.198   3.248   6.792
 8848WAT      O26785   3.564   5.557   1.587
 8848WAT     H126786   3.603   5.633   1.640
 8848WAT     H226787   3.487   5.590   1.533
 8849WAT      O26788   1.977   8.566   5.285
 8849WAT     H126789   1.955   8.488   5.342
 8849WAT     H226790   2.064   8.549   5.238
 8850WAT      O26791   2.987   4.886   2.416
 8850WAT     H126792   2.936   4.803   2.392
 8850WAT     H226793   3.084   4.864   2.425
 8851WAT      O26794   4.903   0.394   9.324
 8851WAT     H126795   4.917   0.491   9.343
 8851WAT     H226796   4.916   0.342   9.408
 8852WAT      O26797   2.985   4.047   4.565
 8852WAT     H126798   2.957   4.000   4.648
 8852WAT     H226799   3.069   4.099   4.583
 8853WAT      O26800   3.022   9.256   0.393
 8853WAT     H126801   3.109   9.305   0.388
 8853WAT     H226802   3.038   9.158   0.383
 8854WAT      O26803   2.568   6.648   2.818
 8854WAT     H126804   2.642   6.654   2.885
 8854WAT     H226805   2.567   6.557   2.777
 8855WAT      O26806   9.068   6.863   3.335
 8855WAT     H126807   9.025   6.941   3.381
 8855WAT     H226808   9.004   6.823   3.270
 8856WAT      O26809   3.132   7.742   3.663
 8856WAT     H126810   3.084   7.804   3.725
 8856WAT     H226811   3.069   7.709   3.593
 8857WAT      O26812   2.875   6.887   4.222
 8857WAT     H126813   2.862   6.966   4.163
 8857WAT     H226814   2.959   6.898   4.275
 8858WAT      O26815   3.907   7.138   2.462
 8858WAT     H126816   3.943   7.112   2.373
 8858WAT     H226817   3.824   7.085   2.481
 8859WAT      O26818   2.460   0.079   3.835
 8859WAT     H126819   2.559   0.089   3.841
 8859WAT     H226820   2.432   0.076   3.739
 8860WAT      O26821   2.632   3.651   6.468
 8860WAT     H126822   2.595   3.743   6.456
 8860WAT     H226823   2.600   3.613   6.555
 8861WAT      O26824   0.336   7.715   6.447
 8861WAT     H126825   0.240   7.688   6.435
 8861WAT     H226826   0.392   7.665   6.381
 8862WAT      O26827   2.358   0.667   6.957
 8862WAT     H126828   2.309   0.753   6.969
 8862WAT     H226829   2.385   0.631   7.046
 8863WAT      O26830   8.821   0.798   1.869
 8863WAT     H126831   8.890   0.777   1.800
 8863WAT     H226832   8.730   0.795   1.827
 8864WAT      O26833   7.691   4.520   1.320
 8864WAT     H126834   7.754   4.506   1.244
 8864WAT     H226835   7.623   4.589   1.296
 8865WAT      O26836   0.701   4.692   6.674
 8865WAT     H126837   0.766   4.624   6.708
 8865WAT     H226838   0.631   4.709   6.743
 8866WAT      O26839   7.767   8.808   0.467
 8866WAT     H126840   7.779   8.886   0.529
 8866WAT     H226841   7.724   8.733   0.515
 8867WAT      O26842   5.467   6.950   9.773
 8867WAT     H126843   5.557   6.955   9.817
 8867WAT     H226844   5.433   6.857   9.776
 8868WAT      O26845   9.559   4.511   0.405
 8868WAT     H126846   9.630   4.538   0.470
 8868WAT     H226847   9.598   4.505   0.314
 8869WAT      O26848   2.392   8.752   0.801
 8869WAT     H126849   2.353   8.669   0.762
 8869WAT     H226850   2.320   8.820   0.815
 8870WAT      O26851   3.491   2.066   5.746
 8870WAT     H126852   3.467   2.026   5.657
 8870WAT     H226853   3.425   2.035   5.815
 8871WAT      O26854   6.914   2.324   0.016
 8871WAT     H126855   6.887   2.406   0.065
 8871WAT     H226856   6.886   2.330  -0.080
 8872WAT      O26857   7.313   9.329   5.025
 8872WAT     H126858   7.374   9.394   4.980
 8872WAT     H226859   7.289   9.362   5.116
 8873WAT      O26860   9.357   4.312   9.102
 8873WAT     H126861   9.311   4.397   9.129
 8873WAT     H226862   9.359   4.249   9.180
 8874WAT      O26863   6.391   1.515   4.936
 8874WAT     H126864   6.432   1.424   4.932
 8874WAT     H226865   6.386   1.546   5.031
 8875WAT      O26866   4.339   4.597   7.631
 8875WAT     H126867   4.360   4.501   7.614
 8875WAT     H226868   4.242   4.613   7.615
 8876WAT      O26869   7.348   4.383   0.238
 8876WAT     H126870   7.335   4.290   0.273
 8876WAT     H226871   7.316   4.388   0.144
 8877WAT      O26872   4.435   4.236   2.108
 8877WAT     H126873   4.430   4.271   2.014
 8877WAT     H226874   4.343   4.225   2.145
 8878WAT      O26875   0.049   5.227   2.679
 8878WAT     H126876  -0.042   5.252   2.712
 8878WAT     H226877   0.044   5.206   2.581
 8879WAT      O26878   1.627   9.493   2.673
 8879WAT     H126879   1.597   9.562   2.738
 8879WAT     H226880   1.562   9.417   2.672
 8880WAT      O26881   1.840   8.065   4.105
 8880WAT     H126882   1.859   7.986   4.165
 8880WAT     H226883   1.775   8.038   4.035
 8881WAT      O26884   9.054   2.235   4.158
 8881WAT     H126885   8.957   2.258   4.152
 8881WAT     H226886   9.075   2.160   4.096
 8882WAT      O26887   2.604   9.181   9.521
 8882WAT     H126888   2.538   9.163   9.593
 8882WAT     H226889   2.556   9.201   9.435
 8883WAT      O26890   0.454   5.323   3.135
 8883WAT     H126891   0.489   5.416   3.148
 8883WAT     H226892   0.465   5.298   3.039
 8884WAT      O26893   4.681   3.847   5.742
 8884WAT     H126894   4.601   3.876   5.689
 8884WAT     H226895   4.659   3.847   5.839
 8885WAT      O26896   5.355   6.778   8.457
 8885WAT     H126897   5.275   6.768   8.397
 8885WAT     H226898   5.438   6.781   8.402
 8886WAT      O26899   7.168   9.739   3.645
 8886WAT     H126900   7.238   9.668   3.652
 8886WAT     H226901   7.187   9.797   3.566
 8887WAT      O26902   4.343   5.065   2.649
 8887WAT     H126903   4.342   5.135   2.578
 8887WAT     H226904   4.434   5.023   2.654
 8888WAT      O26905   3.792   8.868   2.491
 8888WAT     H126906   3.807   8.940   2.559
 8888WAT     H226907   3.806   8.779   2.533
 8889WAT      O26908   5.657   9.075   9.153
 8889WAT     H126909   5.603   9.117   9.227
 8889WAT     H226910   5.603   9.005   9.108
 8890WAT      O26911   2.024   7.039   5.476
 8890WAT     H126912   2.036   7.111   5.407
 8890WAT     H226913   1.932   7.045   5.515
 8891WAT      O26914   1.385   1.536   8.515
 8891WAT     H126915   1.314   1.499   8.574
 8891WAT     H226916   1.358   1.525   8.419
 8892WAT      O26917   5.321   1.223   4.597
 8892WAT     H126918   5.361   1.293   4.656
 8892WAT     H226919   5.386   1.198   4.525
 8893WAT      O26920   2.615   9.518   2.320
 8893WAT     H126921   2.526   9.500   2.278
 8893WAT     H226922   2.688   9.495   2.255
 8894WAT      O26923   4.323   2.952   6.128
 8894WAT     H126924   4.335   2.939   6.226
 8894WAT     H226925   4.256   3.023   6.112
 8895WAT      O26926   8.529   6.468   7.320
 8895WAT     H126927   8.511   6.371   7.334
 8895WAT     H226928   8.623   6.489   7.349
 8896WAT      O26929   3.947   5.687   5.789
 8896WAT     H126930   3.863   5.634   5.794
 8896WAT     H226931   3.990   5.690   5.880
 8897WAT      O26932   5.883   2.193   8.144
 8897WAT     H126933   5.899   2.159   8.237
 8897WAT     H226934   5.917   2.286   8.136
 8898WAT      O26935   8.356   3.533   4.842
 8898WAT     H126936   8.309   3.621   4.848
 8898WAT     H226937   8.318   3.470   4.909
 8899WAT      O26938   4.996   4.267   2.125
 8899WAT     H126939   4.925   4.330   2.094
 8899WAT     H226940   4.986   4.179   2.079
 8900WAT      O26941   2.964   6.025   3.233
 8900WAT     H126942   2.956   5.968   3.152
 8900WAT     H226943   2.896   5.998   3.300
 8901WAT      O26944   7.815   5.053   3.039
 8901WAT     H126945   7.892   5.019   3.093
 8901WAT     H226946   7.824   5.152   3.026
 8902WAT      O26947   1.598   3.729   3.902
 8902WAT     H126948   1.500   3.747   3.903
 8902WAT     H226949   1.648   3.815   3.891
 8903WAT      O26950   5.653   3.585   0.733
 8903WAT     H126951   5.690   3.588   0.826
 8903WAT     H226952   5.582   3.654   0.723
 8904WAT      O26953   6.146   1.867   0.416
 8904WAT     H126954   6.135   1.850   0.514
 8904WAT     H226955   6.089   1.803   0.365
 8905WAT      O26956   7.961   7.786   3.805
 8905WAT     H126957   7.905   7.811   3.884
 8905WAT     H226958   8.057   7.779   3.833
 8906WAT      O26959   9.153   6.268   5.254
 8906WAT     H126960   9.110   6.282   5.164
 8906WAT     H226961   9.118   6.336   5.318
 8907WAT      O26962   4.031   1.977   9.486
 8907WAT     H126963   4.068   1.886   9.502
 8907WAT     H226964   3.988   1.980   9.395
 8908WAT      O26965   2.963   3.860   9.598
 8908WAT     H126966   3.002   3.815   9.517
 8908WAT     H226967   2.995   3.955   9.602
 8909WAT      O26968   0.130   6.663   5.258
 8909WAT     H126969   0.167   6.595   5.195
 8909WAT     H226970   0.108   6.747   5.209
 8910WAT      O26971   7.881   2.572   0.720
 8910WAT     H126972   7.819   2.541   0.647
 8910WAT     H226973   7.961   2.616   0.678
 8911WAT      O26974   9.345   3.211   2.279
 8911WAT     H126975   9.325   3.116   2.303
 8911WAT     H226976   9.264   3.253   2.238
 8912WAT      O26977   4.289   6.623   7.917
 8912WAT     H126978   4.335   6.666   7.839
 8912WAT     H226979   4.353   6.614   7.993
 8913WAT      O26980   9.114   7.954   4.306
 8913WAT     H126981   9.062   8.007   4.373
 8913WAT     H226982   9.190   7.907   4.352
 8914WAT      O26983   2.221   6.162   3.300
 8914WAT     H126984   2.310   6.193   3.332
 8914WAT     H226985   2.225   6.146   3.201
 8915WAT      O26986   0.596   1.406   0.256
 8915WAT     H126987   0.617   1.332   0.320
 8915WAT     H226988   0.650   1.487   0.279
 8916WAT      O26989   4.227   9.181   3.456
 8916WAT     H126990   4.321   9.158   3.482
 8916WAT     H226991   4.166   9.105   3.482
 8917WAT      O26992   3.075   0.300   1.859
 8917WAT     H126993   3.134   0.380   1.847
 8917WAT     H226994   3.076   0.245   1.776
 8918WAT      O26995   7.905   3.044   6.986
 8918WAT     H126996   7.928   2.948   6.970
 8918WAT     H226997   7.931   3.070   7.079
 8919WAT      O26998   3.251   0.349   8.029
 8919WAT     H126999   3.277   0.405   7.951
 8919WAT     H227000   3.240   0.407   8.110
 8920WAT      O27001   1.389   0.236   4.871
 8920WAT     H127002   1.403   0.226   4.772
 8920WAT     H227003   1.421   0.326   4.900
 8921WAT      O27004   3.770   4.870   4.678
 8921WAT     H127005   3.845   4.817   4.719
 8921WAT     H227006   3.707   4.900   4.750
 8922WAT      O27007   0.720   2.625   5.997
 8922WAT     H127008   0.679   2.641   6.087
 8922WAT     H227009   0.818   2.607   6.007
 8923WAT      O27010   8.797   9.243   8.142
 8923WAT     H127011   8.792   9.237   8.242
 8923WAT     H227012   8.810   9.338   8.115
 8924WAT      O27013   9.292   2.164   8.692
 8924WAT     H127014   9.365   2.191   8.629
 8924WAT     H227015   9.292   2.064   8.702
 8925WAT      O27016   5.652   5.192   6.179
 8925WAT     H127017   5.618   5.201   6.085
 8925WAT     H227018   5.751   5.178   6.177
 8926WAT      O27019   8.874   4.969   1.042
 8926WAT     H127020   8.909   5.002   0.955
 8926WAT     H227021   8.951   4.945   1.102
 8927WAT      O27022   8.199   4.241   8.672
 8927WAT     H127023   8.170   4.324   8.719
 8927WAT     H227024   8.121   4.181   8.659
 8928WAT      O27025   2.588   3.588   1.062
 8928WAT     H127026   2.560   3.623   0.972
 8928WAT     H227027   2.621   3.664   1.118
 8929WAT      O27028   0.038   5.960   5.890
 8929WAT     H127029   0.065   5.938   5.984
 8929WAT     H227030  -0.052   6.004   5.891
 8930WAT      O27031   2.870   6.616   4.130
 8930WAT     H127032   2.789   6.606   4.187
 8930WAT     H227033   2.903   6.711   4.134
 8931WAT      O27034   9.187   2.890   3.260
 8931WAT     H127035   9.203   2.853   3.168
 8931WAT     H227036   9.240   2.974   3.272
 8932WAT      O27037   9.560   3.495   4.855
 8932WAT     H127038   9.584   3.543   4.771
 8932WAT     H227039   9.501   3.553   4.911
 8933WAT      O27040   4.883   6.994   6.502
 8933WAT     H127041   4.889   7.016   6.405
 8933WAT     H227042   4.937   7.060   6.555
 8934WAT      O27043   2.419   4.572   4.073
 8934WAT     H127044   2.347   4.507   4.099
 8934WAT     H227045   2.377   4.658   4.042
 8935WAT      O27046   4.583   5.542   0.963
 8935WAT     H127047   4.554   5.503   1.050
 8935WAT     H227048   4.557   5.480   0.889
 8936WAT      O27049   4.197   7.606   7.037
 8936WAT     H127050   4.102   7.577   7.027
 8936WAT     H227051   4.228   7.587   7.130
 8937WAT      O27052   1.253   6.276   7.536
 8937WAT     H127053   1.227   6.246   7.627
 8937WAT     H227054   1.171   6.285   7.479
 8938WAT      O27055   6.959   2.377   7.163
 8938WAT     H127056   7.006   2.449   7.111
 8938WAT     H227057   6.970   2.395   7.261
 8939WAT      O27058   9.811   6.920   2.619
 8939WAT     H127059   9.776   6.901   2.527
 8939WAT     H227060   9.819   7.019   2.632
 8940WAT      O27061   8.986   0.860   6.722
 8940WAT     H127062   9.001   0.876   6.625
 8940WAT     H227063   9.027   0.935   6.774
 8941WAT      O27064   0.073   8.120   7.884
 8941WAT     H127065   0.092   8.026   7.854
 8941WAT     H227066   0.042   8.119   7.979
 8942WAT      O27067   1.242   0.075   9.798
 8942WAT     H127068   1.190   0.110   9.875
 8942WAT     H227069   1.187   0.009   9.747
 8943WAT      O27070   6.881   6.145   8.981
 8943WAT     H127071   6.803   6.143   8.920
 8943WAT     H227072   6.917   6.239   8.986
 8944WAT      O27073   6.731   6.216   1.944
 8944WAT     H127074   6.691   6.298   1.984
 8944WAT     H227075   6.684   6.195   1.858
 8945WAT      O27076   3.716   7.772   9.080
 8945WAT     H127077   3.715   7.678   9.044
 8945WAT     H227078   3.632   7.788   9.132
 8946WAT      O27079   8.640   8.065   6.250
 8946WAT     H127080   8.567   8.125   6.285
 8946WAT     H227081   8.599   7.981   6.215
 8947WAT      O27082   2.698   3.960   0.294
 8947WAT     H127083   2.640   3.963   0.213
 8947WAT     H227084   2.744   4.048   0.306
 8948WAT      O27085   5.643   1.018   6.637
 8948WAT     H127086   5.587   0.985   6.561
 8948WAT     H227087   5.627   1.116   6.650
 8949WAT      O27088   3.542   7.431   4.312
 8949WAT     H127089   3.587   7.345   4.285
 8949WAT     H227090   3.527   7.431   4.410
 8950WAT      O27091   3.037   9.038   1.510
 8950WAT     H127092   3.030   8.978   1.430
 8950WAT     H227093   3.035   9.133   1.480
 8951WAT      O27094   0.937   7.453   9.450
 8951WAT     H127095   0.889   7.445   9.362
 8951WAT     H227096   1.005   7.380   9.458
 8952WAT      O27097   7.707   4.094   1.087
 8952WAT     H127098   7.681   4.113   0.993
 8952WAT     H227099   7.675   4.168   1.146
 8953WAT      O27100   3.405   4.335   4.754
 8953WAT     H127101   3.433   4.425   4.720
 8953WAT     H227102   3.473   4.302   4.820
 8954WAT      O27103   4.019   7.790   4.189
 8954WAT     H127104   3.977   7.729   4.256
 8954WAT     H227105   3.980   7.773   4.098
 8955WAT      O27106   7.889   4.808   8.242
 8955WAT     H127107   7.882   4.713   8.210
 8955WAT     H227108   7.837   4.819   8.327
 8956WAT      O27109   0.751   7.928   5.681
 8956WAT     H127110   0.812   7.905   5.757
 8956WAT     H227111   0.708   8.016   5.699
 8957WAT      O27112   8.452   4.278   7.921
 8957WAT     H127113   8.354   4.265   7.907
 8957WAT     H227114   8.490   4.197   7.966
 8958WAT      O27115   8.765   5.240   7.568
 8958WAT     H127116   8.682   5.232   7.623
 8958WAT     H227117   8.741   5.254   7.472
 8959WAT      O27118   6.324   1.240   7.489
 8959WAT     H127119   6.332   1.205   7.583
 8959WAT     H227120   6.295   1.336   7.492
 8960WAT      O27121   6.582   3.544   9.468
 8960WAT     H127122   6.544   3.520   9.378
 8960WAT     H227123   6.532   3.622   9.506
 8961WAT      O27124   2.537   7.763   9.230
 8961WAT     H127125   2.526   7.847   9.282
 8961WAT     H227126   2.634   7.750   9.208
 8962WAT      O27127   3.416   6.323   2.232
 8962WAT     H127128   3.419   6.365   2.142
 8962WAT     H227129   3.347   6.250   2.232
 8963WAT      O27130   9.742   7.932   1.783
 8963WAT     H127131   9.720   8.026   1.756
 8963WAT     H227132   9.678   7.901   1.853
 8964WAT      O27133   6.496   4.142   5.918
 8964WAT     H127134   6.595   4.155   5.918
 8964WAT     H227135   6.459   4.164   6.008
 8965WAT      O27136   5.247   9.757   4.872
 8965WAT     H127137   5.239   9.854   4.895
 8965WAT     H227138   5.156   9.717   4.864
 8966WAT      O27139   1.419   4.772   7.772
 8966WAT     H127140   1.374   4.788   7.860
 8966WAT     H227141   1.496   4.836   7.761
 8967WAT      O27142   6.321   3.833   6.963
 8967WAT     H127143   6.259   3.758   6.939
 8967WAT     H227144   6.389   3.801   7.029
 8968WAT      O27145   4.061   5.342   2.511
 8968WAT     H127146   4.120   5.421   2.493
 8968WAT     H227147   3.973   5.354   2.464
 8969WAT      O27148   0.787   0.226   0.465
 8969WAT     H127149   0.824   0.144   0.422
 8969WAT     H227150   0.751   0.287   0.395
 8970WAT      O27151   9.395   8.269   7.600
 8970WAT     H127152   9.481   8.232   7.566
 8970WAT     H227153   9.414   8.338   7.669
 8971WAT      O27154   8.694   8.349   0.829
 8971WAT     H127155   8.743   8.284   0.771
 8971WAT     H227156   8.666   8.304   0.913
 8972WAT      O27157   3.099   1.027   6.766
 8972WAT     H127158   3.191   1.018   6.804
 8972WAT     H227159   3.102   1.085   6.684
 8973WAT      O27160   6.700   3.612   7.103
 8973WAT     H127161   6.691   3.513   7.114
 8973WAT     H227162   6.720   3.653   7.192
 8974WAT      O27163   1.805   3.443   0.932
 8974WAT     H127164   1.799   3.529   0.880
 8974WAT     H227165   1.758   3.455   1.020
 8975WAT      O27166   5.286   7.130   0.003
 8975WAT     H127167   5.351   7.086  -0.059
 8975WAT     H227168   5.209   7.069   0.019
 8976WAT      O27169   4.657   7.023   9.636
 8976WAT     H127170   4.564   7.056   9.656
 8976WAT     H227171   4.668   7.012   9.537
 8977WAT      O27172   3.529   6.262   3.904
 8977WAT     H127173   3.504   6.240   3.999
 8977WAT     H227174   3.609   6.322   3.904
 8978WAT      O27175   0.252   0.277   4.953
 8978WAT     H127176   0.294   0.314   4.870
 8978WAT     H227177   0.166   0.325   4.971
 8979WAT      O27178   7.058   5.086   4.902
 8979WAT     H127179   7.152   5.120   4.894
 8979WAT     H227180   7.007   5.108   4.819
 8980WAT      O27181   4.563   5.335   9.427
 8980WAT     H127182   4.555   5.435   9.424
 8980WAT     H227183   4.642   5.306   9.373
 8981WAT      O27184   1.001   1.391   7.141
 8981WAT     H127185   1.031   1.458   7.209
 8981WAT     H227186   1.079   1.361   7.086
 8982WAT      O27187   7.720   7.836   2.086
 8982WAT     H127188   7.730   7.759   2.023
 8982WAT     H227189   7.680   7.804   2.172
 8983WAT      O27190   3.790   3.932   5.806
 8983WAT     H127191   3.694   3.906   5.795
 8983WAT     H227192   3.796   4.029   5.830
 8984WAT      O27193   1.754   4.534   6.649
 8984WAT     H127194   1.798   4.590   6.579
 8984WAT     H227195   1.655   4.543   6.642
 8985WAT      O27196   4.068   4.862   0.817
 8985WAT     H127197   4.049   4.945   0.765
 8985WAT     H227198   4.066   4.883   0.915
 8986WAT      O27199   0.876   6.992   7.482
 8986WAT     H127200   0.951   6.929   7.460
 8986WAT     H227201   0.788   6.944   7.473
 8987WAT      O27202   6.602   4.601   4.310
 8987WAT     H127203   6.556   4.553   4.385
 8987WAT     H227204   6.619   4.538   4.235
 8988WAT      O27205   7.261   3.240   7.395
 8988WAT     H127206   7.176   3.285   7.366
 8988WAT     H227207   7.337   3.275   7.339
 8989WAT      O27208   2.405   7.620   2.396
 8989WAT     H127209   2.393   7.718   2.410
 8989WAT     H227210   2.420   7.602   2.298
 8990WAT      O27211   4.369   5.825   1.191
 8990WAT     H127212   4.422   5.832   1.276
 8990WAT     H227213   4.318   5.739   1.190
 8991WAT      O27214   4.570   2.847   2.558
 8991WAT     H127215   4.643   2.787   2.592
 8991WAT     H227216   4.597   2.884   2.469
 8992WAT      O27217   7.770   5.923   4.935
 8992WAT     H127218   7.840   5.861   4.969
 8992WAT     H227219   7.798   6.018   4.954
 8993WAT      O27220   9.109   5.916   6.723
 8993WAT     H127221   9.108   5.867   6.810
 8993WAT     H227222   9.085   6.012   6.738
 8994WAT      O27223   4.183   5.118   2.889
 8994WAT     H127224   4.221   5.102   2.797
 8994WAT     H227225   4.113   5.189   2.884
 8995WAT      O27226   5.289   2.623   4.155
 8995WAT     H127227   5.376   2.672   4.153
 8995WAT     H227228   5.269   2.586   4.064
 8996WAT      O27229   0.463   9.390   3.486
 8996WAT     H127230   0.558   9.359   3.472
 8996WAT     H227231   0.434   9.442   3.405
 8997WAT      O27232   6.388   6.785   8.204
 8997WAT     H127233   6.371   6.798   8.106
 8997WAT     H227234   6.335   6.852   8.256
 8998WAT      O27235   7.203   1.407   6.694
 8998WAT     H127236   7.181   1.431   6.789
 8998WAT     H227237   7.285   1.457   6.666
 8999WAT      O27238   9.250   7.330   4.046
 8999WAT     H127239   9.160   7.307   4.007
 8999WAT     H227240   9.279   7.257   4.108
 9000WAT      O27241   5.207   9.153   4.249
 9000WAT     H127242   5.188   9.246   4.281
 9000WAT     H227243   5.273   9.156   4.175
 9001WAT      O27244   3.873   6.544   0.347
 9001WAT     H127245   3.960   6.496   0.354
 9001WAT     H227246   3.816   6.498   0.279
 9002WAT      O27247   4.232   1.389   1.554
 9002WAT     H127248   4.306   1.327   1.528
 9002WAT     H227249   4.146   1.338   1.561
 9003WAT      O27250   5.177   6.080   4.522
 9003WAT     H127251   5.178   6.146   4.597
 9003WAT     H227252   5.221   6.120   4.441
 9004WAT      O27253   9.616   4.139   0.561
 9004WAT     H127254   9.564   4.072   0.507
 9004WAT     H227255   9.556   4.216   0.585
 9005WAT      O27256   5.411   2.814   8.653
 9005WAT     H127257   5.375   2.906   8.669
 9005WAT     H227258   5.337   2.755   8.619
 9006WAT      O27259   4.277   4.392   3.443
 9006WAT     H127260   4.359   4.413   3.497
 9006WAT     H227261   4.221   4.325   3.491
 9007WAT      O27262   9.261   1.493   6.360
 9007WAT     H127263   9.204   1.564   6.319
 9007WAT     H227264   9.315   1.449   6.289
 9008WAT      O27265   0.568   9.622   6.451
 9008WAT     H127266   0.528   9.620   6.359
 9008WAT     H227267   0.522   9.555   6.509
 9009WAT      O27268   3.556   3.752   8.681
 9009WAT     H127269   3.583   3.839   8.641
 9009WAT     H227270   3.456   3.750   8.693
 9010WAT      O27271   6.630   3.349   8.613
 9010WAT     H127272   6.695   3.320   8.542
 9010WAT     H227273   6.676   3.348   8.702
 9011WAT      O27274   7.516   5.801   3.568
 9011WAT     H127275   7.425   5.843   3.576
 9011WAT     H227276   7.536   5.751   3.652
 9012WAT      O27277   3.071   5.087   8.755
 9012WAT     H127278   3.166   5.071   8.779
 9012WAT     H227279   3.034   5.006   8.708
 9013WAT      O27280   0.597   6.795   0.114
 9013WAT     H127281   0.660   6.791   0.037
 9013WAT     H227282   0.646   6.776   0.199
 9014WAT      O27283   6.203   8.524   0.218
 9014WAT     H127284   6.295   8.507   0.181
 9014WAT     H227285   6.198   8.618   0.253
 9015WAT      O27286   1.437   8.195   9.385
 9015WAT     H127287   1.509   8.128   9.400
 9015WAT     H227288   1.416   8.242   9.471
 9016WAT      O27289   4.193   9.699   7.342
 9016WAT     H127290   4.234   9.635   7.277
 9016WAT     H227291   4.118   9.748   7.298
 9017WAT      O27292   0.998   1.822   5.393
 9017WAT     H127293   0.962   1.754   5.456
 9017WAT     H227294   0.923   1.872   5.350
 9018WAT      O27295   4.525   1.480   1.909
 9018WAT     H127296   4.555   1.403   1.966
 9018WAT     H227297   4.473   1.445   1.831
 9019WAT      O27298   6.773   6.093   6.613
 9019WAT     H127299   6.773   6.059   6.707
 9019WAT     H227300   6.809   6.023   6.552
 9020WAT      O27301   8.126   5.723   2.971
 9020WAT     H127302   8.050   5.787   2.982
 9020WAT     H227303   8.210   5.767   3.003
 9021WAT      O27304   5.606   0.266   6.427
 9021WAT     H127305   5.566   0.348   6.388
 9021WAT     H227306   5.602   0.192   6.360
 9022WAT      O27307   1.139   9.142   6.477
 9022WAT     H127308   1.042   9.159   6.456
 9022WAT     H227309   1.167   9.202   6.553
 9023WAT      O27310   4.447   8.542   7.778
 9023WAT     H127311   4.418   8.563   7.871
 9023WAT     H227312   4.394   8.464   7.743
 9024WAT      O27313   1.707   0.803   9.330
 9024WAT     H127314   1.707   0.828   9.427
 9024WAT     H227315   1.788   0.747   9.310
 9025WAT      O27316   0.249   6.898   9.610
 9025WAT     H127317   0.313   6.965   9.647
 9025WAT     H227318   0.183   6.944   9.550
 9026WAT      O27319   9.556   9.715   8.854
 9026WAT     H127320   9.495   9.684   8.781
 9026WAT     H227321   9.546   9.814   8.866
 9027WAT      O27322   4.829   4.845   5.573
 9027WAT     H127323   4.909   4.865   5.516
 9027WAT     H227324   4.859   4.820   5.665
 9028WAT      O27325   1.050   8.646   8.399
 9028WAT     H127326   0.998   8.717   8.445
 9028WAT     H227327   1.068   8.571   8.462
 9029WAT      O27328   3.350   4.656   3.644
 9029WAT     H127329   3.391   4.569   3.671
 9029WAT     H227330   3.250   4.646   3.642
 9030WAT      O27331   7.819   7.493   7.973
 9030WAT     H127332   7.861   7.554   8.040
 9030WAT     H227333   7.790   7.408   8.017
 9031WAT      O27334   0.862   1.434   5.262
 9031WAT     H127335   0.817   1.521   5.241
 9031WAT     H227336   0.831   1.364   5.197
 9032WAT      O27337   6.526   0.579   5.022
 9032WAT     H127338   6.446   0.545   4.974
 9032WAT     H227339   6.576   0.644   4.963
 9033WAT      O27340   1.535   0.274   1.578
 9033WAT     H127341   1.503   0.369   1.580
 9033WAT     H227342   1.578   0.251   1.665
 9034WAT      O27343   3.741   7.421   3.319
 9034WAT     H127344   3.651   7.410   3.361
 9034WAT     H227345   3.737   7.394   3.223
 9035WAT      O27346   8.623   8.712   9.300
 9035WAT     H127347   8.699   8.648   9.312
 9035WAT     H227348   8.581   8.697   9.211
 9036WAT      O27349   8.027   9.825   1.132
 9036WAT     H127350   8.029   9.758   1.206
 9036WAT     H227351   8.067   9.785   1.050
 9037WAT      O27352   7.060   6.464   6.420
 9037WAT     H127353   7.090   6.389   6.362
 9037WAT     H227354   6.963   6.454   6.439
 9038WAT      O27355   9.125   7.778   4.609
 9038WAT     H127356   9.179   7.774   4.525
 9038WAT     H227357   9.033   7.743   4.591
 9039WAT      O27358   8.761   4.870   4.761
 9039WAT     H127359   8.779   4.893   4.857
 9039WAT     H227360   8.800   4.780   4.741
 9040WAT      O27361   9.485   6.316   2.796
 9040WAT     H127362   9.470   6.347   2.702
 9040WAT     H227363   9.583   6.300   2.810
 9041WAT      O27364   2.517   4.463   1.033
 9041WAT     H127365   2.552   4.465   1.127
 9041WAT     H227366   2.455   4.541   1.019
 9042WAT      O27367   7.072   6.090   2.470
 9042WAT     H127368   7.170   6.070   2.463
 9042WAT     H227369   7.050   6.119   2.563
 9043WAT      O27370   7.469   8.337   9.254
 9043WAT     H127371   7.543   8.289   9.208
 9043WAT     H227372   7.498   8.429   9.279
 9044WAT      O27373   7.495   6.721   2.840
 9044WAT     H127374   7.420   6.679   2.891
 9044WAT     H227375   7.501   6.678   2.750
 9045WAT      O27376   4.810   9.163   6.276
 9045WAT     H127377   4.873   9.156   6.199
 9045WAT     H227378   4.850   9.120   6.356
 9046WAT      O27379   0.085   9.512   2.990
 9046WAT     H127380   0.029   9.535   2.910
 9046WAT     H227381   0.176   9.483   2.960
 9047WAT      O27382   7.401   5.336   3.465
 9047WAT     H127383   7.362   5.391   3.391
 9047WAT     H227384   7.489   5.375   3.492
 9048WAT      O27385   1.888   6.274   8.027
 9048WAT     H127386   1.877   6.240   7.934
 9048WAT     H227387   1.889   6.374   8.025
 9049WAT      O27388   3.000   7.680   3.003
 9049WAT     H127389   3.009   7.650   3.099
 9049WAT     H227390   2.911   7.653   2.968
 9050WAT      O27391   5.848   2.928   4.334
 9050WAT     H127392   5.887   2.993   4.399
 9050WAT     H227393   5.748   2.932   4.339
 9051WAT      O27394   0.364   3.126   8.923
 9051WAT     H127395   0.455   3.088   8.941
 9051WAT     H227396   0.300   3.095   8.993
 9052WAT      O27397   9.266   3.716   7.916
 9052WAT     H127398   9.329   3.681   7.985
 9052WAT     H227399   9.285   3.813   7.900
 9053WAT      O27400   7.970   7.897   2.255
 9053WAT     H127401   7.907   7.846   2.196
 9053WAT     H227402   7.932   7.987   2.275
 9054WAT      O27403   2.902   7.895   0.858
 9054WAT     H127404   2.978   7.885   0.922
 9054WAT     H227405   2.934   7.878   0.765
 9055WAT      O27406   2.152   9.250   9.057
 9055WAT     H127407   2.055   9.252   9.035
 9055WAT     H227408   2.185   9.343   9.071
 9056WAT      O27409   0.009   7.620   5.732
 9056WAT     H127410   0.001   7.690   5.662
 9056WAT     H227411  -0.079   7.574   5.743
 9057WAT      O27412   5.758   1.122   7.562
 9057WAT     H127413   5.813   1.167   7.492
 9057WAT     H227414   5.814   1.055   7.610
 9058WAT      O27415   3.126   5.816   9.638
 9058WAT     H127416   3.079   5.727   9.641
 9058WAT     H227417   3.209   5.811   9.693
 9059WAT      O27418   7.263   6.644   5.825
 9059WAT     H127419   7.279   6.741   5.806
 9059WAT     H227420   7.196   6.636   5.899
 9060WAT      O27421   8.354   7.881   6.519
 9060WAT     H127422   8.442   7.835   6.504
 9060WAT     H227423   8.285   7.813   6.543
 9061WAT      O27424   3.968   2.007   5.834
 9061WAT     H127425   4.062   1.996   5.865
 9061WAT     H227426   3.956   1.959   5.747
 9062WAT      O27427   7.905   6.263   2.771
 9062WAT     H127428   7.992   6.311   2.787
 9062WAT     H227429   7.844   6.280   2.848
 9063WAT      O27430   9.248   0.732   3.221
 9063WAT     H127431   9.331   0.709   3.272
 9063WAT     H227432   9.191   0.650   3.212
 9064WAT      O27433   9.585   6.733   3.729
 9064WAT     H127434   9.486   6.718   3.732
 9064WAT     H227435   9.631   6.669   3.790
 9065WAT      O27436   8.918   3.296   2.916
 9065WAT     H127437   8.971   3.248   2.846
 9065WAT     H227438   8.836   3.243   2.939
 9066WAT      O27439   1.996   2.470   9.092
 9066WAT     H127440   2.030   2.551   9.140
 9066WAT     H227441   2.036   2.466   9.000
 9067WAT      O27442   9.832   0.631   2.298
 9067WAT     H127443   9.871   0.574   2.370
 9067WAT     H227444   9.797   0.715   2.338
 9068WAT      O27445   5.634   7.822   7.054
 9068WAT     H127446   5.639   7.922   7.059
 9068WAT     H227447   5.551   7.790   7.098
 9069WAT      O27448   0.285   9.452   2.142
 9069WAT     H127449   0.360   9.518   2.153
 9069WAT     H227450   0.296   9.403   2.056
 9070WAT      O27451   8.177   5.884   8.553
 9070WAT     H127452   8.264   5.914   8.514
 9070WAT     H227453   8.166   5.785   8.539
 9071WAT      O27454   1.355   7.682   7.939
 9071WAT     H127455   1.342   7.754   8.007
 9071WAT     H227456   1.280   7.683   7.873
 9072WAT      O27457   7.240   8.104   5.594
 9072WAT     H127458   7.273   8.111   5.688
 9072WAT     H227459   7.317   8.112   5.531
 9073WAT      O27460   3.656   2.270   2.237
 9073WAT     H127461   3.643   2.308   2.328
 9073WAT     H227462   3.656   2.344   2.170
 9074WAT      O27463   1.250   8.253   2.714
 9074WAT     H127464   1.229   8.236   2.617
 9074WAT     H227465   1.186   8.202   2.771
 9075WAT      O27466   0.238   2.103   9.601
 9075WAT     H127467   0.338   2.104   9.611
 9075WAT     H227468   0.202   2.020   9.645
 9076WAT      O27469   0.850   9.010   5.030
 9076WAT     H127470   0.838   8.929   4.973
 9076WAT     H227471   0.947   9.031   5.039
 9077WAT      O27472   4.443   1.324   2.934
 9077WAT     H127473   4.436   1.324   2.834
 9077WAT     H227474   4.399   1.406   2.970
 9078WAT      O27475   8.498   7.439   5.634
 9078WAT     H127476   8.585   7.483   5.610
 9078WAT     H227477   8.489   7.353   5.585
 9079WAT      O27478   4.206   0.138   0.433
 9079WAT     H127479   4.129   0.174   0.381
 9079WAT     H227480   4.171   0.074   0.502
 9080WAT      O27481   5.447   8.915   7.332
 9080WAT     H127482   5.459   8.938   7.236
 9080WAT     H227483   5.351   8.930   7.358
 9081WAT      O27484   1.747   1.814   9.673
 9081WAT     H127485   1.702   1.827   9.584
 9081WAT     H227486   1.805   1.732   9.669
 9082WAT      O27487   9.509   5.352   0.964
 9082WAT     H127488   9.570   5.325   0.890
 9082WAT     H227489   9.427   5.395   0.926
 9083WAT      O27490   3.532   6.322   4.729
 9083WAT     H127491   3.606   6.304   4.664
 9083WAT     H227492   3.570   6.365   4.811
 9084WAT      O27493   7.546   3.165   4.721
 9084WAT     H127494   7.496   3.100   4.663
 9084WAT     H227495   7.507   3.163   4.813
 9085WAT      O27496   3.847   8.406   5.648
 9085WAT     H127497   3.917   8.456   5.699
 9085WAT     H227498   3.775   8.470   5.620
 9086WAT      O27499   5.425   4.506   3.332
 9086WAT     H127500   5.430   4.451   3.248
 9086WAT     H227501   5.460   4.452   3.409
 9087WAT      O27502   7.450   0.684   3.643
 9087WAT     H127503   7.432   0.728   3.555
 9087WAT     H227504   7.527   0.620   3.632
 9088WAT      O27505   4.796   7.233   3.006
 9088WAT     H127506   4.849   7.194   3.081
 9088WAT     H227507   4.703   7.253   3.038
 9089WAT      O27508   6.464   6.543   4.291
 9089WAT     H127509   6.476   6.566   4.388
 9089WAT     H227510   6.439   6.625   4.240
 9090WAT      O27511   8.580   9.483   8.441
 9090WAT     H127512   8.503   9.491   8.504
 9090WAT     H227513   8.579   9.393   8.399
 9091WAT      O27514   4.553   4.766   7.568
 9091WAT     H127515   4.476   4.708   7.595
 9091WAT     H227516   4.557   4.846   7.628
 9092WAT      O27517   0.799   2.447   8.607
 9092WAT     H127518   0.895   2.428   8.629
 9092WAT     H227519   0.782   2.425   8.511
 9093WAT      O27520   9.474   5.044   7.836
 9093WAT     H127521   9.563   5.007   7.809
 9093WAT     H227522   9.442   4.999   7.919
 9094WAT      O27523   1.812   5.302   9.009
 9094WAT     H127524   1.807   5.334   9.104
 9094WAT     H227525   1.839   5.205   9.008
 9095WAT      O27526   3.986   0.130   3.025
 9095WAT     H127527   4.071   0.184   3.032
 9095WAT     H227528   3.927   0.169   2.955
 9096WAT      O27529   8.333   3.813   9.099
 9096WAT     H127530   8.306   3.855   9.186
 9096WAT     H227531   8.302   3.870   9.023
 9097WAT      O27532   7.075  -0.000   7.894
 9097WAT     H127533   7.124   0.087   7.885
 9097WAT     H227534   7.139  -0.076   7.880
 9098WAT      O27535   7.341   2.166   3.646
 9098WAT     H127536   7.293   2.089   3.688
 9098WAT     H227537   7.374   2.140   3.555
 9099WAT      O27538   9.518   4.916   5.179
 9099WAT     H127539   9.460   4.854   5.126
 9099WAT     H227540   9.486   5.010   5.168
 9100WAT      O27541   3.096   2.027   4.953
 9100WAT     H127542   3.082   1.947   4.895
 9100WAT     H227543   3.104   2.108   4.896
 9101WAT      O27544   6.534   1.010   9.421
 9101WAT     H127545   6.466   0.937   9.433
 9101WAT     H227546   6.579   1.028   9.509
 9102WAT      O27547   3.088   5.723   6.855
 9102WAT     H127548   3.092   5.642   6.796
 9102WAT     H227549   3.171   5.727   6.910
 9103WAT      O27550   2.774   2.638   6.923
 9103WAT     H127551   2.802   2.734   6.926
 9103WAT     H227552   2.824   2.587   6.992
 9104WAT      O27553   0.299   7.234   1.483
 9104WAT     H127554   0.267   7.163   1.420
 9104WAT     H227555   0.287   7.324   1.440
 9105WAT      O27556   6.226   9.395   0.209
 9105WAT     H127557   6.228   9.348   0.121
 9105WAT     H227558   6.289   9.351   0.273
 9106WAT      O27559   7.437   4.639   1.368
 9106WAT     H127560   7.461   4.581   1.445
 9106WAT     H227561   7.338   4.645   1.359
 9107WAT      O27562   7.741   8.937   5.289
 9107WAT     H127563   7.750   8.910   5.193
 9107WAT     H227564   7.646   8.924   5.318
 9108WAT      O27565   1.253   8.621   4.901
 9108WAT     H127566   1.282   8.549   4.963
 9108WAT     H227567   1.198   8.581   4.827
 9109WAT      O27568   7.584   1.943   3.045
 9109WAT     H127569   7.584   1.978   2.952
 9109WAT     H227570   7.504   1.883   3.058
 9110WAT      O27571   0.267   4.850   6.641
 9110WAT     H127572   0.257   4.750   6.636
 9110WAT     H227573   0.212   4.892   6.569
 9111WAT      O27574   2.016   1.653   9.176
 9111WAT     H127575   2.094   1.701   9.135
 9111WAT     H227576   2.029   1.554   9.164
 9112WAT      O27577   7.934   6.275   0.390
 9112WAT     H127578   7.928   6.282   0.291
 9112WAT     H227579   8.027   6.297   0.420
 9113WAT      O27580   1.582   8.386   5.178
 9113WAT     H127581   1.612   8.400   5.272
 9113WAT     H227582   1.661   8.386   5.117
 9114WAT      O27583   9.244   8.063   1.104
 9114WAT     H127584   9.197   8.147   1.076
 9114WAT     H227585   9.222   8.042   1.199
 9115WAT      O27586   5.837   5.295   7.289
 9115WAT     H127587   5.751   5.326   7.330
 9115WAT     H227588   5.879   5.370   7.238
 9116WAT      O27589   5.917   9.059   9.320
 9116WAT     H127590   5.967   9.145   9.309
 9116WAT     H227591   5.825   9.069   9.283
 9117WAT      O27592   4.533   4.945   6.796
 9117WAT     H127593   4.509   4.970   6.890
 9117WAT     H227594   4.622   4.898   6.796
 9118WAT      O27595   8.844   1.617   0.978
 9118WAT     H127596   8.841   1.696   1.039
 9118WAT     H227597   8.774   1.551   1.006
 9119WAT      O27598   0.604   6.502   1.511
 9119WAT     H127599   0.526   6.502   1.572
 9119WAT     H227600   0.641   6.409   1.503
 9120WAT      O27601   1.540   4.305   4.995
 9120WAT     H127602   1.509   4.279   5.087
 9120WAT     H227603   1.596   4.387   5.001
 9121WAT      O27604   5.625   1.933   5.014
 9121WAT     H127605   5.560   1.894   5.079
 9121WAT     H227606   5.585   2.016   4.974
 9122WAT      O27607   8.310   4.231   5.862
 9122WAT     H127608   8.405   4.213   5.836
 9122WAT     H227609   8.250   4.162   5.820
 9123WAT      O27610   5.572   3.977   7.861
 9123WAT     H127611   5.540   4.072   7.854
 9123WAT     H227612   5.525   3.921   7.793
 9124WAT      O27613   8.202   2.074   2.304
 9124WAT     H127614   8.129   2.118   2.357
 9124WAT     H227615   8.167   2.050   2.213
 9125WAT      O27616   9.269   2.087   9.782
 9125WAT     H127617   9.299   2.102   9.876
 9125WAT     H227618   9.177   2.125   9.770
 9126WAT      O27619   7.524   0.872   2.739
 9126WAT     H127620   7.619   0.898   2.726
 9126WAT     H227621   7.504   0.790   2.684
 9127WAT      O27622   1.940   4.695   9.715
 9127WAT     H127623   1.958   4.782   9.670
 9127WAT     H227624   1.903   4.630   9.649
 9128WAT      O27625   7.330   0.134   9.277
 9128WAT     H127626   7.246   0.107   9.230
 9128WAT     H227627   7.402   0.152   9.210
 9129WAT      O27628   8.035   7.335   8.828
 9129WAT     H127629   8.120   7.388   8.829
 9129WAT     H227630   7.960   7.392   8.861
 9130WAT      O27631   2.025   7.511   8.399
 9130WAT     H127632   2.024   7.518   8.299
 9130WAT     H227633   1.939   7.471   8.430
 9131WAT      O27634   4.544   7.264   3.120
 9131WAT     H127635   4.512   7.355   3.145
 9131WAT     H227636   4.470   7.213   3.075
 9132WAT      O27637   3.670   0.552   1.140
 9132WAT     H127638   3.631   0.465   1.112
 9132WAT     H227639   3.688   0.608   1.060
 9133WAT      O27640   9.140   4.212   3.380
 9133WAT     H127641   9.232   4.183   3.408
 9133WAT     H227642   9.073   4.180   3.448
 9134WAT      O27643   7.834   3.533   9.739
 9134WAT     H127644   7.817   3.572   9.649
 9134WAT     H227645   7.767   3.568   9.804
 9135WAT      O27646   1.039   2.312   6.642
 9135WAT     H127647   1.055   2.396   6.590
 9135WAT     H227648   0.959   2.324   6.701
 9136WAT      O27649   3.388   2.245   4.940
 9136WAT     H127650   3.415   2.341   4.940
 9136WAT     H227651   3.288   2.239   4.951
 9137WAT      O27652   5.532   4.604   3.606
 9137WAT     H127653   5.533   4.617   3.705
 9137WAT     H227654   5.555   4.510   3.584
 9138WAT      O27655   6.048   6.032   1.025
 9138WAT     H127656   6.082   5.960   1.086
 9138WAT     H227657   6.088   6.120   1.052
 9139WAT      O27658   7.634   2.079   9.764
 9139WAT     H127659   7.615   1.994   9.716
 9139WAT     H227660   7.556   2.103   9.822
 9140WAT      O27661   4.861   2.072   2.689
 9140WAT     H127662   4.959   2.055   2.700
 9140WAT     H227663   4.826   2.017   2.614
 9141WAT      O27664   5.702   0.499   8.761
 9141WAT     H127665   5.761   0.418   8.766
 9141WAT     H227666   5.716   0.544   8.673
 9142WAT      O27667   5.883   2.457   2.645
 9142WAT     H127668   5.828   2.535   2.674
 9142WAT     H227669   5.949   2.488   2.576
 9143WAT      O27670   7.774   3.317   4.767
 9143WAT     H127671   7.860   3.278   4.800
 9143WAT     H227672   7.715   3.243   4.733
 9144WAT      O27673   6.043   1.330   2.281
 9144WAT     H127674   6.088   1.410   2.320
 9144WAT     H227675   5.969   1.359   2.221
 9145WAT      O27676   3.993   1.690   9.867
 9145WAT     H127677   4.088   1.722   9.874
 9145WAT     H227678   3.987   1.619   9.797
 9146WAT      O27679   0.352   1.065   6.565
 9146WAT     H127680   0.323   1.143   6.621
 9146WAT     H227681   0.391   1.098   6.480
 9147WAT      O27682   4.883   1.861   1.802
 9147WAT     H127683   4.960   1.802   1.825
 9147WAT     H227684   4.798   1.819   1.833
 9148WAT      O27685   2.100   4.043   1.468
 9148WAT     H127686   2.170   4.000   1.410
 9148WAT     H227687   2.105   4.142   1.459
 9149WAT      O27688   1.302   6.840   7.930
 9149WAT     H127689   1.271   6.918   7.877
 9149WAT     H227690   1.222   6.788   7.962
 9150WAT      O27691   9.154   4.692   8.107
 9150WAT     H127692   9.252   4.674   8.116
 9150WAT     H227693   9.135   4.787   8.132
 9151WAT      O27694   4.086   5.933   8.664
 9151WAT     H127695   4.168   5.881   8.640
 9151WAT     H227696   4.103   5.984   8.748
 9152WAT      O27697   6.862   7.161   2.027
 9152WAT     H127698   6.938   7.100   2.048
 9152WAT     H227699   6.872   7.195   1.934
 9153WAT      O27700   4.264   0.439   6.996
 9153WAT     H127701   4.245   0.418   7.092
 9153WAT     H227702   4.298   0.358   6.950
 9154WAT      O27703   6.407   4.544   3.201
 9154WAT     H127704   6.406   4.644   3.200
 9154WAT     H227705   6.320   4.510   3.165
 9155WAT      O27706   1.860   6.078   4.821
 9155WAT     H127707   1.778   6.032   4.788
 9155WAT     H227708   1.837   6.172   4.849
 9156WAT      O27709   0.339   6.244   4.512
 9156WAT     H127710   0.320   6.284   4.602
 9156WAT     H227711   0.279   6.286   4.444
 9157WAT      O27712   0.582   5.253   0.712
 9157WAT     H127713   0.538   5.330   0.666
 9157WAT     H227714   0.602   5.181   0.645
 9158WAT      O27715   4.092   2.949   2.655
 9158WAT     H127716   4.160   2.986   2.593
 9158WAT     H227717   4.026   2.894   2.603
 9159WAT      O27718   3.556   1.085   3.575
 9159WAT     H127719   3.573   1.160   3.511
 9159WAT     H227720   3.458   1.064   3.576
 9160WAT      O27721   6.821   0.827   9.885
 9160WAT     H127722   6.793   0.731   9.893
 9160WAT     H227723   6.876   0.839   9.803
 9161WAT      O27724   7.709   0.019   0.152
 9161WAT     H127725   7.759  -0.030   0.081
 9161WAT     H227726   7.745  -0.007   0.242
 9162WAT      O27727   4.338   4.759   2.135
 9162WAT     H127728   4.249   4.753   2.181
 9162WAT     H227729   4.365   4.855   2.126
 9163WAT      O27730   2.624   0.888   6.358
 9163WAT     H127731   2.721   0.867   6.363
 9163WAT     H227732   2.604   0.968   6.415
 9164WAT      O27733   7.309   7.310   2.316
 9164WAT     H127734   7.345   7.394   2.355
 9164WAT     H227735   7.374   7.236   2.330
 9165WAT      O27736   9.617   5.473   5.433
 9165WAT     H127737   9.702   5.428   5.460
 9165WAT     H227738   9.639   5.558   5.383
 9166WAT      O27739   9.605   7.671   6.391
 9166WAT     H127740   9.637   7.697   6.300
 9166WAT     H227741   9.617   7.573   6.404
 9167WAT      O27742   2.175   5.329   3.291
 9167WAT     H127743   2.223   5.409   3.325
 9167WAT     H227744   2.159   5.265   3.367
 9168WAT      O27745   3.176   7.711   2.795
 9168WAT     H127746   3.245   7.640   2.788
 9168WAT     H227747   3.107   7.685   2.863
 9169WAT      O27748   1.364   1.659   4.164
 9169WAT     H127749   1.391   1.727   4.097
 9169WAT     H227750   1.285   1.692   4.216
 9170WAT      O27751   2.238   4.044   2.128
 9170WAT     H127752   2.311   4.085   2.074
 9170WAT     H227753   2.243   4.076   2.222
 9171WAT      O27754   1.443   6.927   2.479
 9171WAT     H127755   1.370   6.953   2.542
 9171WAT     H227756   1.408   6.928   2.385
 9172WAT      O27757   5.451   7.224   6.208
 9172WAT     H127758   5.491   7.133   6.217
 9172WAT     H227759   5.470   7.259   6.116
 9173WAT      O27760   6.415   2.654   2.768
 9173WAT     H127761   6.430   2.714   2.689
 9173WAT     H227762   6.370   2.570   2.737
 9174WAT      O27763   5.764   1.709   7.064
 9174WAT     H127764   5.696   1.766   7.108
 9174WAT     H227765   5.786   1.631   7.123
 9175WAT      O27766   2.215   5.071   8.204
 9175WAT     H127767   2.226   5.092   8.107
 9175WAT     H227768   2.127   5.026   8.219
 9176WAT      O27769   5.416   2.012   1.977
 9176WAT     H127770   5.402   1.919   2.012
 9176WAT     H227771   5.472   2.009   1.895
 9177WAT      O27772   7.709   0.743   5.179
 9177WAT     H127773   7.641   0.730   5.106
 9177WAT     H227774   7.663   0.749   5.267
 9178WAT      O27775   5.841   8.073   4.706
 9178WAT     H127776   5.821   7.975   4.704
 9178WAT     H227777   5.880   8.100   4.618
 9179WAT      O27778   5.645   4.529   8.795
 9179WAT     H127779   5.700   4.591   8.739
 9179WAT     H227780   5.706   4.473   8.851
 9180WAT      O27781   1.758   8.977   0.117
 9180WAT     H127782   1.844   8.930   0.093
 9180WAT     H227783   1.776   9.073   0.134
 9181WAT      O27784   6.334   4.278   6.507
 9181WAT     H127785   6.404   4.331   6.459
 9181WAT     H227786   6.280   4.226   6.441
 9182WAT      O27787   4.133   4.639   7.349
 9182WAT     H127788   4.228   4.612   7.331
 9182WAT     H227789   4.071   4.578   7.301
 9183WAT      O27790   4.306   6.757   2.702
 9183WAT     H127791   4.302   6.842   2.649
 9183WAT     H227792   4.215   6.715   2.705
 9184WAT      O27793   2.734   6.454   3.354
 9184WAT     H127794   2.779   6.386   3.296
 9184WAT     H227795   2.714   6.536   3.301
 9185WAT      O27796   1.742   0.343   3.969
 9185WAT     H127797   1.651   0.352   3.927
 9185WAT     H227798   1.757   0.419   4.031
 9186WAT      O27799   5.901   1.250   7.355
 9186WAT     H127800   5.989   1.215   7.324
 9186WAT     H227801   5.907   1.350   7.365
 9187WAT      O27802   4.809   8.473   6.956
 9187WAT     H127803   4.756   8.557   6.943
 9187WAT     H227804   4.807   8.419   6.872
 9188WAT      O27805   5.511   4.804   1.395
 9188WAT     H127806   5.539   4.739   1.466
 9188WAT     H227807   5.560   4.783   1.310
 9189WAT      O27808   6.911   7.568   7.373
 9189WAT     H127809   6.984   7.511   7.411
 9189WAT     H227810   6.825   7.517   7.374
 9190WAT      O27811   0.387   6.085   6.699
 9190WAT     H127812   0.454   6.095   6.773
 9190WAT     H227813   0.420   6.133   6.618
 9191WAT      O27814   6.171   6.292   4.505
 9191WAT     H127815   6.158   6.382   4.547
 9191WAT     H227816   6.141   6.296   4.410
 9192WAT      O27817   8.687   7.398   2.462
 9192WAT     H127818   8.625   7.428   2.390
 9192WAT     H227819   8.648   7.420   2.551
 9193WAT      O27820   6.240   5.599   9.660
 9193WAT     H127821   6.278   5.507   9.649
 9193WAT     H227822   6.284   5.661   9.596
 9194WAT      O27823   1.104   9.214   5.277
 9194WAT     H127824   1.070   9.288   5.219
 9194WAT     H227825   1.042   9.201   5.355
 9195WAT      O27826   8.849   0.789   1.373
 9195WAT     H127827   8.844   0.698   1.415
 9195WAT     H227828   8.849   0.858   1.444
 9196WAT      O27829   9.031   5.235   1.928
 9196WAT     H127830   9.052   5.138   1.930
 9196WAT     H227831   9.019   5.270   2.021
 9197WAT      O27832   9.523   5.781   4.996
 9197WAT     H127833   9.567   5.691   4.995
 9197WAT     H227834   9.563   5.836   5.069
 9198WAT      O27835   0.364   8.192   9.383
 9198WAT     H127836   0.381   8.130   9.306
 9198WAT     H227837   0.410   8.279   9.367
 9199WAT      O27838   3.711   3.741   1.073
 9199WAT     H127839   3.797   3.727   1.024
 9199WAT     H227840   3.654   3.806   1.023
 9200WAT      O27841   8.177   4.667   3.494
 9200WAT     H127842   8.234   4.597   3.451
 9200WAT     H227843   8.098   4.686   3.436
 9201WAT      O27844   9.862   6.664   4.634
 9201WAT     H127845   9.854   6.716   4.720
 9201WAT     H227846   9.789   6.691   4.572
 9202WAT      O27847   1.308   5.503   3.726
 9202WAT     H127848   1.213   5.498   3.694
 9202WAT     H227849   1.341   5.411   3.744
 9203WAT      O27850   2.018   3.008   1.078
 9203WAT     H127851   1.977   3.099   1.070
 9203WAT     H227852   2.027   2.968   0.987
 9204WAT      O27853   6.868   6.425   2.490
 9204WAT     H127854   6.816   6.434   2.575
 9204WAT     H227855   6.812   6.381   2.421
 9205WAT      O27856   5.481   1.281   3.087
 9205WAT     H127857   5.414   1.214   3.055
 9205WAT     H227858   5.573   1.250   3.064
 9206WAT      O27859   5.268   2.419   5.297
 9206WAT     H127860   5.173   2.401   5.323
 9206WAT     H227861   5.277   2.515   5.268
 9207WAT      O27862   0.048   0.393   9.527
 9207WAT     H127863   0.140   0.363   9.555
 9207WAT     H227864   0.049   0.491   9.510
 9208WAT      O27865   7.359   4.508   9.878
 9208WAT     H127866   7.390   4.545   9.790
 9208WAT     H227867   7.348   4.583   9.943
 9209WAT      O27868   7.012   7.666   4.691
 9209WAT     H127869   6.934   7.620   4.735
 9209WAT     H227870   7.096   7.643   4.739
 9210WAT      O27871   3.179   2.962   7.350
 9210WAT     H127872   3.171   2.999   7.443
 9210WAT     H227873   3.261   2.905   7.344
 9211WAT      O27874   0.088   9.186   9.400
 9211WAT     H127875   0.045   9.267   9.361
 9211WAT     H227876   0.184   9.182   9.372
 9212WAT      O27877   6.219   6.755   5.198
 9212WAT     H127878   6.280   6.676   5.201
 9212WAT     H227879   6.253   6.825   5.262
 9213WAT      O27880   2.493   9.739   2.741
 9213WAT     H127881   2.431   9.697   2.806
 9213WAT     H227882   2.470   9.836   2.730
 9214WAT      O27883   4.174   6.028   2.190
 9214WAT     H127884   4.220   6.040   2.102
 9214WAT     H227885   4.135   6.115   2.220
 9215WAT      O27886   2.564   0.180   0.106
 9215WAT     H127887   2.503   0.198   0.029
 9215WAT     H227888   2.525   0.220   0.189
 9216WAT      O27889   9.081   5.054   4.701
 9216WAT     H127890   9.066   4.963   4.741
 9216WAT     H227891   9.053   5.124   4.767
 9217WAT      O27892   1.463   4.899   2.648
 9217WAT     H127893   1.556   4.924   2.626
 9217WAT     H227894   1.399   4.967   2.611
 9218WAT      O27895   8.675   5.940   1.726
 9218WAT     H127896   8.611   6.015   1.740
 9218WAT     H227897   8.716   5.948   1.634
 9219WAT      O27898   6.960   2.048   5.889
 9219WAT     H127899   6.954   2.065   5.988
 9219WAT     H227900   6.942   1.952   5.871
 9220WAT      O27901   3.145   8.617   2.083
 9220WAT     H127902   3.222   8.608   2.019
 9220WAT     H227903   3.073   8.552   2.058
 9221WAT      O27904   1.305   5.373   1.008
 9221WAT     H127905   1.330   5.406   0.917
 9221WAT     H227906   1.218   5.414   1.035
 9222WAT      O27907   3.501   2.622   3.978
 9222WAT     H127908   3.422   2.589   4.031
 9222WAT     H227909   3.479   2.709   3.935
 9223WAT      O27910   8.646   0.766   6.592
 9223WAT     H127911   8.565   0.824   6.582
 9223WAT     H227912   8.704   0.776   6.511
 9224WAT      O27913   1.566   7.319   4.314
 9224WAT     H127914   1.591   7.225   4.336
 9224WAT     H227915   1.537   7.366   4.398
 9225WAT      O27916   2.979   1.812   4.833
 9225WAT     H127917   2.897   1.767   4.797
 9225WAT     H227918   3.056   1.749   4.829
 9226WAT      O27919   4.271   0.774   5.797
 9226WAT     H127920   4.175   0.759   5.820
 9226WAT     H227921   4.317   0.819   5.874
 9227WAT      O27922   7.398   3.432   3.621
 9227WAT     H127923   7.325   3.404   3.683
 9227WAT     H227924   7.419   3.356   3.559
 9228WAT      O27925   8.590   6.644   6.769
 9228WAT     H127926   8.522   6.715   6.750
 9228WAT     H227927   8.676   6.668   6.724
 9229WAT      O27928   7.325   3.593   7.634
 9229WAT     H127929   7.233   3.553   7.635
 9229WAT     H227930   7.359   3.601   7.727
 9230WAT      O27931   6.456   7.586   2.323
 9230WAT     H127932   6.367   7.631   2.333
 9230WAT     H227933   6.525   7.654   2.299
 9231WAT      O27934   6.638   0.670   7.617
 9231WAT     H127935   6.613   0.607   7.691
 9231WAT     H227936   6.697   0.742   7.653
 9232WAT      O27937   5.276   2.450   2.066
 9232WAT     H127938   5.212   2.423   1.994
 9232WAT     H227939   5.281   2.550   2.070
 9233WAT      O27940   9.669   8.531   2.604
 9233WAT     H127941   9.727   8.602   2.644
 9233WAT     H227942   9.700   8.509   2.512
 9234WAT      O27943   4.923   3.212   1.099
 9234WAT     H127944   4.966   3.243   1.184
 9234WAT     H227945   4.993   3.178   1.037
 9235WAT      O27946   5.675   0.408   5.884
 9235WAT     H127947   5.595   0.433   5.829
 9235WAT     H227948   5.748   0.475   5.869
 9236WAT      O27949   7.627   7.022   0.688
 9236WAT     H127950   7.690   6.981   0.755
 9236WAT     H227951   7.557   6.957   0.664
 9237WAT      O27952   1.435   4.764   1.726
 9237WAT     H127953   1.445   4.852   1.680
 9237WAT     H227954   1.360   4.713   1.683
 9238WAT      O27955   7.302   5.601   0.997
 9238WAT     H127956   7.249   5.672   0.950
 9238WAT     H227957   7.282   5.605   1.095
 9239WAT      O27958   3.940   8.349   4.514
 9239WAT     H127959   3.955   8.299   4.599
 9239WAT     H227960   3.922   8.284   4.440
 9240WAT      O27961   7.294   1.892   8.601
 9240WAT     H127962   7.356   1.942   8.540
 9240WAT     H227963   7.330   1.893   8.694
 9241WAT      O27964   4.698   1.754   4.244
 9241WAT     H127965   4.730   1.661   4.227
 9241WAT     H227966   4.599   1.757   4.234
 9242WAT      O27967   3.372   4.127   2.279
 9242WAT     H127968   3.325   4.114   2.366
 9242WAT     H227969   3.345   4.054   2.215
 9243WAT      O27970   0.986   8.679   9.165
 9243WAT     H127971   0.999   8.588   9.204
 9243WAT     H227972   1.003   8.748   9.235
 9244WAT      O27973   2.544   8.829   3.702
 9244WAT     H127974   2.634   8.874   3.704
 9244WAT     H227975   2.541   8.764   3.627
 9245WAT      O27976   7.457   9.767   0.112
 9245WAT     H127977   7.403   9.736   0.191
 9245WAT     H227978   7.553   9.774   0.139
 9246WAT      O27979   4.365   8.470   8.767
 9246WAT     H127980   4.384   8.402   8.696
 9246WAT     H227981   4.450   8.499   8.809
 9247WAT      O27982   3.023   2.791   4.501
 9247WAT     H127983   3.109   2.751   4.534
 9247WAT     H227984   2.950   2.772   4.567
 9248WAT      O27985   1.754   8.815   6.295
 9248WAT     H127986   1.801   8.870   6.227
 9248WAT     H227987   1.661   8.795   6.264
 9249WAT      O27988   5.090   0.667   1.117
 9249WAT     H127989   5.127   0.658   1.024
 9249WAT     H227990   4.992   0.652   1.115
 9250WAT      O27991   8.506   4.904   2.656
 9250WAT     H127992   8.532   5.000   2.646
 9250WAT     H227993   8.580   4.846   2.621
 9251WAT      O27994   9.769   2.953   9.635
 9251WAT     H127995   9.670   2.963   9.647
 9251WAT     H227996   9.813   2.951   9.725
 9252WAT      O27997   1.601   8.409   2.348
 9252WAT     H127998   1.692   8.448   2.332
 9252WAT     H227999   1.580   8.413   2.446
 9253WAT      O28000   1.184   9.531   1.464
 9253WAT     H128001   1.253   9.541   1.535
 9253WAT     H228002   1.134   9.617   1.452
 9254WAT      O28003   4.006   3.058   6.502
 9254WAT     H128004   3.998   3.103   6.413
 9254WAT     H228005   3.916   3.027   6.532
 9255WAT      O28006   0.105   2.873   8.427
 9255WAT     H128007   0.022   2.828   8.460
 9255WAT     H228008   0.140   2.824   8.347
 9256WAT      O28009   2.395   5.366   5.871
 9256WAT     H128010   2.359   5.274   5.889
 9256WAT     H228011   2.382   5.423   5.952
 9257WAT      O28012   0.330   2.518   1.327
 9257WAT     H128013   0.336   2.575   1.245
 9257WAT     H228014   0.291   2.571   1.402
 9258WAT      O28015   2.120   2.524   2.701
 9258WAT     H128016   2.115   2.613   2.656
 9258WAT     H228017   2.157   2.456   2.637
 9259WAT      O28018   3.863   4.854   8.774
 9259WAT     H128019   3.787   4.910   8.809
 9259WAT     H228020   3.852   4.760   8.807
 9260WAT      O28021   9.353   4.930   0.817
 9260WAT     H128022   9.264   4.968   0.793
 9260WAT     H228023   9.400   4.992   0.880
 9261WAT      O28024   3.254   7.520   8.089
 9261WAT     H128025   3.157   7.499   8.098
 9261WAT     H228026   3.283   7.505   7.995
 9262WAT      O28027   3.362   6.354   3.031
 9262WAT     H128028   3.270   6.380   3.003
 9262WAT     H228029   3.395   6.279   2.973
 9263WAT      O28030   8.889   8.996   2.946
 9263WAT     H128031   8.941   9.016   3.030
 9263WAT     H228032   8.921   9.055   2.873
 9264WAT      O28033   9.470   8.268   3.593
 9264WAT     H128034   9.384   8.216   3.595
 9264WAT     H228035   9.470   8.329   3.513
 9265WAT      O28036   9.098   1.317   6.063
 9265WAT     H128037   9.070   1.403   6.020
 9265WAT     H228038   9.061   1.312   6.156
 9266WAT      O28039   4.122   6.940   7.294
 9266WAT     H128040   4.105   7.006   7.367
 9266WAT     H228041   4.138   6.850   7.334
 9267WAT      O28042   9.509   3.695   3.500
 9267WAT     H128043   9.464   3.658   3.582
 9267WAT     H228044   9.603   3.661   3.496
 9268WAT      O28045   4.198   8.708   3.574
 9268WAT     H128046   4.212   8.630   3.512
 9268WAT     H228047   4.272   8.710   3.641
 9269WAT      O28048   3.376   5.703   9.315
 9269WAT     H128049   3.402   5.785   9.365
 9269WAT     H228050   3.282   5.678   9.339
 9270WAT      O28051   7.391   6.576   3.788
 9270WAT     H128052   7.417   6.654   3.845
 9270WAT     H228053   7.358   6.609   3.700
 9271WAT      O28054   6.007   5.624   8.922
 9271WAT     H128055   6.078   5.591   8.984
 9271WAT     H228056   5.920   5.579   8.943
 9272WAT      O28057   7.370   3.351   3.257
 9272WAT     H128058   7.381   3.437   3.306
 9272WAT     H228059   7.459   3.307   3.245
 9273WAT      O28060   8.328   5.360   5.268
 9273WAT     H128061   8.332   5.351   5.168
 9273WAT     H228062   8.415   5.395   5.302
 9274WAT      O28063   3.471   3.592   2.558
 9274WAT     H128064   3.433   3.673   2.513
 9274WAT     H228065   3.470   3.606   2.657
 9275WAT      O28066   4.085   5.523   5.636
 9275WAT     H128067   4.032   5.595   5.680
 9275WAT     H228068   4.125   5.464   5.707
 9276WAT      O28069   0.820   9.242   0.955
 9276WAT     H128070   0.744   9.184   0.925
 9276WAT     H228071   0.799   9.281   1.045
 9277WAT      O28072   8.424   4.504   8.325
 9277WAT     H128073   8.330   4.536   8.341
 9277WAT     H228074   8.437   4.490   8.227
 9278WAT      O28075   8.805   9.588   1.373
 9278WAT     H128076   8.799   9.667   1.434
 9278WAT     H228077   8.748   9.514   1.409
 9279WAT      O28078   9.259   1.729   7.997
 9279WAT     H128079   9.194   1.767   7.932
 9279WAT     H228080   9.233   1.635   8.019
 9280WAT      O28081   6.665   9.317   2.383
 9280WAT     H128082   6.577   9.268   2.387
 9280WAT     H228083   6.648   9.413   2.361
 9281WAT      O28084   7.758   7.627   6.814
 9281WAT     H128085   7.676   7.572   6.799
 9281WAT     H228086   7.782   7.674   6.729
 9282WAT      O28087   3.824   0.171   9.830
 9282WAT     H128088   3.817   0.168   9.730
 9282WAT     H228089   3.917   0.145   9.857
 9283WAT      O28090   4.558   1.108   4.913
 9283WAT     H128091   4.622   1.038   4.882
 9283WAT     H228092   4.497   1.133   4.837
 9284WAT      O28093   1.930   6.936   7.309
 9284WAT     H128094   1.867   6.940   7.232
 9284WAT     H228095   1.896   6.871   7.377
 9285WAT      O28096   4.392   1.390   5.388
 9285WAT     H128097   4.323   1.365   5.321
 9285WAT     H228098   4.417   1.309   5.442
 9286WAT      O28099   5.572   9.299   0.601
 9286WAT     H128100   5.597   9.389   0.568
 9286WAT     H228101   5.479   9.301   0.637
 9287WAT      O28102   3.746   6.458   1.673
 9287WAT     H128103   3.768   6.390   1.603
 9287WAT     H228104   3.792   6.544   1.651
 9288WAT      O28105   4.305   0.604   5.247
 9288WAT     H128106   4.228   0.545   5.225
 9288WAT     H228107   4.273   0.697   5.261
 9289WAT      O28108   4.935   9.103   3.242
 9289WAT     H128109   5.025   9.132   3.273
 9289WAT     H228110   4.901   9.031   3.303
 9290WAT      O28111   1.817   1.577   2.877
 9290WAT     H128112   1.787   1.488   2.843
 9290WAT     H228113   1.864   1.626   2.804
 9291WAT      O28114   1.606   3.215   4.223
 9291WAT     H128115   1.697   3.224   4.263
 9291WAT     H228116   1.603   3.262   4.135
 9292WAT      O28117   6.273   7.014   3.234
 9292WAT     H128118   6.218   6.954   3.292
 9292WAT     H228119   6.234   7.106   3.233
 9293WAT      O28120   3.873   0.248   4.072
 9293WAT     H128121   3.972   0.247   4.061
 9293WAT     H228122   3.838   0.154   4.071
 9294WAT      O28123   0.451   2.230   5.232
 9294WAT     H128124   0.472   2.153   5.293
 9294WAT     H228125   0.387   2.292   5.277
 9295WAT      O28126   5.988   8.248   9.255
 9295WAT     H128127   6.019   8.236   9.349
 9295WAT     H228128   6.067   8.255   9.194
 9296WAT      O28129   5.758   1.053   1.796
 9296WAT     H128130   5.729   1.005   1.713
 9296WAT     H228131   5.788   1.146   1.772
 9297WAT      O28132   5.005   0.002   0.012
 9297WAT     H128133   5.083  -0.059  -0.001
 9297WAT     H228134   5.028   0.072   0.079
 9298WAT      O28135   0.252   2.240   4.968
 9298WAT     H128136   0.311   2.240   5.048
 9298WAT     H228137   0.298   2.194   4.892
 9299WAT      O28138   8.670   6.380   6.260
 9299WAT     H128139   8.633   6.308   6.201
 9299WAT     H228140   8.689   6.342   6.350
 9300WAT      O28141   0.407   7.999   9.180
 9300WAT     H128142   0.387   8.053   9.098
 9300WAT     H228143   0.353   7.915   9.178
 9301WAT      O28144   3.250   7.023   3.561
 9301WAT     H128145   3.244   7.065   3.652
 9301WAT     H228146   3.238   6.924   3.568
 9302WAT      O28147   1.852   4.176   9.735
 9302WAT     H128148   1.926   4.110   9.741
 9302WAT     H228149   1.868   4.249   9.802
 9303WAT      O28150   5.382   7.340   7.508
 9303WAT     H128151   5.387   7.249   7.467
 9303WAT     H228152   5.288   7.360   7.533
 9304WAT      O28153   1.996   9.564   3.728
 9304WAT     H128154   2.068   9.516   3.777
 9304WAT     H228155   1.910   9.554   3.776
 9305WAT      O28156   9.267   5.777   5.230
 9305WAT     H128157   9.302   5.812   5.317
 9305WAT     H228158   9.322   5.698   5.202
 9306WAT      O28159   4.289   9.491   2.250
 9306WAT     H128160   4.379   9.503   2.291
 9306WAT     H228161   4.299   9.461   2.155
 9307WAT      O28162   9.371   2.910   3.888
 9307WAT     H128163   9.320   2.898   3.973
 9307WAT     H228164   9.318   2.967   3.826
 9308WAT      O28165   0.988   8.224   7.947
 9308WAT     H128166   0.958   8.214   7.852
 9308WAT     H228167   0.969   8.317   7.979
 9309WAT      O28168   0.587   5.333   8.165
 9309WAT     H128169   0.569   5.281   8.081
 9309WAT     H228170   0.685   5.352   8.172
 9310WAT      O28171   6.731   5.566   4.800
 9310WAT     H128172   6.680   5.564   4.714
 9310WAT     H228173   6.791   5.647   4.801
 9311WAT      O28174   4.706   9.053   6.872
 9311WAT     H128175   4.784   8.993   6.855
 9311WAT     H228176   4.643   9.009   6.936
 9312WAT      O28177   8.239   4.104   6.114
 9312WAT     H128178   8.239   4.065   6.022
 9312WAT     H228179   8.186   4.189   6.115
 9313WAT      O28180   8.116   2.438   5.294
 9313WAT     H128181   8.082   2.493   5.370
 9313WAT     H228182   8.110   2.490   5.209
 9314WAT      O28183   5.788   8.702   2.355
 9314WAT     H128184   5.864   8.766   2.344
 9314WAT     H228185   5.796   8.629   2.287
 9315WAT      O28186   1.190   4.130   4.350
 9315WAT     H128187   1.255   4.152   4.277
 9315WAT     H228188   1.097   4.148   4.317
 9316WAT      O28189   2.778   8.081   3.623
 9316WAT     H128190   2.749   8.153   3.687
 9316WAT     H228191   2.720   8.000   3.635
 9317WAT      O28192   2.530   7.626   7.861
 9317WAT     H128193   2.470   7.632   7.941
 9317WAT     H228194   2.487   7.673   7.784
 9318WAT      O28195   8.096   7.822   7.398
 9318WAT     H128196   8.154   7.895   7.436
 9318WAT     H228197   8.004   7.832   7.435
 9319WAT      O28198   1.874   2.115   2.736
 9319WAT     H128199   1.818   2.187   2.777
 9319WAT     H228200   1.902   2.050   2.807
 9320WAT      O28201   4.999   0.255   9.103
 9320WAT     H128202   5.095   0.228   9.108
 9320WAT     H228203   4.975   0.307   9.185
 9321WAT      O28204   6.918   6.145   5.379
 9321WAT     H128205   6.950   6.223   5.433
 9321WAT     H228206   6.942   6.158   5.283
 9322WAT      O28207   2.551   1.930   3.772
 9322WAT     H128208   2.479   1.981   3.820
 9322WAT     H228209   2.551   1.835   3.805
 9323WAT      O28210   6.829   7.924   5.125
 9323WAT     H128211   6.834   7.846   5.187
 9323WAT     H228212   6.893   7.995   5.155
 9324WAT      O28213   6.991   8.572   2.273
 9324WAT     H128214   6.920   8.522   2.223
 9324WAT     H228215   6.975   8.670   2.266
 9325WAT      O28216   4.068   5.112   0.391
 9325WAT     H128217   4.076   5.155   0.301
 9325WAT     H228218   4.022   5.024   0.382
 9326WAT      O28219   6.420   0.902   1.921
 9326WAT     H128220   6.411   0.959   1.839
 9326WAT     H228221   6.365   0.820   1.911
 9327WAT      O28222   4.721   0.576   8.319
 9327WAT     H128223   4.714   0.566   8.219
 9327WAT     H228224   4.782   0.651   8.341
 9328WAT      O28225   2.346   4.800   2.322
 9328WAT     H128226   2.358   4.858   2.403
 9328WAT     H228227   2.365   4.705   2.346
 9329WAT      O28228   3.641   8.614   3.762
 9329WAT     H128229   3.544   8.596   3.779
 9329WAT     H228230   3.651   8.697   3.708
 9330WAT      O28231   4.651   9.585   6.368
 9330WAT     H128232   4.619   9.508   6.423
 9330WAT     H228233   4.598   9.590   6.283
 9331WAT      O28234   4.805   5.825   1.537
 9331WAT     H128235   4.897   5.861   1.518
 9331WAT     H228236   4.786   5.831   1.635
 9332WAT      O28237   3.176   2.525   1.910
 9332WAT     H128238   3.203   2.537   2.005
 9332WAT     H228239   3.206   2.604   1.856
 9333WAT      O28240   2.395   4.207   8.607
 9333WAT     H128241   2.405   4.292   8.554
 9333WAT     H228242   2.409   4.129   8.546
 9334WAT      O28243   6.219   3.604   5.876
 9334WAT     H128244   6.225   3.690   5.825
 9334WAT     H228245   6.124   3.584   5.896
 9335WAT      O28246   8.741   0.110   3.934
 9335WAT     H128247   8.698   0.197   3.909
 9335WAT     H228248   8.776   0.116   4.028
 9336WAT      O28249   6.187   0.731   4.647
 9336WAT     H128250   6.128   0.778   4.581
 9336WAT     H228251   6.253   0.674   4.599
 9337WAT      O28252   7.042   0.859   6.475
 9337WAT     H128253   7.050   0.765   6.441
 9337WAT     H228254   7.073   0.864   6.570
 9338WAT      O28255   5.111   1.009   9.700
 9338WAT     H128256   5.098   1.081   9.632
 9338WAT     H228257   5.022   0.980   9.735
 9339WAT      O28258   6.338   5.270   1.994
 9339WAT     H128259   6.322   5.280   2.092
 9339WAT     H228260   6.311   5.353   1.946
 9340WAT      O28261   6.212   9.574   2.658
 9340WAT     H128262   6.255   9.517   2.728
 9340WAT     H228263   6.167   9.516   2.590
 9341WAT      O28264   4.970   7.580   0.740
 9341WAT     H128265   4.905   7.655   0.749
 9341WAT     H228266   4.927   7.495   0.773
 9342WAT      O28267   8.555   2.485   3.473
 9342WAT     H128268   8.529   2.476   3.377
 9342WAT     H228269   8.562   2.394   3.515
 9343WAT      O28270   7.757   4.445   6.392
 9343WAT     H128271   7.737   4.454   6.295
 9343WAT     H228272   7.736   4.532   6.438
 9344WAT      O28273   7.225   4.943   7.719
 9344WAT     H128274   7.240   4.882   7.797
 9344WAT     H228275   7.254   5.036   7.744
 9345WAT      O28276   0.209   5.546   3.511
 9345WAT     H128277   0.272   5.616   3.477
 9345WAT     H228278   0.188   5.481   3.438
 9346WAT      O28279   6.645   6.839   7.424
 9346WAT     H128280   6.552   6.875   7.433
 9346WAT     H228281   6.707   6.913   7.401
 9347WAT      O28282   4.078   0.479   5.251
 9347WAT     H128283   4.003   0.541   5.273
 9347WAT     H228284   4.092   0.416   5.327
 9348WAT      O28285   1.437   4.617   8.092
 9348WAT     H128286   1.421   4.525   8.056
 9348WAT     H228287   1.520   4.654   8.049
 9349WAT      O28288   0.142   5.521   7.481
 9349WAT     H128289   0.241   5.517   7.472
 9349WAT     H228290   0.100   5.517   7.391
 9350WAT      O28291   5.918   6.102   3.375
 9350WAT     H128292   5.914   6.005   3.399
 9350WAT     H228293   5.959   6.153   3.450
 9351WAT      O28294   7.653   3.751   3.977
 9351WAT     H128295   7.750   3.761   3.995
 9351WAT     H228296   7.620   3.830   3.925
 9352WAT      O28297   5.619   2.757   5.958
 9352WAT     H128298   5.708   2.769   6.002
 9352WAT     H228299   5.624   2.682   5.892
 9353WAT      O28300   1.578   7.377   0.688
 9353WAT     H128301   1.662   7.379   0.634
 9353WAT     H228302   1.590   7.431   0.771
 9354WAT      O28303   7.513   2.497   9.182
 9354WAT     H128304   7.551   2.580   9.223
 9354WAT     H228305   7.428   2.520   9.133
 9355WAT      O28306   0.154   1.607   3.078
 9355WAT     H128307   0.083   1.631   3.011
 9355WAT     H228308   0.216   1.685   3.090
 9356WAT      O28309   7.877   3.125   8.878
 9356WAT     H128310   7.918   3.047   8.926
 9356WAT     H228311   7.805   3.092   8.816
 9357WAT      O28312   9.240   0.927   2.611
 9357WAT     H128313   9.284   1.010   2.646
 9357WAT     H228314   9.170   0.896   2.676
 9358WAT      O28315   1.150   6.358   2.606
 9358WAT     H128316   1.148   6.258   2.604
 9358WAT     H228317   1.172   6.389   2.699
 9359WAT      O28318   0.974   1.191   4.368
 9359WAT     H128319   1.030   1.264   4.408
 9359WAT     H228320   0.894   1.176   4.425
 9360WAT      O28321   5.175   9.263   6.290
 9360WAT     H128322   5.127   9.318   6.359
 9360WAT     H228323   5.183   9.168   6.323
 9361WAT      O28324   9.307   2.829   9.740
 9361WAT     H128325   9.287   2.864   9.831
 9361WAT     H228326   9.231   2.852   9.678
 9362WAT      O28327   6.944   5.253   5.658
 9362WAT     H128328   6.972   5.281   5.566
 9362WAT     H228329   6.847   5.228   5.657
 9363WAT      O28330   8.239   5.570   5.575
 9363WAT     H128331   8.295   5.492   5.602
 9363WAT     H228332   8.233   5.635   5.651
 9364WAT      O28333   7.416   2.153   7.538
 9364WAT     H128334   7.349   2.086   7.568
 9364WAT     H228335   7.382   2.200   7.456
 9365WAT      O28336   2.881   2.346   7.680
 9365WAT     H128337   2.966   2.317   7.635
 9365WAT     H228338   2.902   2.379   7.772
 9366WAT      O28339   5.891   4.673   5.564
 9366WAT     H128340   5.967   4.687   5.501
 9366WAT     H228341   5.915   4.711   5.653
 9367WAT      O28342   5.677   8.532   9.847
 9367WAT     H128343   5.644   8.523   9.753
 9367WAT     H228344   5.630   8.466   9.905
 9368WAT      O28345   4.111   3.717   4.582
 9368WAT     H128346   4.022   3.698   4.541
 9368WAT     H228347   4.102   3.788   4.652
 9369WAT      O28348   6.080   8.057   2.284
 9369WAT     H128349   6.166   8.099   2.256
 9369WAT     H228350   6.068   7.970   2.235
 9370WAT      O28351   0.757   0.892   8.957
 9370WAT     H128352   0.815   0.881   8.876
 9370WAT     H228353   0.748   0.804   9.004
 9371WAT      O28354   4.693   5.282   0.126
 9371WAT     H128355   4.669   5.186   0.111
 9371WAT     H228356   4.670   5.335   0.045
 9372WAT      O28357   0.808   0.177   0.879
 9372WAT     H128358   0.853   0.101   0.833
 9372WAT     H228359   0.875   0.226   0.935
 9373WAT      O28360   8.483   1.599   7.097
 9373WAT     H128361   8.572   1.554   7.087
 9373WAT     H228362   8.411   1.535   7.070
 9374WAT      O28363   6.088   4.188   5.999
 9374WAT     H128364   6.130   4.198   6.089
 9374WAT     H228365   6.036   4.270   5.977
 9375WAT      O28366   2.090   1.816   4.578
 9375WAT     H128367   2.099   1.731   4.526
 9375WAT     H228368   2.175   1.834   4.628
 9376WAT      O28369   9.180   6.446   2.550
 9376WAT     H128370   9.084   6.470   2.539
 9376WAT     H228371   9.188   6.348   2.567
 9377WAT      O28372   3.460   0.841   8.866
 9377WAT     H128373   3.427   0.748   8.883
 9377WAT     H228374   3.451   0.895   8.950
 9378WAT      O28375   0.969   1.665   4.997
 9378WAT     H128376   0.973   1.730   5.073
 9378WAT     H228377   0.890   1.605   5.008
 9379WAT      O28378   7.634   9.540   6.091
 9379WAT     H128379   7.687   9.569   6.012
 9379WAT     H228380   7.543   9.509   6.062
 9380WAT      O28381   5.482   3.154   0.419
 9380WAT     H128382   5.516   3.230   0.475
 9380WAT     H228383   5.517   3.164   0.326
 9381WAT      O28384   8.844   0.243   8.801
 9381WAT     H128385   8.773   0.265   8.734
 9381WAT     H228386   8.894   0.326   8.825
 9382WAT      O28387   4.966   1.900   6.601
 9382WAT     H128388   4.931   1.898   6.695
 9382WAT     H228389   4.978   1.994   6.572
 9383WAT      O28390   1.438   1.199   4.532
 9383WAT     H128391   1.448   1.177   4.435
 9383WAT     H228392   1.383   1.130   4.577
 9384WAT      O28393   8.155   6.643   5.829
 9384WAT     H128394   8.066   6.648   5.874
 9384WAT     H228395   8.225   6.622   5.897
 9385WAT      O28396   5.390   6.496   3.541
 9385WAT     H128397   5.435   6.578   3.506
 9385WAT     H228398   5.455   6.420   3.543
 9386WAT      O28399   4.118   9.597   6.406
 9386WAT     H128400   4.040   9.547   6.444
 9386WAT     H228401   4.093   9.693   6.392
 9387WAT      O28402   1.054   8.813   0.231
 9387WAT     H128403   1.042   8.912   0.222
 9387WAT     H228404   1.116   8.780   0.159
 9388WAT      O28405   1.550   9.349   6.872
 9388WAT     H128406   1.513   9.411   6.803
 9388WAT     H228407   1.643   9.322   6.846
 9389WAT      O28408   5.217   4.752   1.392
 9389WAT     H128409   5.191   4.742   1.488
 9389WAT     H228410   5.313   4.776   1.385
 9390WAT      O28411   3.760   6.848   4.907
 9390WAT     H128412   3.855   6.849   4.936
 9390WAT     H228413   3.729   6.941   4.890
 9391WAT      O28414   5.944   7.123   8.672
 9391WAT     H128415   5.932   7.203   8.730
 9391WAT     H228416   5.855   7.081   8.655
 9392WAT      O28417   6.217   5.819   1.711
 9392WAT     H128418   6.186   5.892   1.773
 9392WAT     H228419   6.195   5.731   1.752
 9393WAT      O28420   2.733   5.258   4.218
 9393WAT     H128421   2.683   5.229   4.136
 9393WAT     H228422   2.732   5.358   4.224
 9394WAT      O28423   6.046   1.777   5.769
 9394WAT     H128424   6.065   1.867   5.810
 9394WAT     H228425   6.042   1.708   5.841
 9395WAT      O28426   9.316   6.314   9.813
 9395WAT     H128427   9.268   6.396   9.781
 9395WAT     H228428   9.272   6.233   9.774
 9396WAT      O28429   0.370   8.406   1.966
 9396WAT     H128430   0.395   8.490   1.917
 9396WAT     H228431   0.369   8.425   2.064
 9397WAT      O28432   6.677   7.885   2.219
 9397WAT     H128433   6.621   7.829   2.158
 9397WAT     H228434   6.716   7.962   2.167
 9398WAT      O28435   6.789   5.416   2.511
 9398WAT     H128436   6.829   5.412   2.420
 9398WAT     H228437   6.861   5.411   2.580
 9399WAT      O28438   4.102   6.190   3.872
 9399WAT     H128439   4.020   6.213   3.820
 9399WAT     H228440   4.174   6.256   3.851
 9400WAT      O28441   9.665   6.337   4.159
 9400WAT     H128442   9.722   6.278   4.217
 9400WAT     H228443   9.584   6.286   4.131
 9401WAT      O28444   4.073   3.827   8.474
 9401WAT     H128445   3.982   3.785   8.473
 9401WAT     H228446   4.102   3.840   8.569
 9402WAT      O28447   2.876   9.584   5.374
 9402WAT     H128448   2.778   9.564   5.376
 9402WAT     H228449   2.891   9.677   5.340
 9403WAT      O28450   5.182   6.543   3.364
 9403WAT     H128451   5.150   6.637   3.378
 9403WAT     H228452   5.264   6.527   3.419
 9404WAT      O28453   3.956   5.811   7.000
 9404WAT     H128454   3.868   5.859   7.000
 9404WAT     H228455   4.009   5.839   7.079
 9405WAT      O28456   8.732   8.171   9.058
 9405WAT     H128457   8.816   8.202   9.013
 9405WAT     H228458   8.670   8.132   8.989
 9406WAT      O28459   7.316   6.622   4.207
 9406WAT     H128460   7.309   6.606   4.305
 9406WAT     H228461   7.242   6.681   4.177
 9407WAT      O28462   0.299   5.375   2.234
 9407WAT     H128463   0.361   5.298   2.252
 9407WAT     H228464   0.341   5.459   2.268
 9408WAT      O28465   3.987   5.104   0.991
 9408WAT     H128466   3.976   5.196   1.029
 9408WAT     H228467   3.908   5.081   0.935
 9409WAT      O28468   3.372   7.665   3.315
 9409WAT     H128469   3.397   7.587   3.373
 9409WAT     H228470   3.450   7.725   3.304
 9410WAT      O28471   3.102   8.638   4.184
 9410WAT     H128472   3.114   8.652   4.086
 9410WAT     H228473   3.151   8.556   4.212
 9411WAT      O28474   8.183   0.560   5.036
 9411WAT     H128475   8.162   0.463   5.024
 9411WAT     H228476   8.250   0.588   4.967
 9412WAT      O28477   3.649   5.151   9.837
 9412WAT     H128478   3.574   5.180   9.896
 9412WAT     H228479   3.615   5.083   9.771
 9413WAT      O28480   6.677   4.620   3.498
 9413WAT     H128481   6.755   4.580   3.547
 9413WAT     H228482   6.613   4.547   3.475
 9414WAT      O28483   2.009   5.756   3.104
 9414WAT     H128484   1.943   5.711   3.163
 9414WAT     H228485   1.985   5.852   3.094
 9415WAT      O28486   6.307   4.360   5.481
 9415WAT     H128487   6.237   4.295   5.509
 9415WAT     H228488   6.347   4.331   5.395
 9416WAT      O28489   1.161   4.926   2.086
 9416WAT     H128490   1.232   4.903   2.153
 9416WAT     H228491   1.073   4.935   2.132
 9417WAT      O28492   6.659   6.158   4.733
 9417WAT     H128493   6.610   6.239   4.701
 9417WAT     H228494   6.653   6.086   4.663
 9418WAT      O28495   6.472   0.489   9.498
 9418WAT     H128496   6.507   0.411   9.551
 9418WAT     H228497   6.495   0.574   9.546
 9419WAT      O28498   8.352   5.021   6.197
 9419WAT     H128499   8.373   4.941   6.252
 9419WAT     H228500   8.307   4.993   6.112
 9420WAT      O28501   7.230   1.609   8.243
 9420WAT     H128502   7.264   1.516   8.259
 9420WAT     H228503   7.168   1.609   8.165
 9421WAT      O28504   7.565   0.203   4.981
 9421WAT     H128505   7.579   0.136   5.054
 9421WAT     H228506   7.603   0.166   4.896
 9422WAT      O28507   8.309   0.602   4.769
 9422WAT     H128508   8.302   0.505   4.791
 9422WAT     H228509   8.274   0.619   4.677
 9423WAT      O28510   5.665   0.196   7.121
 9423WAT     H128511   5.753   0.243   7.125
 9423WAT     H228512   5.679   0.098   7.108
 9424WAT      O28513   8.420   0.319   6.936
 9424WAT     H128514   8.425   0.292   7.033
 9424WAT     H228515   8.435   0.417   6.928
 9425WAT      O28516   4.971   8.732   2.666
 9425WAT     H128517   4.915   8.674   2.606
 9425WAT     H228518   4.911   8.784   2.727
 9426WAT      O28519   3.351   9.446   7.524
 9426WAT     H128520   3.444   9.434   7.559
 9426WAT     H228521   3.298   9.363   7.542
 9427WAT      O28522   9.371   5.494   3.318
 9427WAT     H128523   9.401   5.564   3.383
 9427WAT     H228524   9.340   5.538   3.233
 9428WAT      O28525   8.925   0.252   5.887
 9428WAT     H128526   8.848   0.260   5.951
 9428WAT     H228527   8.995   0.192   5.926
 9429WAT      O28528   7.106   1.888   1.230
 9429WAT     H128529   7.090   1.829   1.310
 9429WAT     H228530   7.030   1.953   1.222
 9430WAT      O28531   2.035   2.840   9.385
 9430WAT     H128532   2.023   2.924   9.332
 9430WAT     H228533   2.065   2.766   9.324
 9431WAT      O28534   1.645   7.505   1.208
 9431WAT     H128535   1.693   7.532   1.291
 9431WAT     H228536   1.604   7.414   1.222
 9432WAT      O28537   0.365   2.713   2.336
 9432WAT     H128538   0.267   2.726   2.322
 9432WAT     H228539   0.400   2.649   2.267
 9433WAT      O28540   6.904   4.308   7.722
 9433WAT     H128541   6.976   4.344   7.663
 9433WAT     H228542   6.903   4.357   7.809
 9434WAT      O28543   9.387   6.403   3.054
 9434WAT     H128544   9.343   6.345   3.122
 9434WAT     H228545   9.379   6.361   2.964
 9435WAT      O28546   6.993   0.883   9.077
 9435WAT     H128547   6.905   0.921   9.106
 9435WAT     H228548   7.062   0.903   9.147
 9436WAT      O28549   8.299   1.614   7.358
 9436WAT     H128550   8.304   1.609   7.457
 9436WAT     H228551   8.388   1.589   7.319
 9437WAT      O28552   3.443   5.620   4.247
 9437WAT     H128553   3.498   5.541   4.272
 9437WAT     H228554   3.389   5.649   4.327
 9438WAT      O28555   7.956   0.761   3.752
 9438WAT     H128556   8.007   0.770   3.667
 9438WAT     H228557   8.019   0.744   3.828
 9439WAT      O28558   4.725   9.482   2.138
 9439WAT     H128559   4.676   9.398   2.163
 9439WAT     H228560   4.692   9.557   2.195
 9440WAT      O28561   3.189   3.525   0.182
 9440WAT     H128562   3.185   3.624   0.169
 9440WAT     H228563   3.278   3.500   0.220
 9441WAT      O28564   4.520   6.773   7.181
 9441WAT     H128565   4.486   6.804   7.092
 9441WAT     H228566   4.509   6.847   7.248
 9442WAT      O28567   6.965   3.431   0.129
 9442WAT     H128568   6.915   3.417   0.215
 9442WAT     H228569   7.007   3.346   0.100
 9443WAT      O28570   6.159   5.895   7.867
 9443WAT     H128571   6.086   5.873   7.931
 9443WAT     H228572   6.214   5.971   7.902
 9444WAT      O28573   5.503   3.828   2.498
 9444WAT     H128574   5.470   3.822   2.592
 9444WAT     H228575   5.581   3.891   2.494
 9445WAT      O28576   1.018   9.361   3.973
 9445WAT     H128577   0.933   9.376   4.024
 9445WAT     H228578   1.051   9.448   3.937
 9446WAT      O28579   2.419   4.794   0.530
 9446WAT     H128580   2.382   4.876   0.573
 9446WAT     H228581   2.381   4.713   0.574
 9447WAT      O28582   6.226   3.066   2.282
 9447WAT     H128583   6.136   3.049   2.243
 9447WAT     H228584   6.225   3.041   2.379
 9448WAT      O28585   5.772   9.274   7.295
 9448WAT     H128586   5.756   9.183   7.334
 9448WAT     H228587   5.802   9.265   7.200
 9449WAT      O28588   5.312   0.868   8.408
 9449WAT     H128589   5.347   0.849   8.500
 9449WAT     H228590   5.232   0.927   8.415
 9450WAT      O28591   1.262   9.707   1.818
 9450WAT     H128592   1.322   9.689   1.896
 9450WAT     H228593   1.307   9.677   1.734
 9451WAT      O28594   5.977   2.767   3.053
 9451WAT     H128595   6.010   2.740   2.963
 9451WAT     H228596   5.881   2.739   3.063
 9452WAT      O28597   1.533   7.938   1.329
 9452WAT     H128598   1.448   7.950   1.380
 9452WAT     H228599   1.606   7.908   1.390
 9453WAT      O28600   2.771   7.692   9.807
 9453WAT     H128601   2.828   7.745   9.870
 9453WAT     H228602   2.797   7.595   9.814
 9454WAT      O28603   6.669   2.040   8.873
 9454WAT     H128604   6.766   2.018   8.882
 9454WAT     H228605   6.626   2.040   8.963
 9455WAT      O28606   1.423   7.682   0.589
 9455WAT     H128607   1.367   7.721   0.516
 9455WAT     H228608   1.510   7.650   0.551
 9456WAT      O28609   6.481   8.892   2.079
 9456WAT     H128610   6.506   8.989   2.071
 9456WAT     H228611   6.397   8.876   2.027
 9457WAT      O28612   9.294   9.766   4.867
 9457WAT     H128613   9.215   9.734   4.816
 9457WAT     H228614   9.359   9.809   4.804
 9458WAT      O28615   1.834   3.713   1.597
 9458WAT     H128616   1.792   3.763   1.522
 9458WAT     H228617   1.784   3.732   1.682
 9459WAT      O28618   3.311   5.656   4.481
 9459WAT     H128619   3.333   5.754   4.486
 9459WAT     H228620   3.219   5.645   4.443
 9460WAT      O28621   8.627   3.823   8.094
 9460WAT     H128622   8.585   3.782   8.176
 9460WAT     H228623   8.600   3.771   8.013
 9461WAT      O28624   9.096   7.948   9.468
 9461WAT     H128625   9.150   7.924   9.549
 9461WAT     H228626   9.107   7.877   9.398
 9462WAT      O28627   4.774   3.739   8.315
 9462WAT     H128628   4.825   3.796   8.380
 9462WAT     H228629   4.693   3.789   8.284
 9463WAT      O28630   4.978   3.539   7.611
 9463WAT     H128631   5.056   3.598   7.632
 9463WAT     H228632   4.960   3.542   7.512
 9464WAT      O28633   7.671   4.755   5.892
 9464WAT     H128634   7.760   4.755   5.846
 9464WAT     H228635   7.598   4.754   5.824
 9465WAT      O28636   5.035   2.684   2.936
 9465WAT     H128637   4.951   2.727   2.901
 9465WAT     H228638   5.019   2.652   3.029
 9466WAT      O28639   3.419   2.043   0.326
 9466WAT     H128640   3.412   2.131   0.279
 9466WAT     H228641   3.395   2.055   0.422
 9467WAT      O28642   0.094   9.382   2.321
 9467WAT     H128643   0.017   9.401   2.260
 9467WAT     H228644   0.179   9.410   2.278
 9468WAT      O28645   3.502   1.656   1.094
 9468WAT     H128646   3.580   1.621   1.146
 9468WAT     H228647   3.461   1.733   1.144
 9469WAT      O28648   6.580   3.778   8.729
 9469WAT     H128649   6.533   3.735   8.806
 9469WAT     H228650   6.518   3.844   8.686
 9470WAT      O28651   0.891   5.073   3.720
 9470WAT     H128652   0.962   5.115   3.777
 9470WAT     H228653   0.823   5.030   3.779
 9471WAT      O28654   6.653   4.504   4.570
 9471WAT     H128655   6.640   4.407   4.590
 9471WAT     H228656   6.642   4.556   4.654
 9472WAT      O28657   6.926   5.960   3.867
 9472WAT     H128658   7.025   5.970   3.875
 9472WAT     H228659   6.884   6.051   3.873
 9473WAT      O28660   7.647   5.969   2.389
 9473WAT     H128661   7.691   6.037   2.448
 9473WAT     H228662   7.676   5.877   2.418
 9474WAT      O28663   5.321   2.380   7.496
 9474WAT     H128664   5.367   2.469   7.501
 9474WAT     H228665   5.379   2.310   7.538
 9475WAT      O28666   4.679   7.509   7.233
 9475WAT     H128667   4.637   7.551   7.313
 9475WAT     H228668   4.753   7.567   7.199
 9476WAT      O28669   5.035   8.205   9.094
 9476WAT     H128670   5.025   8.135   9.165
 9476WAT     H228671   5.039   8.295   9.137
 9477WAT      O28672   6.545   1.263   1.480
 9477WAT     H128673   6.477   1.222   1.420
 9477WAT     H228674   6.526   1.361   1.489
 9478WAT      O28675   2.500   1.280   0.591
 9478WAT     H128676   2.572   1.301   0.525
 9478WAT     H228677   2.518   1.328   0.676
 9479WAT      O28678   5.944   6.481   9.171
 9479WAT     H128679   6.004   6.552   9.207
 9479WAT     H228680   5.999   6.409   9.128
 9480WAT      O28681   1.753   9.833   5.256
 9480WAT     H128682   1.701   9.762   5.208
 9480WAT     H228683   1.707   9.857   5.341
 9481WAT      O28684   2.920   1.432   7.401
 9481WAT     H128685   2.981   1.478   7.465
 9481WAT     H228686   2.920   1.481   7.314
 9482WAT      O28687   6.560   6.895   8.744
 9482WAT     H128688   6.646   6.867   8.787
 9482WAT     H228689   6.528   6.822   8.683
 9483WAT      O28690   6.027   5.639   8.642
 9483WAT     H128691   6.009   5.545   8.613
 9483WAT     H228692   6.038   5.641   8.742
 9484WAT      O28693   0.834   8.990   3.921
 9484WAT     H128694   0.765   9.045   3.967
 9484WAT     H228695   0.892   9.049   3.865
 9485WAT      O28696   7.526   6.168   2.670
 9485WAT     H128697   7.620   6.178   2.635
 9485WAT     H228698   7.515   6.225   2.751
 9486WAT      O28699   6.021   9.726   6.819
 9486WAT     H128700   5.932   9.769   6.802
 9486WAT     H228701   6.077   9.734   6.736
 9487WAT      O28702   8.299   0.783   8.794
 9487WAT     H128703   8.284   0.775   8.695
 9487WAT     H228704   8.211   0.779   8.841
 9488WAT      O28705   0.979   1.066   7.267
 9488WAT     H128706   0.981   1.109   7.176
 9488WAT     H228707   0.923   1.122   7.329
 9489WAT      O28708   4.656   6.143   3.833
 9489WAT     H128709   4.725   6.171   3.899
 9489WAT     H228710   4.662   6.200   3.751
 9490WAT      O28711   7.544   8.781   8.060
 9490WAT     H128712   7.463   8.726   8.077
 9490WAT     H228713   7.527   8.842   7.983
 9491WAT      O28714   5.738   2.876   5.414
 9491WAT     H128715   5.740   2.829   5.326
 9491WAT     H228716   5.749   2.810   5.488
 9492WAT      O28717   8.778   4.906   5.024
 9492WAT     H128718   8.699   4.940   5.075
 9492WAT     H228719   8.834   4.849   5.084
 9493WAT      O28720   8.284   8.840   2.711
 9493WAT     H128721   8.196   8.886   2.723
 9493WAT     H228722   8.328   8.827   2.800
 9494WAT      O28723   2.150   0.640   4.211
 9494WAT     H128724   2.075   0.701   4.187
 9494WAT     H228725   2.221   0.692   4.258
 9495WAT      O28726   8.395   7.271   6.526
 9495WAT     H128727   8.307   7.224   6.536
 9495WAT     H228728   8.442   7.273   6.615
 9496WAT      O28729   6.955   3.923   9.776
 9496WAT     H128730   6.945   3.914   9.875
 9496WAT     H228731   6.944   4.019   9.750
 9497WAT      O28732   4.517   7.444   4.911
 9497WAT     H128733   4.570   7.360   4.911
 9497WAT     H228734   4.466   7.451   4.825
 9498WAT      O28735   1.455   3.940   4.102
 9498WAT     H128736   1.468   3.866   4.168
 9498WAT     H228737   1.434   4.024   4.152
 9499WAT      O28738   7.210   3.354   0.860
 9499WAT     H128739   7.194   3.385   0.766
 9499WAT     H228740   7.269   3.274   0.859
 9500WAT      O28741   3.611   8.312   4.992
 9500WAT     H128742   3.678   8.387   4.988
 9500WAT     H228743   3.625   8.251   4.914
 9501WAT      O28744   8.590   8.978   0.931
 9501WAT     H128745   8.556   9.008   0.843
 9501WAT     H228746   8.684   8.945   0.921
 9502WAT      O28747   7.580   1.304   5.441
 9502WAT     H128748   7.595   1.358   5.523
 9502WAT     H228749   7.651   1.324   5.373
 9503WAT      O28750   3.986   7.497   6.918
 9503WAT     H128751   4.009   7.505   6.821
 9503WAT     H228752   3.886   7.497   6.928
 9504WAT      O28753   8.957   3.407   7.745
 9504WAT     H128754   8.962   3.308   7.758
 9504WAT     H228755   8.997   3.453   7.824
 9505WAT      O28756   0.927   0.178   4.994
 9505WAT     H128757   0.848   0.160   4.936
 9505WAT     H228758   0.901   0.243   5.066
 9506WAT      O28759   5.949   4.674   5.138
 9506WAT     H128760   5.884   4.738   5.178
 9506WAT     H228761   5.982   4.709   5.051
 9507WAT      O28762   5.834   5.686   7.758
 9507WAT     H128763   5.848   5.754   7.686
 9507WAT     H228764   5.855   5.595   7.722
 9508WAT      O28765   5.024   6.457   7.995
 9508WAT     H128766   5.024   6.557   7.996
 9508WAT     H228767   5.094   6.424   8.057
 9509WAT      O28768   0.953   0.234   9.676
 9509WAT     H128769   1.034   0.219   9.619
 9509WAT     H228770   0.980   0.244   9.771
 9510WAT      O28771   5.493   0.439   2.462
 9510WAT     H128772   5.399   0.471   2.471
 9510WAT     H228773   5.506   0.358   2.520
 9511WAT      O28774   3.507   6.337   6.204
 9511WAT     H128775   3.559   6.422   6.207
 9511WAT     H228776   3.435   6.344   6.135
 9512WAT      O28777   0.695   6.654   0.879
 9512WAT     H128778   0.685   6.646   0.780
 9512WAT     H228779   0.697   6.564   0.921
 9513WAT      O28780   5.928   5.150   8.404
 9513WAT     H128781   5.830   5.144   8.425
 9513WAT     H228782   5.971   5.062   8.424
 9514WAT      O28783   7.947   9.690   0.145
 9514WAT     H128784   8.040   9.719   0.121
 9514WAT     H228785   7.896   9.672   0.061
 9515WAT      O28786   5.801   6.356   2.713
 9515WAT     H128787   5.779   6.259   2.714
 9515WAT     H228788   5.800   6.391   2.807
 9516WAT      O28789   2.496   2.869   8.716
 9516WAT     H128790   2.440   2.845   8.637
 9516WAT     H228791   2.522   2.785   8.765
 9517WAT      O28792   4.285   1.663   6.121
 9517WAT     H128793   4.383   1.642   6.116
 9517WAT     H228794   4.249   1.633   6.209
 9518WAT      O28795   0.735   4.259   7.967
 9518WAT     H128796   0.689   4.333   8.017
 9518WAT     H228797   0.805   4.298   7.908
 9519WAT      O28798   2.352   4.745   3.055
 9519WAT     H128799   2.366   4.844   3.054
 9519WAT     H228800   2.271   4.722   3.001
 9520WAT      O28801   4.020   7.358   8.494
 9520WAT     H128802   3.943   7.400   8.445
 9520WAT     H228803   4.091   7.333   8.429
 9521WAT      O28804   6.255   1.932   4.420
 9521WAT     H128805   6.196   1.967   4.493
 9521WAT     H228806   6.328   1.998   4.402
 9522WAT      O28807   8.023   3.491   2.651
 9522WAT     H128808   7.995   3.432   2.727
 9522WAT     H228809   8.095   3.446   2.598
 9523WAT      O28810   6.919   6.959   5.190
 9523WAT     H128811   6.853   6.992   5.258
 9523WAT     H228812   6.931   7.028   5.119
 9524WAT      O28813   6.172   4.371   8.055
 9524WAT     H128814   6.251   4.413   8.010
 9524WAT     H228815   6.130   4.438   8.117
 9525WAT      O28816   4.462   2.605   9.602
 9525WAT     H128817   4.470   2.609   9.502
 9525WAT     H228818   4.484   2.695   9.640
 9526WAT      O28819   5.658   3.132   7.319
 9526WAT     H128820   5.636   3.199   7.248
 9526WAT     H228821   5.573   3.105   7.365
 9527WAT      O28822   2.628   2.996   4.548
 9527WAT     H128823   2.552   3.050   4.510
 9527WAT     H228824   2.668   3.045   4.625
 9528WAT      O28825   6.658   6.915   9.544
 9528WAT     H128826   6.652   6.965   9.458
 9528WAT     H228827   6.616   6.969   9.617
 9529WAT      O28828   6.444   0.541   2.871
 9529WAT     H128829   6.377   0.614   2.860
 9529WAT     H228830   6.398   0.457   2.899
 9530WAT      O28831   0.540   5.153   9.259
 9530WAT     H128832   0.637   5.174   9.273
 9530WAT     H228833   0.512   5.181   9.167
 9531WAT      O28834   5.026   6.250   4.931
 9531WAT     H128835   5.007   6.332   4.985
 9531WAT     H228836   5.083   6.187   4.984
 9532WAT      O28837   5.651   7.025   4.409
 9532WAT     H128838   5.710   7.082   4.467
 9532WAT     H228839   5.703   6.947   4.375
 9533WAT      O28840   1.545   2.282   2.585
 9533WAT     H128841   1.451   2.310   2.605
 9533WAT     H228842   1.594   2.266   2.670
 9534WAT      O28843   9.692   6.080   9.142
 9534WAT     H128844   9.785   6.062   9.173
 9534WAT     H228845   9.630   6.086   9.221
 9535WAT      O28846   0.374   3.417   1.082
 9535WAT     H128847   0.458   3.368   1.060
 9535WAT     H228848   0.296   3.354   1.077
 9536WAT      O28849   5.305   3.415   0.349
 9536WAT     H128850   5.315   3.317   0.366
 9536WAT     H228851   5.385   3.448   0.299
 9537WAT      O28852   2.683   9.277   8.178
 9537WAT     H128853   2.665   9.211   8.104
 9537WAT     H228854   2.597   9.299   8.224
 9538WAT      O28855   8.186   3.543   1.209
 9538WAT     H128856   8.234   3.579   1.289
 9538WAT     H228857   8.152   3.451   1.229
 9539WAT      O28858   3.700   9.791   7.364
 9539WAT     H128859   3.748   9.742   7.436
 9539WAT     H228860   3.617   9.833   7.402
 9540WAT      O28861   6.369   2.484   1.836
 9540WAT     H128862   6.468   2.503   1.834
 9540WAT     H228863   6.340   2.469   1.930
 9541WAT      O28864   6.259   2.511   4.698
 9541WAT     H128865   6.286   2.487   4.791
 9541WAT     H228866   6.265   2.430   4.639
 9542WAT      O28867   7.223   0.678   7.849
 9542WAT     H128868   7.182   0.674   7.758
 9542WAT     H228869   7.152   0.667   7.918
 9543WAT      O28870   9.890   4.140   6.508
 9543WAT     H128871   9.809   4.095   6.544
 9543WAT     H228872   9.929   4.085   6.434
 9544WAT      O28873   0.599   2.790   2.999
 9544WAT     H128874   0.590   2.781   2.900
 9544WAT     H228875   0.687   2.751   3.028
 9545WAT      O28876   6.532   1.725   4.796
 9545WAT     H128877   6.520   1.656   4.868
 9545WAT     H228878   6.468   1.800   4.811
 9546WAT      O28879   9.684   8.281   5.199
 9546WAT     H128880   9.586   8.266   5.184
 9546WAT     H228881   9.698   8.316   5.291
 9547WAT      O28882   9.607   2.325   4.145
 9547WAT     H128883   9.661   2.359   4.222
 9547WAT     H228884   9.561   2.240   4.171
 9548WAT      O28885   1.617   1.753   9.437
 9548WAT     H128886   1.529   1.791   9.466
 9548WAT     H228887   1.623   1.658   9.467
 9549WAT      O28888   2.790   4.020   8.619
 9549WAT     H128889   2.786   3.926   8.654
 9549WAT     H228890   2.760   4.083   8.690
 9550WAT      O28891   4.207   3.034   1.171
 9550WAT     H128892   4.258   3.111   1.130
 9550WAT     H228893   4.268   2.956   1.181
 9551WAT      O28894   1.540   0.999   3.523
 9551WAT     H128895   1.543   0.944   3.607
 9551WAT     H228896   1.524   0.938   3.445
 9552WAT      O28897   2.039   1.709   5.345
 9552WAT     H128898   1.976   1.773   5.388
 9552WAT     H228899   2.091   1.660   5.415
 9553WAT      O28900   3.000   2.790   2.493
 9553WAT     H128901   2.959   2.805   2.403
 9553WAT     H228902   3.059   2.867   2.516
 9554WAT      O28903   8.544   9.238   0.237
 9554WAT     H128904   8.448   9.260   0.218
 9554WAT     H228905   8.589   9.318   0.277
 9555WAT      O28906   6.960   8.560   6.108
 9555WAT     H128907   6.928   8.524   6.020
 9555WAT     H228908   7.047   8.517   6.131
 9556WAT      O28909   5.331   1.559   4.010
 9556WAT     H128910   5.412   1.597   3.965
 9556WAT     H228911   5.310   1.613   4.091
 9557WAT      O28912   7.072   5.468   4.196
 9557WAT     H128913   7.046   5.513   4.111
 9557WAT     H228914   6.998   5.407   4.225
 9558WAT      O28915   3.722   0.348   0.766
 9558WAT     H128916   3.727   0.426   0.704
 9558WAT     H228917   3.814   0.311   0.781
 9559WAT      O28918   0.162   1.018   0.097
 9559WAT     H128919   0.253   0.981   0.081
 9559WAT     H228920   0.094   0.962   0.049
 9560WAT      O28921   1.526   0.444   7.496
 9560WAT     H128922   1.523   0.423   7.398
 9560WAT     H228923   1.560   0.537   7.509
 9561WAT      O28924   9.083   8.049   5.537
 9561WAT     H128925   9.083   7.965   5.592
 9561WAT     H228926   8.989   8.077   5.520
 9562WAT      O28927   2.802   7.454   3.248
 9562WAT     H128928   2.829   7.358   3.243
 9562WAT     H228929   2.825   7.490   3.339
 9563WAT      O28930   6.747   3.322   6.595
 9563WAT     H128931   6.744   3.409   6.644
 9563WAT     H228932   6.654   3.285   6.587
 9564WAT      O28933   7.430   9.639   5.127
 9564WAT     H128934   7.415   9.577   5.050
 9564WAT     H228935   7.522   9.627   5.162
 9565WAT      O28936   0.558   5.308   0.036
 9565WAT     H128937   0.471   5.280  -0.005
 9565WAT     H228938   0.598   5.382  -0.018
 9566WAT      O28939   0.950   0.556   9.587
 9566WAT     H128940   1.026   0.555   9.652
 9566WAT     H228941   0.981   0.516   9.500
 9567WAT      O28942   2.518   2.615   6.201
 9567WAT     H128943   2.545   2.622   6.297
 9567WAT     H228944   2.587   2.660   6.143
 9568WAT      O28945   2.300   3.153   7.711
 9568WAT     H128946   2.248   3.073   7.739
 9568WAT     H228947   2.257   3.193   7.630
 9569WAT      O28948   4.372   7.177   3.701
 9569WAT     H128949   4.297   7.233   3.664
 9569WAT     H228950   4.340   7.128   3.782
 9570WAT      O28951   6.599   5.547   0.349
 9570WAT     H128952   6.563   5.571   0.439
 9570WAT     H228953   6.601   5.629   0.291
 9571WAT      O28954   0.147   0.272   6.558
 9571WAT     H128955   0.185   0.324   6.634
 9571WAT     H228956   0.177   0.177   6.565
 9572WAT      O28957   9.045   5.761   1.857
 9572WAT     H128958   9.066   5.664   1.858
 9572WAT     H228959   8.953   5.776   1.896
 9573WAT      O28960   1.512   6.676   2.940
 9573WAT     H128961   1.454   6.634   2.871
 9573WAT     H228962   1.501   6.776   2.938
 9574WAT      O28963   3.695   7.563   6.288
 9574WAT     H128964   3.662   7.469   6.274
 9574WAT     H228965   3.654   7.623   6.220
 9575WAT      O28966   3.777   9.617   4.592
 9575WAT     H128967   3.686   9.581   4.571
 9575WAT     H228968   3.794   9.700   4.539
 9576WAT      O28969   5.626   0.150   9.163
 9576WAT     H128970   5.529   0.134   9.146
 9576WAT     H228971   5.647   0.246   9.146
 9577WAT      O28972   9.756   4.282   4.385
 9577WAT     H128973   9.761   4.310   4.481
 9577WAT     H228974   9.690   4.207   4.376
 9578WAT      O28975   2.684   4.748   6.307
 9578WAT     H128976   2.737   4.668   6.278
 9578WAT     H228977   2.744   4.828   6.307
 9579WAT      O28978   9.492   0.400   9.244
 9579WAT     H128979   9.431   0.452   9.184
 9579WAT     H228980   9.586   0.427   9.227
 9580WAT      O28981   1.016   2.390   9.165
 9580WAT     H128982   0.918   2.400   9.151
 9580WAT     H228983   1.065   2.428   9.086
 9581WAT      O28984   6.936   7.498   3.272
 9581WAT     H128985   6.901   7.405   3.281
 9581WAT     H228986   6.860   7.560   3.253
 9582WAT      O28987   0.553   3.784   4.601
 9582WAT     H128988   0.505   3.724   4.537
 9582WAT     H228989   0.651   3.778   4.586
 9583WAT      O28990   4.858   6.602   8.707
 9583WAT     H128991   4.831   6.522   8.653
 9583WAT     H228992   4.879   6.678   8.645
 9584WAT      O28993   1.200   3.951   1.463
 9584WAT     H128994   1.166   3.914   1.549
 9584WAT     H228995   1.124   3.965   1.400
 9585WAT      O28996   3.655   3.402   3.483
 9585WAT     H128997   3.752   3.385   3.465
 9585WAT     H228998   3.606   3.314   3.485
 9586WAT      O28999   9.526   8.110   0.225
 9586WAT     H129000   9.554   8.095   0.130
 9586WAT     H229001   9.434   8.072   0.239
 9587WAT      O29002   6.928   7.051   3.063
 9587WAT     H129003   6.829   7.055   3.045
 9587WAT     H229004   6.973   7.129   3.019
 9588WAT      O29005   3.033   2.439   0.211
 9588WAT     H129006   3.049   2.345   0.180
 9588WAT     H229007   2.942   2.444   0.254
 9589WAT      O29008   2.979   8.499   3.463
 9589WAT     H129009   2.991   8.595   3.441
 9589WAT     H229010   2.943   8.490   3.556
 9590WAT      O29011   8.279   5.197   9.176
 9590WAT     H129012   8.282   5.294   9.201
 9590WAT     H229013   8.303   5.142   9.256
 9591WAT      O29014   7.508   6.591   0.380
 9591WAT     H129015   7.570   6.613   0.304
 9591WAT     H229016   7.556   6.530   0.445
 9592WAT      O29017   5.591   4.274   2.930
 9592WAT     H129018   5.668   4.335   2.910
 9592WAT     H229019   5.597   4.194   2.870
 9593WAT      O29020   1.886   3.512   8.381
 9593WAT     H129021   1.898   3.413   8.385
 9593WAT     H229022   1.870   3.548   8.473
 9594WAT      O29023   9.090   0.859   6.414
 9594WAT     H129024   9.156   0.786   6.431
 9594WAT     H229025   8.999   0.820   6.404
 9595WAT      O29026   1.938   3.840   5.442
 9595WAT     H129027   1.853   3.790   5.426
 9595WAT     H229028   1.932   3.890   5.529
 9596WAT      O29029   0.696   0.254   1.683
 9596WAT     H129030   0.639   0.178   1.651
 9596WAT     H229031   0.713   0.243   1.781
 9597WAT      O29032   7.382   4.526   7.196
 9597WAT     H129033   7.330   4.611   7.185
 9597WAT     H229034   7.480   4.546   7.198
 9598WAT      O29035   7.852   4.428   3.256
 9598WAT     H129036   7.764   4.411   3.300
 9598WAT     H229037   7.925   4.379   3.304
 9599WAT      O29038   1.874   0.952   5.608
 9599WAT     H129039   1.812   0.895   5.662
 9599WAT     H229040   1.823   1.027   5.567
 9600WAT      O29041   6.988   4.705   7.597
 9600WAT     H129042   7.078   4.661   7.592
 9600WAT     H229043   6.918   4.635   7.609
 9601WAT      O29044   3.368   0.425   0.631
 9601WAT     H129045   3.281   0.397   0.672
 9601WAT     H229046   3.413   0.491   0.691
 9602WAT      O29047   5.044   1.818   5.936
 9602WAT     H129048   5.130   1.767   5.930
 9602WAT     H229049   5.034   1.855   6.028
 9603WAT      O29050   0.516   4.609   1.371
 9603WAT     H129051   0.577   4.661   1.431
 9603WAT     H229052   0.561   4.592   1.284
 9604WAT      O29053   7.695   3.524   1.550
 9604WAT     H129054   7.630   3.451   1.572
 9604WAT     H229055   7.700   3.537   1.451
 9605WAT      O29056   8.797   8.720   7.554
 9605WAT     H129057   8.768   8.803   7.602
 9605WAT     H229058   8.889   8.733   7.517
 9606WAT      O29059   5.677   0.957   4.458
 9606WAT     H129060   5.611   0.931   4.387
 9606WAT     H229061   5.666   1.053   4.480
 9607WAT      O29062   3.755   1.715   4.711
 9607WAT     H129063   3.758   1.693   4.809
 9607WAT     H229064   3.830   1.777   4.689
 9608WAT      O29065   8.705   9.464   9.369
 9608WAT     H129066   8.743   9.495   9.282
 9608WAT     H229067   8.762   9.496   9.444
 9609WAT      O29068   2.970   3.394   4.906
 9609WAT     H129069   2.980   3.391   4.807
 9609WAT     H229070   2.997   3.306   4.945
 9610WAT      O29071   3.957   6.409   5.281
 9610WAT     H129072   3.930   6.327   5.332
 9610WAT     H229073   3.912   6.489   5.319
 9611WAT      O29074   9.645   4.590   0.150
 9611WAT     H129075   9.661   4.688   0.141
 9611WAT     H229076   9.580   4.560   0.080
 9612WAT      O29077   4.188   5.907   1.809
 9612WAT     H129078   4.231   5.905   1.718
 9612WAT     H229079   4.196   6.000   1.846
 9613WAT      O29080   2.631   1.193   4.341
 9613WAT     H129081   2.656   1.256   4.414
 9613WAT     H229082   2.649   1.099   4.370
 9614WAT      O29083   1.178   7.706   1.568
 9614WAT     H129084   1.227   7.625   1.537
 9614WAT     H229085   1.084   7.681   1.591
 9615WAT      O29086   3.330   8.965   5.294
 9615WAT     H129087   3.384   8.920   5.365
 9615WAT     H229088   3.237   8.981   5.328
 9616WAT      O29089   3.665   6.442   1.935
 9616WAT     H129090   3.698   6.461   1.843
 9616WAT     H229091   3.721   6.371   1.977
 9617WAT      O29092   5.120   8.765   0.487
 9617WAT     H129093   5.168   8.678   0.492
 9617WAT     H229094   5.035   8.754   0.434
 9618WAT      O29095   1.670   4.150   2.642
 9618WAT     H129096   1.646   4.239   2.602
 9618WAT     H229097   1.764   4.152   2.673
 9619WAT      O29098   7.474   9.296   2.096
 9619WAT     H129099   7.466   9.393   2.116
 9619WAT     H229100   7.560   9.261   2.133
 9620WAT      O29101   1.489   3.213   9.189
 9620WAT     H129102   1.483   3.282   9.261
 9620WAT     H229103   1.470   3.256   9.100
 9621WAT      O29104   3.724   6.136   1.935
 9621WAT     H129105   3.745   6.074   2.010
 9621WAT     H229106   3.801   6.140   1.872
 9622WAT      O29107   4.724   6.231   0.366
 9622WAT     H129108   4.725   6.132   0.378
 9622WAT     H229109   4.647   6.256   0.307
 9623WAT      O29110   5.844   2.591   4.062
 9623WAT     H129111   5.859   2.520   4.130
 9623WAT     H229112   5.894   2.674   4.089
 9624WAT      O29113   2.256   7.433   0.399
 9624WAT     H129114   2.289   7.521   0.367
 9624WAT     H229115   2.164   7.443   0.436
 9625WAT      O29116   0.355   7.516   9.159
 9625WAT     H129117   0.343   7.495   9.062
 9625WAT     H229118   0.424   7.456   9.198
 9626WAT      O29119   1.242   1.887   8.176
 9626WAT     H129120   1.231   1.827   8.255
 9626WAT     H229121   1.293   1.969   8.203
 9627WAT      O29122   3.197   4.689   8.886
 9627WAT     H129123   3.292   4.667   8.907
 9627WAT     H229124   3.180   4.674   8.788
 9628WAT      O29125   6.689   6.298   3.600
 9628WAT     H129126   6.622   6.257   3.538
 9628WAT     H229127   6.728   6.380   3.557
 9629WAT      O29128   4.272   9.043   2.755
 9629WAT     H129129   4.235   8.964   2.805
 9629WAT     H229130   4.208   9.068   2.682
 9630WAT      O29131   9.147   1.907   6.027
 9630WAT     H129132   9.145   2.003   6.054
 9630WAT     H229133   9.063   1.883   5.980
 9631WAT      O29134   7.295   5.636   9.586
 9631WAT     H129135   7.269   5.555   9.533
 9631WAT     H229136   7.299   5.611   9.683
 9632WAT      O29137   0.209   2.337   2.272
 9632WAT     H129138   0.211   2.244   2.237
 9632WAT     H229139   0.117   2.360   2.303
 9633WAT      O29140   1.828   8.737   7.083
 9633WAT     H129141   1.803   8.834   7.077
 9633WAT     H229142   1.924   8.729   7.108
 9634WAT      O29143   9.443   3.417   7.882
 9634WAT     H129144   9.514   3.411   7.813
 9634WAT     H229145   9.464   3.490   7.947
 9635WAT      O29146   5.559   1.179   3.713
 9635WAT     H129147   5.531   1.114   3.784
 9635WAT     H229148   5.613   1.252   3.754
 9636WAT      O29149   8.411   3.657   0.747
 9636WAT     H129150   8.448   3.723   0.682
 9636WAT     H229151   8.377   3.705   0.828
 9637WAT      O29152   4.903   7.354   4.757
 9637WAT     H129153   4.961   7.274   4.768
 9637WAT     H229154   4.861   7.354   4.667
 9638WAT      O29155   7.113   8.189   0.586
 9638WAT     H129156   7.098   8.286   0.602
 9638WAT     H229157   7.199   8.160   0.629
 9639WAT      O29158   7.913   9.262   3.120
 9639WAT     H129159   7.944   9.353   3.148
 9639WAT     H229160   7.952   9.194   3.181
 9640WAT      O29161   9.347   1.508   7.172
 9640WAT     H129162   9.272   1.529   7.110
 9640WAT     H229163   9.313   1.450   7.247
 9641WAT      O29164   7.681   0.205   6.697
 9641WAT     H129165   7.634   0.121   6.670
 9641WAT     H229166   7.778   0.185   6.711
 9642WAT      O29167   2.588   8.868   6.411
 9642WAT     H129168   2.614   8.892   6.504
 9642WAT     H229169   2.664   8.886   6.349
 9643WAT      O29170   5.502   1.106   3.995
 9643WAT     H129171   5.451   1.021   3.984
 9643WAT     H229172   5.442   1.177   4.029
 9644WAT      O29173   0.119   1.122   3.917
 9644WAT     H129174   0.048   1.055   3.897
 9644WAT     H229175   0.126   1.135   4.016
 9645WAT      O29176   6.210   3.641   9.378
 9645WAT     H129177   6.169   3.647   9.469
 9645WAT     H229178   6.309   3.632   9.387
 9646WAT      O29179   8.169   4.636   3.152
 9646WAT     H129180   8.118   4.676   3.229
 9646WAT     H229181   8.152   4.538   3.148
 9647WAT      O29182   7.797   6.957   0.891
 9647WAT     H129183   7.764   6.901   0.967
 9647WAT     H229184   7.872   7.015   0.923
 9648WAT      O29185   3.975   6.084   4.355
 9648WAT     H129186   4.017   6.034   4.431
 9648WAT     H229187   3.964   6.022   4.277
 9649WAT      O29188   0.150   4.664   0.634
 9649WAT     H129189   0.191   4.708   0.555
 9649WAT     H229190   0.174   4.714   0.717
 9650WAT      O29191   3.483   4.170   9.818
 9650WAT     H129192   3.550   4.220   9.763
 9650WAT     H229193   3.531   4.111   9.884
 9651WAT      O29194   5.610   7.207   6.502
 9651WAT     H129195   5.605   7.141   6.427
 9651WAT     H229196   5.546   7.282   6.485
 9652WAT      O29197   0.246   1.691   1.137
 9652WAT     H129198   0.315   1.762   1.146
 9652WAT     H229199   0.155   1.733   1.128
 9653WAT      O29200   8.079   9.736   6.666
 9653WAT     H129201   8.047   9.664   6.727
 9653WAT     H229202   8.147   9.792   6.713
 9654WAT      O29203   9.301   8.553   1.720
 9654WAT     H129204   9.338   8.618   1.786
 9654WAT     H229205   9.375   8.517   1.663
 9655WAT      O29206   8.439   5.080   4.468
 9655WAT     H129207   8.361   5.048   4.522
 9655WAT     H229208   8.522   5.078   4.524
 9656WAT      O29209   5.458   5.224   8.373
 9656WAT     H129210   5.394   5.256   8.443
 9656WAT     H229211   5.407   5.191   8.294
 9657WAT      O29212   9.292   6.658   2.352
 9657WAT     H129213   9.197   6.686   2.339
 9657WAT     H229214   9.296   6.559   2.365
 9658WAT      O29215   4.506   5.613   0.180
 9658WAT     H129216   4.569   5.551   0.226
 9658WAT     H229217   4.495   5.584   0.085
 9659WAT      O29218   1.629   2.884   9.470
 9659WAT     H129219   1.652   2.801   9.522
 9659WAT     H229220   1.704   2.949   9.476
 9660WAT      O29221   0.724   7.089   0.973
 9660WAT     H129222   0.762   6.997   0.964
 9660WAT     H229223   0.742   7.124   1.065
 9661WAT      O29224   9.026   9.776   2.185
 9661WAT     H129225   8.950   9.722   2.149
 9661WAT     H229226   9.026   9.866   2.141
 9662WAT      O29227   4.013   6.149   0.531
 9662WAT     H129228   4.009   6.249   0.538
 9662WAT     H229229   4.103   6.117   0.562
 9663WAT      O29230   0.831   0.296   3.952
 9663WAT     H129231   0.797   0.243   4.030
 9663WAT     H229232   0.763   0.293   3.878
 9664WAT      O29233   3.521   2.701   0.492
 9664WAT     H129234   3.613   2.739   0.495
 9664WAT     H229235   3.470   2.728   0.573
 9665WAT      O29236   9.355   4.624   5.632
 9665WAT     H129237   9.446   4.595   5.603
 9665WAT     H229238   9.360   4.660   5.725
 9666WAT      O29239   8.181   0.490   0.024
 9666WAT     H129240   8.189   0.391   0.031
 9666WAT     H229241   8.258   0.534   0.070
 9667WAT      O29242   4.026   6.269   3.241
 9667WAT     H129243   3.966   6.340   3.204
 9667WAT     H229244   4.025   6.273   3.341
 9668WAT      O29245   7.822   4.850   6.983
 9668WAT     H129246   7.754   4.919   6.958
 9668WAT     H229247   7.905   4.895   7.017
 9669WAT      O29248   5.756   2.106   1.009
 9669WAT     H129249   5.844   2.118   1.056
 9669WAT     H229250   5.763   2.144   0.917
 9670WAT      O29251   3.181   8.375   3.574
 9670WAT     H129252   3.111   8.430   3.529
 9670WAT     H229253   3.177   8.281   3.540
 9671WAT      O29254   3.527   3.922   0.933
 9671WAT     H129255   3.577   3.915   0.846
 9671WAT     H229256   3.449   3.859   0.931
 9672WAT      O29257   1.464   9.323   4.713
 9672WAT     H129258   1.397   9.379   4.663
 9672WAT     H229259   1.438   9.318   4.809
 9673WAT      O29260   6.156   0.755   8.434
 9673WAT     H129261   6.163   0.662   8.470
 9673WAT     H229262   6.192   0.820   8.501
 9674WAT      O29263   9.406   3.821   2.493
 9674WAT     H129264   9.433   3.733   2.454
 9674WAT     H229265   9.477   3.889   2.474
 9675WAT      O29266   9.425   6.909   6.352
 9675WAT     H129267   9.506   6.938   6.404
 9675WAT     H229268   9.429   6.811   6.337
 9676WAT      O29269   5.180   7.990   3.497
 9676WAT     H129270   5.086   8.005   3.527
 9676WAT     H229271   5.185   7.901   3.451
 9677WAT      O29272   7.063   2.854   0.778
 9677WAT     H129273   7.031   2.820   0.866
 9677WAT     H229274   7.037   2.950   0.768
 9678WAT      O29275   3.053   3.290   5.626
 9678WAT     H129276   3.139   3.313   5.580
 9678WAT     H229277   2.980   3.282   5.559
 9679WAT      O29278   1.258   2.902   2.254
 9679WAT     H129279   1.175   2.848   2.243
 9679WAT     H229280   1.325   2.849   2.306
 9680WAT      O29281   4.396   9.748   4.718
 9680WAT     H129282   4.323   9.810   4.688
 9680WAT     H229283   4.406   9.674   4.651
 9681WAT      O29284   1.224   8.899   1.165
 9681WAT     H129285   1.317   8.928   1.144
 9681WAT     H229286   1.226   8.834   1.241
 9682WAT      O29287   0.745   0.531   1.073
 9682WAT     H129288   0.673   0.576   1.020
 9682WAT     H229289   0.713   0.440   1.102
 9683WAT      O29290   7.063   9.438   7.422
 9683WAT     H129291   6.963   9.441   7.421
 9683WAT     H229292   7.099   9.531   7.431
 9684WAT      O29293   9.296   6.065   6.984
 9684WAT     H129294   9.255   5.975   6.990
 9684WAT     H229295   9.335   6.091   7.072
 9685WAT      O29296   7.548   7.760   5.235
 9685WAT     H129297   7.533   7.666   5.267
 9685WAT     H229298   7.612   7.806   5.296
 9686WAT      O29299   1.545   4.731   3.539
 9686WAT     H129300   1.559   4.680   3.624
 9686WAT     H229301   1.530   4.667   3.463
 9687WAT      O29302   4.732   2.012   0.123
 9687WAT     H129303   4.830   2.028   0.112
 9687WAT     H229304   4.706   2.031   0.218
 9688WAT      O29305   4.942   6.803   0.668
 9688WAT     H129306   4.975   6.725   0.616
 9688WAT     H229307   4.875   6.772   0.736
 9689WAT      O29308   8.160   7.654   8.345
 9689WAT     H129309   8.206   7.591   8.408
 9689WAT     H229310   8.215   7.737   8.335
 9690WAT      O29311   2.897   9.549   3.757
 9690WAT     H129312   2.898   9.570   3.855
 9690WAT     H229313   2.949   9.620   3.709
 9691WAT      O29314   6.445   2.130   5.682
 9691WAT     H129315   6.445   2.032   5.698
 9691WAT     H229316   6.391   2.151   5.600
 9692WAT      O29317   0.243   0.443   8.921
 9692WAT     H129318   0.211   0.365   8.867
 9692WAT     H229319   0.174   0.466   8.990
 9693WAT      O29320   6.031   4.863   8.697
 9693WAT     H129321   6.070   4.853   8.605
 9693WAT     H229322   5.986   4.952   8.704
 9694WAT      O29323   3.265   5.697   7.811
 9694WAT     H129324   3.311   5.785   7.821
 9694WAT     H229325   3.268   5.669   7.715
 9695WAT      O29326   0.079   0.653   9.502
 9695WAT     H129327   0.152   0.679   9.565
 9695WAT     H229328   0.010   0.725   9.500
 9696WAT      O29329   4.639   2.629   7.953
 9696WAT     H129330   4.571   2.676   7.897
 9696WAT     H229331   4.627   2.531   7.945
 9697WAT      O29332   6.794   8.953   4.359
 9697WAT     H129333   6.858   8.920   4.290
 9697WAT     H229334   6.806   8.901   4.444
 9698WAT      O29335   4.829   8.931   3.961
 9698WAT     H129336   4.759   8.950   3.893
 9698WAT     H229337   4.815   8.991   4.041
 9699WAT      O29338   6.774   3.500   0.851
 9699WAT     H129339   6.811   3.460   0.767
 9699WAT     H229340   6.723   3.583   0.828
 9700WAT      O29341   3.312   9.221   8.103
 9700WAT     H129342   3.397   9.175   8.078
 9700WAT     H229343   3.284   9.281   8.027
 9701WAT      O29344   6.581   6.928   6.582
 9701WAT     H129345   6.542   6.835   6.584
 9701WAT     H229346   6.507   6.994   6.596
 9702WAT      O29347   0.970   6.636   0.504
 9702WAT     H129348   1.031   6.660   0.580
 9702WAT     H229349   1.006   6.674   0.419
 9703WAT      O29350   3.324   1.795   7.134
 9703WAT     H129351   3.288   1.888   7.136
 9703WAT     H229352   3.356   1.770   7.225
 9704WAT      O29353   7.074   6.372   6.686
 9704WAT     H129354   6.998   6.308   6.698
 9704WAT     H229355   7.057   6.429   6.605
 9705WAT      O29356   0.424   6.488   1.710
 9705WAT     H129357   0.441   6.463   1.805
 9705WAT     H229358   0.328   6.469   1.687
 9706WAT      O29359   5.024   6.842   7.640
 9706WAT     H129360   5.055   6.753   7.674
 9706WAT     H229361   4.945   6.829   7.581
 9707WAT      O29362   1.406   4.305   9.866
 9707WAT     H129363   1.404   4.371   9.941
 9707WAT     H229364   1.465   4.339   9.793
 9708WAT      O29365   3.865   4.665   6.686
 9708WAT     H129366   3.791   4.720   6.726
 9708WAT     H229367   3.831   4.616   6.606
 9709WAT      O29368   9.793   0.873   2.404
 9709WAT     H129369   9.701   0.886   2.440
 9709WAT     H229370   9.839   0.962   2.400
 9710WAT      O29371   8.355   4.078   3.172
 9710WAT     H129372   8.380   3.984   3.148
 9710WAT     H229373   8.400   4.142   3.110
 9711WAT      O29374   7.989   0.958   8.264
 9711WAT     H129375   8.062   1.016   8.301
 9711WAT     H229376   8.027   0.897   8.194
 9712WAT      O29377   0.669   0.646   9.570
 9712WAT     H129378   0.594   0.624   9.632
 9712WAT     H229379   0.739   0.574   9.575
 9713WAT      O29380   5.758   8.908   4.450
 9713WAT     H129381   5.802   8.834   4.501
 9713WAT     H229382   5.828   8.971   4.417
 9714WAT      O29383   5.439   0.665   6.385
 9714WAT     H129384   5.365   0.598   6.382
 9714WAT     H229385   5.504   0.639   6.456
 9715WAT      O29386   8.313   6.186   7.528
 9715WAT     H129387   8.253   6.264   7.512
 9715WAT     H229388   8.379   6.179   7.453
 9716WAT      O29389   3.385   2.634   8.056
 9716WAT     H129390   3.482   2.613   8.054
 9716WAT     H229391   3.344   2.594   8.138
 9717WAT      O29392   3.496   1.311   6.322
 9717WAT     H129393   3.512   1.375   6.246
 9717WAT     H229394   3.536   1.222   6.300
 9718WAT      O29395   8.029   3.206   6.820
 9718WAT     H129396   7.981   3.152   6.889
 9718WAT     H229397   7.986   3.295   6.811
 9719WAT      O29398   7.071   9.483   6.084
 9719WAT     H129399   6.977   9.513   6.097
 9719WAT     H229400   7.132   9.562   6.084
 9720WAT      O29401   0.483   1.227   3.110
 9720WAT     H129402   0.458   1.246   3.205
 9720WAT     H229403   0.402   1.202   3.058
 9721WAT      O29404   3.029   3.005   1.235
 9721WAT     H129405   2.961   2.944   1.273
 9721WAT     H229406   3.121   2.967   1.249
 9722WAT      O29407   0.189   8.450   7.375
 9722WAT     H129408   0.152   8.366   7.415
 9722WAT     H229409   0.288   8.451   7.383
 9723WAT      O29410   5.029   7.150   8.918
 9723WAT     H129411   4.957   7.146   8.849
 9723WAT     H229412   5.023   7.238   8.966
 9724WAT      O29413   0.897   2.946   7.749
 9724WAT     H129414   0.813   2.973   7.795
 9724WAT     H229415   0.880   2.865   7.693
 9725WAT      O29416   3.199   2.562   7.377
 9725WAT     H129417   3.104   2.593   7.375
 9725WAT     H229418   3.257   2.629   7.333
 9726WAT      O29419   3.114   5.548   9.389
 9726WAT     H129420   3.073   5.636   9.365
 9726WAT     H229421   3.134   5.497   9.305
 9727WAT      O29422   7.577   1.415   5.703
 9727WAT     H129423   7.605   1.373   5.789
 9727WAT     H229424   7.499   1.476   5.719
 9728WAT      O29425   2.040   7.683   3.061
 9728WAT     H129426   2.096   7.766   3.068
 9728WAT     H229427   2.065   7.620   3.134
 9729WAT      O29428   5.978   1.978   8.343
 9729WAT     H129429   5.902   1.913   8.351
 9729WAT     H229430   6.063   1.933   8.371
 9730WAT      O29431   7.430   1.919   5.222
 9730WAT     H129432   7.497   1.923   5.147
 9730WAT     H229433   7.352   1.976   5.200
 9731WAT      O29434   7.892   3.751   0.948
 9731WAT     H129435   7.915   3.838   0.904
 9731WAT     H229436   7.829   3.767   1.024
 9732WAT      O29437   0.381   5.815   8.817
 9732WAT     H129438   0.453   5.758   8.779
 9732WAT     H229439   0.388   5.815   8.917
 9733WAT      O29440   3.355   0.053   9.482
 9733WAT     H129441   3.403   0.038   9.395
 9733WAT     H229442   3.333  -0.036   9.524
 9734WAT      O29443   4.239   2.041   7.837
 9734WAT     H129444   4.217   2.134   7.866
 9734WAT     H229445   4.217   2.030   7.740
 9735WAT      O29446   1.127   4.644   4.673
 9735WAT     H129447   1.177   4.703   4.609
 9735WAT     H229448   1.102   4.697   4.755
 9736WAT      O29449   3.994   7.114   6.451
 9736WAT     H129450   3.930   7.037   6.444
 9736WAT     H229451   4.086   7.083   6.429
 9737WAT      O29452   1.385   4.392   8.679
 9737WAT     H129453   1.339   4.403   8.767
 9737WAT     H229454   1.436   4.476   8.657
 9738WAT      O29455   9.194   3.102   9.396
 9738WAT     H129456   9.266   3.036   9.375
 9738WAT     H229457   9.230   3.195   9.385
 9739WAT      O29458   9.150   9.364   4.252
 9739WAT     H129459   9.244   9.374   4.220
 9739WAT     H229460   9.141   9.407   4.342
 9740WAT      O29461   8.609   6.632   5.671
 9740WAT     H129462   8.625   6.539   5.704
 9740WAT     H229463   8.615   6.634   5.571
 9741WAT      O29464   0.582   9.553   8.389
 9741WAT     H129465   0.497   9.515   8.352
 9741WAT     H229466   0.637   9.590   8.314
 9742WAT      O29467   9.130   6.536   6.413
 9742WAT     H129468   9.193   6.458   6.414
 9742WAT     H229469   9.097   6.553   6.505
 9743WAT      O29470   4.880   2.342   1.193
 9743WAT     H129471   4.886   2.246   1.164
 9743WAT     H229472   4.835   2.395   1.121
 9744WAT      O29473   0.361   1.093   3.546
 9744WAT     H129474   0.264   1.109   3.564
 9744WAT     H229475   0.373   1.003   3.504
 9745WAT      O29476   5.738   0.590   8.500
 9745WAT     H129477   5.824   0.617   8.544
 9745WAT     H229478   5.694   0.670   8.461
 9746WAT      O29479   9.131   3.703   6.019
 9746WAT     H129480   9.036   3.723   6.042
 9746WAT     H229481   9.189   3.724   6.098
 9747WAT      O29482   9.743   2.233   8.396
 9747WAT     H129483   9.731   2.201   8.490
 9747WAT     H229484   9.812   2.306   8.394
 9748WAT      O29485   7.561   4.225   6.888
 9748WAT     H129486   7.484   4.172   6.852
 9748WAT     H229487   7.541   4.323   6.877
 9749WAT      O29488   9.775   7.832   2.153
 9749WAT     H129489   9.777   7.758   2.085
 9749WAT     H229490   9.739   7.915   2.111
 9750WAT      O29491   0.640   8.692   9.440
 9750WAT     H129492   0.719   8.723   9.492
 9750WAT     H229493   0.666   8.614   9.382
 9751WAT      O29494   8.853   5.714   2.602
 9751WAT     H129495   8.908   5.788   2.563
 9751WAT     H229496   8.866   5.631   2.548
 9752WAT      O29497   7.829   4.158   9.039
 9752WAT     H129498   7.822   4.192   8.945
 9752WAT     H229499   7.863   4.064   9.038
 9753WAT      O29500   8.015   0.121   8.445
 9753WAT     H129501   8.093   0.065   8.418
 9753WAT     H229502   7.994   0.187   8.373
 9754WAT      O29503   3.422   2.844   3.846
 9754WAT     H129504   3.344   2.899   3.876
 9754WAT     H229505   3.490   2.903   3.803
 9755WAT      O29506   4.493   7.821   9.382
 9755WAT     H129507   4.461   7.726   9.385
 9755WAT     H229508   4.520   7.849   9.474
 9756WAT      O29509   5.617   5.233   8.751
 9756WAT     H129510   5.573   5.165   8.810
 9756WAT     H229511   5.583   5.324   8.773
 9757WAT      O29512   1.193   1.674   1.177
 9757WAT     H129513   1.245   1.681   1.091
 9757WAT     H229514   1.208   1.757   1.231
 9758WAT      O29515   7.282   3.060   4.641
 9758WAT     H129516   7.237   2.991   4.585
 9758WAT     H229517   7.280   3.148   4.594
 9759WAT      O29518   1.028   2.266   2.104
 9759WAT     H129519   1.083   2.314   2.172
 9759WAT     H229520   1.042   2.308   2.014
 9760WAT      O29521   6.815   4.131   1.742
 9760WAT     H129522   6.765   4.091   1.665
 9760WAT     H229523   6.777   4.098   1.828
 9761WAT      O29524   4.151   7.475   3.986
 9761WAT     H129525   4.239   7.468   4.034
 9761WAT     H229526   4.167   7.477   3.888
 9762WAT      O29527   4.350   9.515   5.876
 9762WAT     H129528   4.257   9.552   5.884
 9762WAT     H229529   4.395   9.518   5.965
 9763WAT      O29530   2.758   5.705   2.782
 9763WAT     H129531   2.710   5.647   2.847
 9763WAT     H229532   2.730   5.800   2.794
 9764WAT      O29533   3.527   1.975   3.580
 9764WAT     H129534   3.569   2.044   3.522
 9764WAT     H229535   3.576   1.888   3.569
 9765WAT      O29536   5.343   7.647   3.930
 9765WAT     H129537   5.430   7.683   3.965
 9765WAT     H229538   5.285   7.724   3.903
 9766WAT      O29539   8.365   5.393   6.166
 9766WAT     H129540   8.281   5.340   6.173
 9766WAT     H229541   8.442   5.337   6.199
 9767WAT      O29542   3.583   2.034   8.497
 9767WAT     H129543   3.520   1.970   8.454
 9767WAT     H229544   3.668   1.987   8.519
 9768WAT      O29545   2.865   2.258   0.979
 9768WAT     H129546   2.802   2.318   1.028
 9768WAT     H229547   2.871   2.287   0.883
 9769WAT      O29548   2.445   8.955   4.345
 9769WAT     H129549   2.516   8.891   4.315
 9769WAT     H229550   2.373   8.959   4.276
 9770WAT      O29551   8.583   4.398   3.690
 9770WAT     H129552   8.538   4.487   3.696
 9770WAT     H229553   8.594   4.373   3.594
 9771WAT      O29554   6.834   3.598   9.376
 9771WAT     H129555   6.751   3.585   9.430
 9771WAT     H229556   6.899   3.655   9.427
 9772WAT      O29557   6.438   9.268   5.498
 9772WAT     H129558   6.401   9.178   5.475
 9772WAT     H229559   6.412   9.291   5.592
 9773WAT      O29560   4.717   6.816   8.828
 9773WAT     H129561   4.755   6.727   8.800
 9773WAT     H229562   4.727   6.827   8.927
 9774WAT      O29563   2.529   7.428   1.125
 9774WAT     H129564   2.568   7.511   1.164
 9774WAT     H229565   2.442   7.408   1.171
 9775WAT      O29566   1.307   6.063   0.393
 9775WAT     H129567   1.275   6.070   0.299
 9775WAT     H229568   1.233   6.087   0.456
 9776WAT      O29569   4.949   1.265   0.837
 9776WAT     H129570   4.884   1.324   0.790
 9776WAT     H229571   4.952   1.176   0.791
 9777WAT      O29572   6.413   3.608   0.980
 9777WAT     H129573   6.488   3.551   1.013
 9777WAT     H229574   6.441   3.704   0.986
 9778WAT      O29575   6.125   6.476   2.898
 9778WAT     H129576   6.104   6.379   2.886
 9778WAT     H229577   6.045   6.531   2.872
 9779WAT      O29578   6.158   8.139   1.294
 9779WAT     H129579   6.088   8.071   1.274
 9779WAT     H229580   6.193   8.125   1.387
 9780WAT      O29581   8.271   4.341   0.138
 9780WAT     H129582   8.266   4.438   0.115
 9780WAT     H229583   8.185   4.312   0.179
 9781WAT      O29584   9.027   3.697   6.659
 9781WAT     H129585   9.090   3.619   6.653
 9781WAT     H229586   8.973   3.702   6.575
 9782WAT      O29587   7.430   2.686   6.522
 9782WAT     H129588   7.411   2.763   6.583
 9782WAT     H229589   7.421   2.716   6.427
 9783WAT      O29590   3.649   5.775   9.197
 9783WAT     H129591   3.574   5.723   9.237
 9783WAT     H229592   3.690   5.723   9.122
 9784WAT      O29593   7.316   3.425   5.391
 9784WAT     H129594   7.386   3.487   5.429
 9784WAT     H229595   7.286   3.361   5.462
 9785WAT      O29596   1.031   0.863   3.898
 9785WAT     H129597   1.071   0.949   3.867
 9785WAT     H229598   1.084   0.786   3.861
 9786WAT      O29599   1.963   0.029   2.538
 9786WAT     H129600   2.021   0.016   2.618
 9786WAT     H229601   1.880  -0.026   2.547
 9787WAT      O29602   3.583   4.248   0.506
 9787WAT     H129603   3.556   4.321   0.443
 9787WAT     H229604   3.504   4.191   0.527
 9788WAT      O29605   1.681   1.819   4.813
 9788WAT     H129606   1.697   1.724   4.839
 9788WAT     H229607   1.759   1.875   4.840
 9789WAT      O29608   9.762   2.790   7.102
 9789WAT     H129609   9.848   2.834   7.075
 9789WAT     H229610   9.775   2.692   7.109
 9790WAT      O29611   2.266   5.904   9.356
 9790WAT     H129612   2.306   5.968   9.291
 9790WAT     H229613   2.274   5.942   9.449
 9791WAT      O29614   0.729   0.979   2.764
 9791WAT     H129615   0.688   1.068   2.781
 9791WAT     H229616   0.691   0.912   2.828
 9792WAT      O29617   9.806   0.596   0.408
 9792WAT     H129618   9.739   0.538   0.362
 9792WAT     H229619   9.830   0.673   0.348
 9793WAT      O29620   4.453   2.750   3.815
 9793WAT     H129621   4.446   2.836   3.765
 9793WAT     H229622   4.422   2.764   3.909
 9794WAT      O29623   7.893   5.071   8.141
 9794WAT     H129624   7.987   5.102   8.159
 9794WAT     H229625   7.888   4.972   8.152
 9795WAT      O29626   3.810   3.076   0.866
 9795WAT     H129627   3.723   3.120   0.845
 9795WAT     H229628   3.879   3.146   0.884
 9796WAT      O29629   5.508   6.775   0.390
 9796WAT     H129630   5.451   6.836   0.335
 9796WAT     H229631   5.465   6.685   0.396
 9797WAT      O29632   1.608   5.547   0.542
 9797WAT     H129633   1.550   5.530   0.621
 9797WAT     H229634   1.691   5.594   0.571
 9798WAT      O29635   9.036   6.350   5.020
 9798WAT     H129636   8.961   6.388   5.074
 9798WAT     H229637   9.075   6.422   4.962
 9799WAT      O29638   7.988   2.479   2.556
 9799WAT     H129639   7.953   2.414   2.623
 9799WAT     H229640   8.003   2.568   2.600
 9800WAT      O29641   3.794   5.251   7.265
 9800WAT     H129642   3.868   5.300   7.219
 9800WAT     H229643   3.786   5.283   7.359
 9801WAT      O29644   1.239   6.589   7.121
 9801WAT     H129645   1.264   6.671   7.173
 9801WAT     H229646   1.157   6.548   7.161
 9802WAT      O29647   9.725   2.954   6.227
 9802WAT     H129648   9.797   2.910   6.173
 9802WAT     H229649   9.652   2.984   6.165
 9803WAT      O29650   8.412   2.822   2.083
 9803WAT     H129651   8.499   2.869   2.097
 9803WAT     H229652   8.422   2.755   2.009
 9804WAT      O29653   0.737   7.385   6.601
 9804WAT     H129654   0.810   7.329   6.640
 9804WAT     H229655   0.650   7.358   6.641
 9805WAT      O29656   8.260   9.246   0.213
 9805WAT     H129657   8.237   9.167   0.271
 9805WAT     H229658   8.215   9.328   0.249
 9806WAT      O29659   8.893   1.273   4.164
 9806WAT     H129660   8.968   1.280   4.231
 9806WAT     H229661   8.925   1.225   4.083
 9807WAT      O29662   2.673   8.711   5.411
 9807WAT     H129663   2.576   8.735   5.409
 9807WAT     H229664   2.707   8.720   5.504
 9808WAT      O29665   4.368   5.787   7.802
 9808WAT     H129666   4.393   5.768   7.707
 9808WAT     H229667   4.331   5.880   7.809
 9809WAT      O29668   5.960   3.723   2.628
 9809WAT     H129669   6.053   3.753   2.650
 9809WAT     H229670   5.964   3.633   2.584
 9810WAT      O29671   6.796   9.787   1.963
 9810WAT     H129672   6.726   9.858   1.974
 9810WAT     H229673   6.762   9.701   2.001
 9811WAT      O29674   3.480   9.445   9.614
 9811WAT     H129675   3.514   9.435   9.708
 9811WAT     H229676   3.382   9.426   9.613
 9812WAT      O29677   7.271   3.466   8.005
 9812WAT     H129678   7.278   3.377   8.050
 9812WAT     H229679   7.175   3.495   8.003
 9813WAT      O29680   1.764   9.252   0.184
 9813WAT     H129681   1.753   9.239   0.282
 9813WAT     H229682   1.679   9.289   0.145
 9814WAT      O29683   0.510   5.724   1.409
 9814WAT     H129684   0.425   5.693   1.452
 9814WAT     H229685   0.577   5.650   1.411
 9815WAT      O29686   9.681   4.763   3.157
 9815WAT     H129687   9.683   4.732   3.061
 9815WAT     H229688   9.628   4.697   3.211
 9816WAT      O29689   8.403   5.740   2.423
 9816WAT     H129690   8.451   5.770   2.506
 9816WAT     H229691   8.368   5.819   2.374
 9817WAT      O29692   8.279   0.336   2.874
 9817WAT     H129693   8.272   0.392   2.791
 9817WAT     H229694   8.200   0.354   2.932
 9818WAT      O29695   2.212   1.458   3.214
 9818WAT     H129696   2.230   1.541   3.161
 9818WAT     H229697   2.299   1.419   3.245
 9819WAT      O29698   0.094   7.343   5.811
 9819WAT     H129699   0.081   7.434   5.772
 9819WAT     H229700   0.006   7.309   5.845
 9820WAT      O29701   1.543   7.314   7.583
 9820WAT     H129702   1.622   7.253   7.578
 9820WAT     H229703   1.526   7.339   7.679
 9821WAT      O29704   4.703   7.456   9.191
 9821WAT     H129705   4.791   7.503   9.198
 9821WAT     H229706   4.632   7.521   9.164
 9822WAT      O29707   4.929   2.205   9.359
 9822WAT     H129708   4.928   2.141   9.435
 9822WAT     H229709   4.884   2.290   9.386
 9823WAT      O29710   2.132   9.668   2.382
 9823WAT     H129711   2.086   9.752   2.409
 9823WAT     H229712   2.208   9.649   2.445
 9824WAT      O29713   1.379   2.900   4.085
 9824WAT     H129714   1.297   2.862   4.042
 9824WAT     H229715   1.460   2.861   4.042
 9825WAT      O29716   9.144   3.182   0.647
 9825WAT     H129717   9.133   3.279   0.667
 9825WAT     H229718   9.237   3.154   0.669
 9826WAT      O29719   2.820   4.563   7.267
 9826WAT     H129720   2.844   4.592   7.174
 9826WAT     H229721   2.755   4.628   7.306
 9827WAT      O29722   2.110   4.468   2.539
 9827WAT     H129723   2.025   4.518   2.559
 9827WAT     H229724   2.109   4.381   2.589
 9828WAT      O29725   9.870   1.742   7.945
 9828WAT     H129726   9.900   1.683   7.871
 9828WAT     H229727   9.809   1.812   7.909
 9829WAT      O29728   1.207   7.792   0.978
 9829WAT     H129729   1.295   7.798   1.025
 9829WAT     H229730   1.202   7.862   0.906
 9830WAT      O29731   7.999   0.722   8.131
 9830WAT     H129732   7.973   0.711   8.226
 9830WAT     H229733   8.068   0.654   8.107
 9831WAT      O29734   4.486   9.058   2.934
 9831WAT     H129735   4.560   9.025   2.877
 9831WAT     H229736   4.404   9.073   2.878
 9832WAT      O29737   1.530   9.662   8.566
 9832WAT     H129738   1.561   9.697   8.654
 9832WAT     H229739   1.510   9.739   8.505
 9833WAT      O29740   1.701   2.404   8.491
 9833WAT     H129741   1.712   2.453   8.404
 9833WAT     H229742   1.691   2.470   8.565
 9834WAT      O29743   9.458   8.616   4.021
 9834WAT     H129744   9.408   8.592   4.104
 9834WAT     H229745   9.393   8.640   3.949
 9835WAT      O29746   4.798   5.832   9.429
 9835WAT     H129747   4.765   5.878   9.346
 9835WAT     H229748   4.890   5.863   9.450
 9836WAT      O29749   7.036   9.411   4.711
 9836WAT     H129750   7.110   9.374   4.655
 9836WAT     H229751   7.035   9.365   4.800
 9837WAT      O29752   8.697   1.160   1.057
 9837WAT     H129753   8.688   1.071   1.100
 9837WAT     H229754   8.610   1.188   1.018
 9838WAT      O29755   6.468   8.894   8.113
 9838WAT     H129756   6.488   8.973   8.054
 9838WAT     H229757   6.539   8.825   8.101
 9839WAT      O29758   4.073   6.992   4.519
 9839WAT     H129759   4.046   6.917   4.580
 9839WAT     H229760   4.161   7.029   4.548
 9840WAT      O29761   8.976   9.610   8.441
 9840WAT     H129762   8.931   9.611   8.352
 9840WAT     H229763   9.069   9.577   8.432
 9841WAT      O29764   3.246   0.261   1.211
 9841WAT     H129765   3.152   0.287   1.191
 9841WAT     H229766   3.252   0.162   1.226
 9842WAT      O29767   8.562   1.328   6.664
 9842WAT     H129768   8.501   1.401   6.632
 9842WAT     H229769   8.643   1.369   6.707
 9843WAT      O29770   5.975   0.313   7.914
 9843WAT     H129771   6.008   0.222   7.889
 9843WAT     H229772   5.977   0.323   8.013
 9844WAT      O29773   3.766   4.385   1.804
 9844WAT     H129774   3.816   4.311   1.758
 9844WAT     H229775   3.739   4.454   1.736
 9845WAT      O29776   6.954   5.897   8.260
 9845WAT     H129777   6.914   5.823   8.314
 9845WAT     H229778   6.982   5.861   8.171
 9846WAT      O29779   7.238   0.618   1.863
 9846WAT     H129780   7.312   0.680   1.890
 9846WAT     H229781   7.151   0.667   1.865
 9847WAT      O29782   4.416   0.091   0.646
 9847WAT     H129783   4.334   0.132   0.685
 9847WAT     H229784   4.429  -0.000   0.684
 9848WAT      O29785   2.850   3.289   8.610
 9848WAT     H129786   2.876   3.254   8.700
 9848WAT     H229787   2.919   3.355   8.579
 9849WAT      O29788   2.976   6.730   8.567
 9849WAT     H129789   3.008   6.645   8.609
 9849WAT     H229790   3.011   6.736   8.473
 9850WAT      O29791   1.353   4.259   3.333
 9850WAT     H129792   1.443   4.253   3.377
 9850WAT     H229793   1.363   4.305   3.245
 9851WAT      O29794   4.407   4.260   5.791
 9851WAT     H129795   4.505   4.263   5.808
 9851WAT     H229796   4.367   4.179   5.835
 9852WAT      O29797   4.387   2.183   7.249
 9852WAT     H129798   4.415   2.199   7.344
 9852WAT     H229799   4.467   2.184   7.190
 9853WAT      O29800   6.953   9.543   5.474
 9853WAT     H129801   6.877   9.604   5.452
 9853WAT     H229802   7.029   9.596   5.511
 9854WAT      O29803   0.153   7.584   1.150
 9854WAT     H129804   0.093   7.553   1.224
 9854WAT     H229805   0.107   7.570   1.062
 9855WAT      O29806   2.750   7.916   5.118
 9855WAT     H129807   2.735   7.891   5.022
 9855WAT     H229808   2.725   8.012   5.131
 9856WAT      O29809   0.167   7.920   1.910
 9856WAT     H129810   0.072   7.895   1.896
 9856WAT     H229811   0.173   8.001   1.968
 9857WAT      O29812   4.391   7.877   4.879
 9857WAT     H129813   4.460   7.806   4.861
 9857WAT     H229814   4.346   7.858   4.966
 9858WAT      O29815   7.946   1.468   3.927
 9858WAT     H129816   7.901   1.436   3.844
 9858WAT     H229817   7.882   1.463   4.003
 9859WAT      O29818   7.110   2.705   5.272
 9859WAT     H129819   7.120   2.769   5.348
 9859WAT     H229820   7.186   2.717   5.208
 9860WAT      O29821   5.611   6.213   4.878
 9860WAT     H129822   5.637   6.256   4.965
 9860WAT     H229823   5.527   6.161   4.891
 9861WAT      O29824   9.491   5.442   8.395
 9861WAT     H129825   9.430   5.490   8.331
 9861WAT     H229826   9.491   5.489   8.483
 9862WAT      O29827   6.104   1.692   7.504
 9862WAT     H129828   6.017   1.727   7.469
 9862WAT     H229829   6.178   1.722   7.443
 9863WAT      O29830   2.283   0.394   8.568
 9863WAT     H129831   2.198   0.436   8.599
 9863WAT     H229832   2.285   0.298   8.599
 9864WAT      O29833   8.111   5.614   8.528
 9864WAT     H129834   8.147   5.521   8.534
 9864WAT     H229835   8.018   5.612   8.490
 9865WAT      O29836   3.874   9.597   2.009
 9865WAT     H129837   3.803   9.656   2.049
 9865WAT     H229838   3.964   9.634   2.031
 9866WAT      O29839   5.424   8.984   7.740
 9866WAT     H129840   5.462   8.937   7.660
 9866WAT     H229841   5.370   8.919   7.794
 9867WAT      O29842   8.063   4.092   8.140
 9867WAT     H129843   7.969   4.084   8.108
 9867WAT     H229844   8.086   4.011   8.195
 9868WAT      O29845   0.170   6.657   9.467
 9868WAT     H129846   0.208   6.746   9.494
 9868WAT     H229847   0.214   6.585   9.520
 9869WAT      O29848   4.713   2.584   2.669
 9869WAT     H129849   4.788   2.520   2.656
 9869WAT     H229850   4.626   2.534   2.669
 9870WAT      O29851   7.259   3.405   0.418
 9870WAT     H129852   7.163   3.400   0.445
 9870WAT     H229853   7.311   3.453   0.489
 9871WAT      O29854   4.052   9.352   8.661
 9871WAT     H129855   4.024   9.395   8.746
 9871WAT     H229856   4.011   9.400   8.584
 9872WAT      O29857   6.118   7.739   6.065
 9872WAT     H129858   6.056   7.745   5.987
 9872WAT     H229859   6.074   7.778   6.145
 9873WAT      O29860   9.095   9.630   2.523
 9873WAT     H129861   9.099   9.556   2.457
 9873WAT     H229862   9.034   9.702   2.489
 9874WAT      O29863   1.285   2.859   4.467
 9874WAT     H129864   1.309   2.932   4.402
 9874WAT     H229865   1.207   2.808   4.431
 9875WAT      O29866   9.837   4.978   5.453
 9875WAT     H129867   9.866   4.993   5.548
 9875WAT     H229868   9.918   4.969   5.395
 9876WAT      O29869   1.139   5.583   0.059
 9876WAT     H129870   1.054   5.618   0.100
 9876WAT     H229871   1.174   5.648  -0.008
 9877WAT      O29872   7.107   9.219   6.011
 9877WAT     H129873   7.052   9.176   5.939
 9877WAT     H229874   7.076   9.313   6.025
 9878WAT      O29875   6.681   2.365   6.904
 9878WAT     H129876   6.702   2.428   6.979
 9878WAT     H229877   6.711   2.405   6.817
 9879WAT      O29878   7.925   3.425   0.072
 9879WAT     H129879   7.851   3.431   0.139
 9879WAT     H229880   7.892   3.450  -0.018
 9880WAT      O29881   4.395   8.816   4.906
 9880WAT     H129882   4.430   8.746   4.969
 9880WAT     H229883   4.366   8.896   4.959
 9881WAT      O29884   7.734   3.229   3.839
 9881WAT     H129885   7.743   3.202   3.743
 9881WAT     H229886   7.710   3.326   3.845
 9882WAT      O29887   7.346   6.205   4.728
 9882WAT     H129888   7.387   6.281   4.779
 9882WAT     H229889   7.333   6.233   4.632
 9883WAT      O29890   3.393   2.395   6.515
 9883WAT     H129891   3.383   2.297   6.532
 9883WAT     H229892   3.490   2.416   6.503
 9884WAT      O29893   5.944   6.023   7.441
 9884WAT     H129894   5.948   5.996   7.537
 9884WAT     H229895   5.851   6.053   7.419
 9885WAT      O29896   1.407   5.258   3.766
 9885WAT     H129897   1.398   5.186   3.835
 9885WAT     H229898   1.424   5.217   3.676
 9886WAT      O29899   3.424   7.054   7.187
 9886WAT     H129900   3.409   7.122   7.258
 9886WAT     H229901   3.523   7.045   7.170
 9887WAT      O29902   7.631   4.815   1.342
 9887WAT     H129903   7.547   4.768   1.369
 9887WAT     H229904   7.681   4.843   1.425
 9888WAT      O29905   1.357   9.756   2.789
 9888WAT     H129906   1.269   9.766   2.835
 9888WAT     H229907   1.347   9.784   2.693
 9889WAT      O29908   7.619   7.114   7.169
 9889WAT     H129909   7.523   7.139   7.154
 9889WAT     H229910   7.639   7.117   7.267
 9890WAT      O29911   4.291   2.650   8.456
 9890WAT     H129912   4.333   2.730   8.412
 9890WAT     H229913   4.312   2.651   8.554
 9891WAT      O29914   1.817   1.627   0.151
 9891WAT     H129915   1.815   1.535   0.113
 9891WAT     H229916   1.834   1.622   0.250
 9892WAT      O29917   3.139   5.548   3.204
 9892WAT     H129918   3.050   5.509   3.179
 9892WAT     H229919   3.158   5.529   3.300
 9893WAT      O29920   6.571   0.204   0.695
 9893WAT     H129921   6.472   0.218   0.696
 9893WAT     H229922   6.592   0.109   0.716
 9894WAT      O29923   9.649   9.361   8.201
 9894WAT     H129924   9.696   9.393   8.283
 9894WAT     H229925   9.704   9.383   8.120
 9895WAT      O29926   5.329   9.246   9.613
 9895WAT     H129927   5.377   9.160   9.627
 9895WAT     H229928   5.233   9.227   9.590
 9896WAT      O29929   4.172   2.675   5.797
 9896WAT     H129930   4.192   2.577   5.796
 9896WAT     H229931   4.142   2.702   5.888
 9897WAT      O29932   6.275   5.475   5.889
 9897WAT     H129933   6.212   5.527   5.830
 9897WAT     H229934   6.289   5.384   5.851
 9898WAT      O29935   3.118   0.871   9.223
 9898WAT     H129936   3.178   0.893   9.300
 9898WAT     H229937   3.047   0.808   9.254
 9899WAT      O29938   4.941   7.569   4.888
 9899WAT     H129939   5.040   7.583   4.885
 9899WAT     H229940   4.917   7.489   4.832
 9900WAT      O29941   1.170   6.081   2.307
 9900WAT     H129942   1.132   6.027   2.232
 9900WAT     H229943   1.178   6.176   2.278
 9901WAT      O29944   5.957   8.437   0.204
 9901WAT     H129945   6.049   8.473   0.215
 9901WAT     H229946   5.943   8.410   0.108
 9902WAT      O29947   4.419   1.525   9.452
 9902WAT     H129948   4.386   1.481   9.536
 9902WAT     H229949   4.504   1.482   9.423
 9903WAT      O29950   8.054   9.640   4.767
 9903WAT     H129951   8.005   9.610   4.685
 9903WAT     H229952   7.992   9.642   4.845
 9904WAT      O29953   5.261   3.730   2.358
 9904WAT     H129954   5.348   3.692   2.326
 9904WAT     H229955   5.274   3.825   2.386
 9905WAT      O29956   2.449   2.796   3.374
 9905WAT     H129957   2.392   2.716   3.356
 9905WAT     H229958   2.513   2.775   3.449
 9906WAT      O29959   3.723   0.755   9.085
 9906WAT     H129960   3.678   0.700   9.015
 9906WAT     H229961   3.665   0.761   9.166
 9907WAT      O29962   5.571   7.897   6.728
 9907WAT     H129963   5.548   7.898   6.631
 9907WAT     H229964   5.624   7.814   6.749
 9908WAT      O29965   0.440   9.698   3.092
 9908WAT     H129966   0.513   9.727   3.030
 9908WAT     H229967   0.354   9.741   3.066
 9909WAT      O29968   4.635   7.636   2.555
 9909WAT     H129969   4.618   7.549   2.508
 9909WAT     H229970   4.732   7.645   2.575
 9910WAT      O29971   1.014   4.941   7.005
 9910WAT     H129972   0.963   5.005   7.062
 9910WAT     H229973   1.092   4.905   7.057
 9911WAT      O29974   3.435   8.715   4.862
 9911WAT     H129975   3.416   8.619   4.840
 9911WAT     H229976   3.534   8.729   4.869
 9912WAT      O29977   5.057   9.758   2.600
 9912WAT     H129978   5.144   9.796   2.566
 9912WAT     H229979   5.054   9.767   2.699
 9913WAT      O29980   3.844   4.099   8.834
 9913WAT     H129981   3.765   4.106   8.895
 9913WAT     H229982   3.884   4.008   8.841
 9914WAT      O29983   9.352   0.315   3.053
 9914WAT     H129984   9.262   0.352   3.078
 9914WAT     H229985   9.414   0.324   3.131
 9915WAT      O29986   5.060   9.211   9.584
 9915WAT     H129987   5.026   9.120   9.609
 9915WAT     H229988   5.008   9.281   9.635
 9916WAT      O29989   7.717   6.614   2.548
 9916WAT     H129990   7.757   6.624   2.457
 9916WAT     H229991   7.619   6.629   2.543
 9917WAT      O29992   7.527   1.331   0.124
 9917WAT     H129993   7.464   1.331   0.046
 9917WAT     H229994   7.615   1.370   0.095
 9918WAT      O29995   7.733   0.552   2.736
 9918WAT     H129996   7.782   0.545   2.649
 9918WAT     H229997   7.753   0.471   2.791
 9919WAT      O29998   4.675   2.830   8.347
 9919WAT     H129999   4.695   2.737   8.316
 9919WAT     H230000   4.577   2.839   8.363
 9920WAT      O30001   8.051   0.629   8.989
 9920WAT     H130002   7.969   0.642   9.045
 9920WAT     H230003   8.042   0.546   8.935
 9921WAT      O30004   7.145   4.573   7.351
 9921WAT     H130005   7.136   4.532   7.261
 9921WAT     H230006   7.186   4.664   7.342
 9922WAT      O30007   6.628   2.732   0.529
 9922WAT     H130008   6.688   2.663   0.488
 9922WAT     H230009   6.681   2.791   0.589
 9923WAT      O30010   5.010   6.911   4.618
 9923WAT     H130011   4.996   6.830   4.675
 9923WAT     H230012   4.942   6.913   4.545
 9924WAT      O30013   8.791   0.466   7.661
 9924WAT     H130014   8.869   0.478   7.601
 9924WAT     H230015   8.709   0.451   7.606
 9925WAT      O30016   6.603   8.578   8.910
 9925WAT     H130017   6.518   8.581   8.962
 9925WAT     H230018   6.619   8.666   8.865
 9926WAT      O30019   7.872   8.136   2.362
 9926WAT     H130020   7.890   8.205   2.291
 9926WAT     H230021   7.884   8.177   2.452
 9927WAT      O30022   1.338   2.581   8.806
 9927WAT     H130023   1.356   2.556   8.711
 9927WAT     H230024   1.425   2.605   8.851
 9928WAT      O30025   3.805   8.233   7.538
 9928WAT     H130026   3.867   8.253   7.463
 9928WAT     H230027   3.814   8.303   7.609
 9929WAT      O30028   9.851   0.025   4.949
 9929WAT     H130029   9.776   0.076   4.907
 9929WAT     H230030   9.816  -0.059   4.989
 9930WAT      O30031   9.785   5.429   0.614
 9930WAT     H130032   9.863   5.474   0.659
 9930WAT     H230033   9.819   5.369   0.542
 9931WAT      O30034   7.247   9.786   4.635
 9931WAT     H130035   7.240   9.796   4.734
 9931WAT     H230036   7.158   9.801   4.593
 9932WAT      O30037   5.178   0.126   3.364
 9932WAT     H130038   5.202   0.060   3.436
 9932WAT     H230039   5.152   0.076   3.281
 9933WAT      O30040   5.550   6.810   8.277
 9933WAT     H130041   5.622   6.746   8.250
 9933WAT     H230042   5.590   6.899   8.298
 9934WAT      O30043   3.038   3.845   2.431
 9934WAT     H130044   3.075   3.911   2.497
 9934WAT     H230045   3.037   3.754   2.472
 9935WAT      O30046   0.337   8.638   6.763
 9935WAT     H130047   0.403   8.581   6.812
 9935WAT     H230048   0.274   8.579   6.712
 9936WAT      O30049   2.798   6.233   5.117
 9936WAT     H130050   2.754   6.149   5.150
 9936WAT     H230051   2.748   6.312   5.153
 9937WAT      O30052   3.720   2.417   1.506
 9937WAT     H130053   3.774   2.342   1.544
 9937WAT     H230054   3.731   2.498   1.564
 9938WAT      O30055   3.642   6.002   4.266
 9938WAT     H130056   3.705   5.927   4.244
 9938WAT     H230057   3.619   5.999   4.363
 9939WAT      O30058   3.760   7.481   0.248
 9939WAT     H130059   3.714   7.566   0.274
 9939WAT     H230060   3.820   7.451   0.322
 9940WAT      O30061   5.157   9.487   6.992
 9940WAT     H130062   5.104   9.486   6.908
 9940WAT     H230063   5.253   9.506   6.971
 9941WAT      O30064   9.779   8.236   4.759
 9941WAT     H130065   9.785   8.198   4.666
 9941WAT     H230066   9.762   8.334   4.753
 9942WAT      O30067   6.316   1.746   7.345
 9942WAT     H130068   6.339   1.672   7.282
 9942WAT     H230069   6.364   1.829   7.318
 9943WAT      O30070   1.897   3.272   1.534
 9943WAT     H130071   1.891   3.173   1.544
 9943WAT     H230072   1.913   3.295   1.438
 9944WAT      O30073   0.656   7.156   5.162
 9944WAT     H130074   0.628   7.234   5.217
 9944WAT     H230075   0.584   7.086   5.164
 9945WAT      O30076   4.422   7.612   5.691
 9945WAT     H130077   4.383   7.659   5.611
 9945WAT     H230078   4.512   7.575   5.667
 9946WAT      O30079   7.466   3.148   4.987
 9946WAT     H130080   7.367   3.142   4.974
 9946WAT     H230081   7.485   3.193   5.074
 9947WAT      O30082   4.842   9.440   0.363
 9947WAT     H130083   4.767   9.395   0.315
 9947WAT     H230084   4.811   9.529   0.396
 9948WAT      O30085   3.262   8.473   9.043
 9948WAT     H130086   3.224   8.417   9.117
 9948WAT     H230087   3.321   8.416   8.986
 9949WAT      O30088   4.128   1.293   6.135
 9949WAT     H130089   4.125   1.254   6.043
 9949WAT     H230090   4.060   1.366   6.143
 9950WAT      O30091   2.196   0.246   5.672
 9950WAT     H130092   2.154   0.220   5.759
 9950WAT     H230093   2.194   0.168   5.609
 9951WAT      O30094   6.604   1.693   6.695
 9951WAT     H130095   6.544   1.616   6.674
 9951WAT     H230096   6.556   1.758   6.753
 9952WAT      O30097   1.148   6.095   2.597
 9952WAT     H130098   1.106   6.015   2.639
 9952WAT     H230099   1.160   6.079   2.499
 9953WAT      O30100   1.362   1.139   9.289
 9953WAT     H130101   1.351   1.190   9.204
 9953WAT     H230102   1.280   1.085   9.307
 9954WAT      O30103   3.987   3.128   1.991
 9954WAT     H130104   4.082   3.160   1.992
 9954WAT     H230105   3.937   3.172   2.065
 9955WAT      O30106   7.055   8.436   2.046
 9955WAT     H130107   7.150   8.407   2.036
 9955WAT     H230108   7.051   8.518   2.103
 9956WAT      O30109   4.988   6.099   9.024
 9956WAT     H130110   5.031   6.018   8.984
 9956WAT     H230111   5.053   6.143   9.087
 9957WAT      O30112   0.667   8.204   3.787
 9957WAT     H130113   0.657   8.239   3.881
 9957WAT     H230114   0.706   8.276   3.729
 9958WAT      O30115   9.239   5.678   9.109
 9958WAT     H130116   9.318   5.726   9.147
 9958WAT     H230117   9.207   5.610   9.175
 9959WAT      O30118   2.108   6.409   4.942
 9959WAT     H130119   2.203   6.404   4.975
 9959WAT     H230120   2.059   6.479   4.992
 9960WAT      O30121   2.434   1.758   0.828
 9960WAT     H130122   2.461   1.851   0.853
 9960WAT     H230123   2.516   1.706   0.802
 9961WAT      O30124   1.356   8.902   5.174
 9961WAT     H130125   1.402   8.829   5.123
 9961WAT     H230126   1.424   8.968   5.205
 9962WAT      O30127   6.711   1.838   5.078
 9962WAT     H130128   6.763   1.754   5.062
 9962WAT     H230129   6.621   1.816   5.116
 9963WAT      O30130   7.139   1.130   6.631
 9963WAT     H130131   7.198   1.116   6.551
 9963WAT     H230132   7.152   1.223   6.665
 9964WAT      O30133   8.242   3.156   8.417
 9964WAT     H130134   8.286   3.113   8.496
 9964WAT     H230135   8.158   3.201   8.447
 9965WAT      O30136   5.224   6.466   2.084
 9965WAT     H130137   5.275   6.409   2.147
 9965WAT     H230138   5.229   6.562   2.112
 9966WAT      O30139   4.262   8.717   8.766
 9966WAT     H130140   4.295   8.627   8.736
 9966WAT     H230141   4.264   8.721   8.865
 9967WAT      O30142   5.909   1.571   5.601
 9967WAT     H130143   5.855   1.617   5.531
 9967WAT     H230144   5.989   1.627   5.625
 9968WAT      O30145   5.654   2.484   7.407
 9968WAT     H130146   5.736   2.531   7.375
 9968WAT     H230147   5.656   2.388   7.377
 9969WAT      O30148   2.746   1.180   9.641
 9969WAT     H130149   2.833   1.154   9.598
 9969WAT     H230150   2.704   1.100   9.682
 9970WAT      O30151   7.577   1.341   9.352
 9970WAT     H130152   7.522   1.424   9.348
 9970WAT     H230153   7.586   1.311   9.447
 9971WAT      O30154   9.596   1.750   6.081
 9971WAT     H130155   9.501   1.743   6.051
 9971WAT     H230156   9.620   1.668   6.134
 9972WAT      O30157   4.632   7.862   4.662
 9972WAT     H130158   4.654   7.791   4.596
 9972WAT     H230159   4.622   7.821   4.753
 9973WAT      O30160   3.701   7.000   2.530
 9973WAT     H130161   3.631   7.066   2.503
 9973WAT     H230162   3.679   6.910   2.495
 9974WAT      O30163   9.431   5.074   9.119
 9974WAT     H130164   9.466   4.982   9.132
 9974WAT     H230165   9.465   5.112   9.033
 9975WAT      O30166   8.525   5.387   5.585
 9975WAT     H130167   8.459   5.339   5.643
 9975WAT     H230168   8.592   5.433   5.642
 9976WAT      O30169   1.594   6.742   8.778
 9976WAT     H130170   1.688   6.770   8.760
 9976WAT     H230171   1.582   6.727   8.876
 9977WAT      O30172   3.258   2.728   7.043
 9977WAT     H130173   3.290   2.710   7.136
 9977WAT     H230174   3.259   2.643   6.990
 9978WAT      O30175   5.608   8.651   1.272
 9978WAT     H130176   5.656   8.600   1.201
 9978WAT     H230177   5.519   8.608   1.289
 9979WAT      O30178   4.723   4.105   6.127
 9979WAT     H130179   4.813   4.101   6.083
 9979WAT     H230180   4.735   4.120   6.225
 9980WAT      O30181   2.306   3.953   5.521
 9980WAT     H130182   2.349   3.863   5.512
 9980WAT     H230183   2.375   4.020   5.547
 9981WAT      O30184   0.916   6.275   9.525
 9981WAT     H130185   0.993   6.315   9.475
 9981WAT     H230186   0.936   6.277   9.623
 9982WAT      O30187   6.346   8.601   9.040
 9982WAT     H130188   6.286   8.604   9.120
 9982WAT     H230189   6.320   8.524   8.982
 9983WAT      O30190   1.307   2.432   4.479
 9983WAT     H130191   1.302   2.364   4.406
 9983WAT     H230192   1.353   2.514   4.445
 9984WAT      O30193   2.835   0.435   2.254
 9984WAT     H130194   2.851   0.491   2.335
 9984WAT     H230195   2.811   0.494   2.177
 9985WAT      O30196   3.585   0.490   4.538
 9985WAT     H130197   3.509   0.473   4.475
 9985WAT     H230198   3.553   0.478   4.632
 9986WAT      O30199   3.920   7.527   0.737
 9986WAT     H130200   3.832   7.566   0.764
 9986WAT     H230201   3.990   7.557   0.801
 9987WAT      O30202   0.110   9.271   4.152
 9987WAT     H130203   0.027   9.309   4.192
 9987WAT     H230204   0.160   9.343   4.104
 9988WAT      O30205   3.292   3.703   6.959
 9988WAT     H130206   3.241   3.617   6.946
 9988WAT     H230207   3.289   3.756   6.875
 9989WAT      O30208   2.723   1.958   9.883
 9989WAT     H130209   2.651   1.930   9.819
 9989WAT     H230210   2.764   1.877   9.925
 9990WAT      O30211   1.840   6.437   0.842
 9990WAT     H130212   1.885   6.470   0.759
 9990WAT     H230213   1.774   6.505   0.874
 9991WAT      O30214   9.767   3.557   3.868
 9991WAT     H130215   9.713   3.501   3.932
 9991WAT     H230216   9.854   3.511   3.850
 9992WAT      O30217   8.544   8.601   7.525
 9992WAT     H130218   8.631   8.649   7.535
 9992WAT     H230219   8.473   8.651   7.573
 9993WAT      O30220   9.528   6.917   0.616
 9993WAT     H130221   9.602   6.926   0.683
 9993WAT     H230222   9.489   7.007   0.597
 9994WAT      O30223   1.265   9.344   0.441
 9994WAT     H130224   1.190   9.398   0.479
 9994WAT     H230225   1.255   9.249   0.469
 9995WAT      O30226   5.244   9.730   5.676
 9995WAT     H130227   5.321   9.679   5.636
 9995WAT     H230228   5.162   9.716   5.620
 9996WAT      O30229   8.540   6.228   3.545
 9996WAT     H130230   8.593   6.254   3.625
 9996WAT     H230231   8.442   6.239   3.563
 9997WAT      O30232   7.114   5.224   0.707
 9997WAT     H130233   7.141   5.294   0.773
 9997WAT     H230234   7.017   5.235   0.684
 9998WAT      O30235   2.854   1.518   6.200
 9998WAT     H130236   2.926   1.560   6.255
 9998WAT     H230237   2.768   1.565   6.216
 9999WAT      O30238   0.345   8.784   5.254
 9999WAT     H130239   0.379   8.855   5.315
 9999WAT     H230240   0.303   8.826   5.173
10000WAT      O30241   2.896   8.135   4.568
10000WAT     H130242   2.850   8.190   4.638
10000WAT     H230243   2.872   8.170   4.477
10001WAT      O30244   6.182   2.083   1.607
10001WAT     H130245   6.211   2.110   1.515
10001WAT     H230246   6.216   2.150   1.674
10002WAT      O30247   0.239   6.589   4.619
10002WAT     H130248   0.240   6.499   4.663
10002WAT     H230249   0.144   6.623   4.615
10003WAT      O30250   7.006   8.089   5.463
10003WAT     H130251   7.010   7.991   5.445
10003WAT     H230252   7.083   8.116   5.521
10004WAT      O30253   5.002   9.539   4.865
10004WAT     H130254   5.013   9.529   4.767
10004WAT     H230255   4.915   9.498   4.894
10005WAT      O30256   2.782   3.022   3.567
10005WAT     H130257   2.781   3.089   3.493
10005WAT     H230258   2.771   2.930   3.529
10006WAT      O30259   3.428   6.205   5.486
10006WAT     H130260   3.494   6.275   5.512
10006WAT     H230261   3.471   6.141   5.422
10007WAT      O30262   4.561   6.887   8.572
10007WAT     H130263   4.493   6.957   8.593
10007WAT     H230264   4.602   6.853   8.656
10008WAT      O30265   7.669   8.251   4.397
10008WAT     H130266   7.572   8.277   4.394
10008WAT     H230267   7.677   8.152   4.404
10009WAT      O30268   1.973   8.621   9.805
10009WAT     H130269   1.916   8.556   9.854
10009WAT     H230270   1.998   8.697   9.865
10010WAT      O30271   1.196   8.815   4.009
10010WAT     H130272   1.231   8.747   4.073
10010WAT     H230273   1.137   8.769   3.942
10011WAT      O30274   8.422   7.918   1.081
10011WAT     H130275   8.370   7.833   1.077
10011WAT     H230276   8.478   7.927   0.999
10012WAT      O30277   1.413   9.809   3.457
10012WAT     H130278   1.499   9.806   3.508
10012WAT     H230279   1.369   9.720   3.460
10013WAT      O30280   6.794   2.669   6.616
10013WAT     H130281   6.857   2.680   6.538
10013WAT     H230282   6.732   2.748   6.619
10014WAT      O30283   7.584   4.926   4.014
10014WAT     H130284   7.627   4.839   3.989
10014WAT     H230285   7.594   4.991   3.938
10015WAT      O30286   3.750   1.144   5.005
10015WAT     H130287   3.671   1.128   5.063
10015WAT     H230288   3.767   1.063   4.949
10016WAT      O30289   8.957   3.023   4.550
10016WAT     H130290   8.997   3.015   4.459
10016WAT     H230291   8.897   3.103   4.554
10017WAT      O30292   5.520   2.331   8.296
10017WAT     H130293   5.530   2.425   8.263
10017WAT     H230294   5.509   2.269   8.218
10018WAT      O30295   7.143   1.415   6.428
10018WAT     H130296   7.223   1.373   6.384
10018WAT     H230297   7.157   1.417   6.527
10019WAT      O30298   6.929   0.960   0.226
10019WAT     H130299   6.877   0.930   0.146
10019WAT     H230300   7.022   0.985   0.199
10020WAT      O30301   8.455   0.474   2.004
10020WAT     H130302   8.379   0.413   2.027
10020WAT     H230303   8.447   0.558   2.058
10021WAT      O30304   8.487   4.083   6.634
10021WAT     H130305   8.445   4.086   6.543
10021WAT     H230306   8.548   4.161   6.645
10022WAT      O30307   0.129   0.646   6.038
10022WAT     H130308   0.071   0.655   5.957
10022WAT     H230309   0.173   0.733   6.058
10023WAT      O30310   6.378   7.150   9.257
10023WAT     H130311   6.339   7.196   9.337
10023WAT     H230312   6.314   7.082   9.222
10024WAT      O30313   0.044   9.708   4.631
10024WAT     H130314  -0.043   9.757   4.629
10024WAT     H230315   0.099   9.738   4.709
10025WAT      O30316   1.680   8.430   2.653
10025WAT     H130317   1.761   8.410   2.707
10025WAT     H230318   1.639   8.516   2.683
10026WAT      O30319   1.904   2.723   8.908
10026WAT     H130320   1.984   2.769   8.868
10026WAT     H230321   1.877   2.771   8.991
10027WAT      O30322   5.866   1.591   8.150
10027WAT     H130323   5.856   1.540   8.064
10027WAT     H230324   5.963   1.597   8.174
10028WAT      O30325   8.236   7.613   7.458
10028WAT     H130326   8.193   7.528   7.428
10028WAT     H230327   8.183   7.691   7.425
10029WAT      O30328   8.523   7.397   8.884
10029WAT     H130329   8.547   7.371   8.791
10029WAT     H230330   8.602   7.384   8.944
10030WAT      O30331   7.652   8.680   4.855
10030WAT     H130332   7.580   8.739   4.817
10030WAT     H230333   7.739   8.699   4.809
10031WAT      O30334   7.150   0.144   0.180
10031WAT     H130335   7.207   0.100   0.111
10031WAT     H230336   7.102   0.074   0.233
10032WAT      O30337   1.935   9.598   8.357
10032WAT     H130338   1.880   9.537   8.300
10032WAT     H230339   1.904   9.692   8.344
10033WAT      O30340   6.246   4.407   0.523
10033WAT     H130341   6.207   4.332   0.469
10033WAT     H230342   6.342   4.387   0.542
10034WAT      O30343   7.520   7.886   2.897
10034WAT     H130344   7.596   7.942   2.928
10034WAT     H230345   7.542   7.789   2.911
10035WAT      O30346   8.389   5.218   2.201
10035WAT     H130347   8.330   5.166   2.263
10035WAT     H230348   8.485   5.199   2.224
10036WAT      O30349   4.488   1.830   7.736
10036WAT     H130350   4.430   1.853   7.814
10036WAT     H230351   4.569   1.890   7.735
10037WAT      O30352   5.403   3.620   0.937
10037WAT     H130353   5.478   3.623   1.003
10037WAT     H230354   5.359   3.531   0.941
10038WAT      O30355   0.712   4.344   5.174
10038WAT     H130356   0.787   4.306   5.120
10038WAT     H230357   0.661   4.270   5.218
10039WAT      O30358   4.857   8.751   7.134
10039WAT     H130359   4.874   8.821   7.203
10039WAT     H230360   4.773   8.702   7.157
10040WAT      O30361   4.477   7.588   9.075
10040WAT     H130362   4.412   7.585   9.152
10040WAT     H230363   4.520   7.678   9.071
10041WAT      O30364   6.798   4.784   6.945
10041WAT     H130365   6.806   4.852   7.017
10041WAT     H230366   6.869   4.714   6.956
10042WAT      O30367   7.053   3.052   3.212
10042WAT     H130368   7.114   2.983   3.251
10042WAT     H230369   7.103   3.110   3.149
10043WAT      O30370   5.990   6.236   6.378
10043WAT     H130371   5.950   6.302   6.441
10043WAT     H230372   6.088   6.254   6.369
10044WAT      O30373   3.111   8.457   0.045
10044WAT     H130374   3.030   8.495   0.089
10044WAT     H230375   3.192   8.477   0.100
10045WAT      O30376   3.418   8.536   2.737
10045WAT     H130377   3.375   8.446   2.727
10045WAT     H230378   3.442   8.572   2.647
10046WAT      O30379   0.351   4.775   1.756
10046WAT     H130380   0.308   4.862   1.779
10046WAT     H230381   0.341   4.712   1.833
10047WAT      O30382   1.856   4.345   7.985
10047WAT     H130383   1.822   4.299   8.067
10047WAT     H230384   1.874   4.442   8.006
10048WAT      O30385   2.795   3.721   3.987
10048WAT     H130386   2.725   3.678   3.930
10048WAT     H230387   2.752   3.764   4.066
10049WAT      O30388   4.113   7.423   3.048
10049WAT     H130389   4.024   7.435   3.004
10049WAT     H230390   4.103   7.364   3.128
10050WAT      O30391   8.059   9.159   1.157
10050WAT     H130392   8.023   9.170   1.065
10050WAT     H230393   8.081   9.249   1.196
10051WAT      O30394   0.906   5.941   7.619
10051WAT     H130395   0.921   6.009   7.547
10051WAT     H230396   0.812   5.946   7.651
10052WAT      O30397   6.176   9.275   7.851
10052WAT     H130398   6.168   9.222   7.935
10052WAT     H230399   6.108   9.243   7.784
10053WAT      O30400   4.816   5.767   5.290
10053WAT     H130401   4.868   5.683   5.275
10053WAT     H230402   4.827   5.829   5.213
10054WAT      O30403   5.537   5.362   3.875
10054WAT     H130404   5.526   5.424   3.952
10054WAT     H230405   5.460   5.373   3.812
10055WAT      O30406   1.518   9.622   5.107
10055WAT     H130407   1.439   9.572   5.144
10055WAT     H230408   1.523   9.609   5.008
10056WAT      O30409   2.122   5.470   2.486
10056WAT     H130410   2.038   5.525   2.488
10056WAT     H230411   2.102   5.379   2.522
10057WAT      O30412   4.769   4.111   1.508
10057WAT     H130413   4.727   4.201   1.519
10057WAT     H230414   4.815   4.107   1.420
10058WAT      O30415   4.365   1.362   6.294
10058WAT     H130416   4.444   1.371   6.233
10058WAT     H230417   4.291   1.314   6.246
10059WAT      O30418   1.334   9.466   8.036
10059WAT     H130419   1.246   9.513   8.030
10059WAT     H230420   1.320   9.368   8.023
10060WAT      O30421   3.094   2.852   1.971
10060WAT     H130422   3.114   2.809   1.883
10060WAT     H230423   3.180   2.877   2.016
10061WAT      O30424   7.707   5.329   7.073
10061WAT     H130425   7.801   5.296   7.062
10061WAT     H230426   7.705   5.397   7.146
10062WAT      O30427   3.050   7.662   7.060
10062WAT     H130428   3.094   7.636   6.974
10062WAT     H230429   2.977   7.597   7.081
10063WAT      O30430   7.780   3.096   5.711
10063WAT     H130431   7.744   3.157   5.641
10063WAT     H230432   7.833   3.148   5.778
10064WAT      O30433   9.678   9.309   2.837
10064WAT     H130434   9.697   9.243   2.764
10064WAT     H230435   9.635   9.261   2.914
10065WAT      O30436   2.262   2.093   5.308
10065WAT     H130437   2.242   2.164   5.240
10065WAT     H230438   2.295   2.136   5.392
10066WAT      O30439   3.148   1.713   6.156
10066WAT     H130440   3.101   1.751   6.076
10066WAT     H230441   3.198   1.630   6.130
10067WAT      O30442   9.300   3.350   5.974
10067WAT     H130443   9.238   3.301   6.036
10067WAT     H230444   9.247   3.395   5.903
10068WAT      O30445   6.345   5.054   2.353
10068WAT     H130446   6.281   4.995   2.304
10068WAT     H230447   6.342   5.146   2.314
10069WAT      O30448   1.868   5.706   9.792
10069WAT     H130449   1.799   5.657   9.846
10069WAT     H230450   1.959   5.686   9.829
10070WAT      O30451   9.675   4.023   6.256
10070WAT     H130452   9.766   4.036   6.295
10070WAT     H230453   9.657   4.094   6.188
10071WAT      O30454   9.743   7.180   9.679
10071WAT     H130455   9.736   7.209   9.774
10071WAT     H230456   9.768   7.259   9.622
10072WAT      O30457   3.426   5.638   8.255
10072WAT     H130458   3.347   5.698   8.264
10072WAT     H230459   3.465   5.648   8.163
10073WAT      O30460   0.549   7.727   2.488
10073WAT     H130461   0.592   7.651   2.535
10073WAT     H230462   0.520   7.796   2.555
10074WAT      O30463   1.423   0.554   7.217
10074WAT     H130464   1.501   0.552   7.154
10074WAT     H230465   1.338   0.559   7.165
10075WAT      O30466   3.594   8.843   7.542
10075WAT     H130467   3.531   8.841   7.620
10075WAT     H230468   3.582   8.760   7.487
10076WAT      O30469   4.602   3.689   1.742
10076WAT     H130470   4.513   3.702   1.699
10076WAT     H230471   4.637   3.778   1.773
10077WAT      O30472   6.629   2.958   3.010
10077WAT     H130473   6.630   2.989   2.914
10077WAT     H230474   6.546   2.905   3.027
10078WAT      O30475   2.055   3.551   1.431
10078WAT     H130476   2.004   3.473   1.394
10078WAT     H230477   2.031   3.564   1.527
10079WAT      O30478   1.895   6.975   8.952
10079WAT     H130479   1.859   7.066   8.928
10079WAT     H230480   1.969   6.985   9.018
10080WAT      O30481   7.128   3.217   5.156
10080WAT     H130482   7.120   3.193   5.059
10080WAT     H230483   7.073   3.298   5.175
10081WAT      O30484   7.770   9.213   7.783
10081WAT     H130485   7.711   9.173   7.852
10081WAT     H230486   7.729   9.297   7.748
10082WAT      O30487   6.436   4.596   0.084
10082WAT     H130488   6.477   4.531   0.148
10082WAT     H230489   6.480   4.588  -0.005
10083WAT      O30490   6.380   0.792   3.806
10083WAT     H130491   6.388   0.887   3.836
10083WAT     H230492   6.301   0.749   3.850
10084WAT      O30493   9.573   7.845   3.014
10084WAT     H130494   9.586   7.795   3.100
10084WAT     H230495   9.594   7.786   2.937
10085WAT      O30496   1.629   4.458   2.022
10085WAT     H130497   1.637   4.496   1.930
10085WAT     H230498   1.588   4.367   2.017
10086WAT      O30499   8.893   0.553   5.795
10086WAT     H130500   8.846   0.624   5.848
10086WAT     H230501   8.879   0.464   5.840
10087WAT      O30502   9.053   2.555   6.033
10087WAT     H130503   9.084   2.498   5.957
10087WAT     H230504   9.130   2.573   6.094
10088WAT      O30505   3.655   1.783   7.590
10088WAT     H130506   3.574   1.820   7.636
10088WAT     H230507   3.737   1.827   7.626
10089WAT      O30508   8.639   8.463   6.593
10089WAT     H130509   8.674   8.460   6.500
10089WAT     H230510   8.544   8.434   6.594
10090WAT      O30511   7.500   4.841   2.342
10090WAT     H130512   7.549   4.756   2.357
10090WAT     H230513   7.412   4.822   2.299
10091WAT      O30514   6.304   7.167   4.610
10091WAT     H130515   6.345   7.217   4.534
10091WAT     H230516   6.336   7.072   4.609
10092WAT      O30517   2.670   3.835   1.482
10092WAT     H130518   2.573   3.813   1.482
10092WAT     H230519   2.708   3.819   1.573
10093WAT      O30520   7.477   8.867   6.061
10093WAT     H130521   7.393   8.921   6.056
10093WAT     H230522   7.463   8.779   6.015
10094WAT      O30523   3.398   7.799   5.570
10094WAT     H130524   3.300   7.805   5.590
10094WAT     H230525   3.449   7.790   5.655
10095WAT      O30526   7.832   1.601   2.087
10095WAT     H130527   7.879   1.621   2.001
10095WAT     H230528   7.733   1.605   2.073
10096WAT      O30529   2.991   7.328   6.733
10096WAT     H130530   2.940   7.402   6.688
10096WAT     H230531   2.930   7.280   6.796
10097WAT      O30532   5.081   2.050   4.488
10097WAT     H130533   4.996   2.042   4.437
10097WAT     H230534   5.133   2.128   4.454
10098WAT      O30535   8.145   6.414   4.581
10098WAT     H130536   8.093   6.499   4.576
10098WAT     H230537   8.163   6.379   4.489
10099WAT      O30538   5.838   0.371   5.360
10099WAT     H130539   5.894   0.358   5.278
10099WAT     H230540   5.826   0.283   5.406
10100WAT      O30541   7.501   0.942   6.532
10100WAT     H130542   7.414   0.988   6.513
10100WAT     H230543   7.555   0.938   6.448
10101WAT      O30544   7.557   0.938   1.009
10101WAT     H130545   7.612   1.019   1.030
10101WAT     H230546   7.460   0.960   1.020
10102WAT      O30547   1.045   1.471   0.168
10102WAT     H130548   1.067   1.374   0.166
10102WAT     H230549   0.974   1.491   0.100
10103WAT      O30550   8.027   6.262   3.403
10103WAT     H130551   8.085   6.183   3.421
10103WAT     H230552   8.013   6.271   3.304
10104WAT      O30553   7.250   4.745   4.670
10104WAT     H130554   7.340   4.748   4.715
10104WAT     H230555   7.241   4.823   4.609
10105WAT      O30556   7.399   8.336   7.403
10105WAT     H130557   7.353   8.399   7.340
10105WAT     H230558   7.365   8.352   7.496
10106WAT      O30559   8.357   4.825   9.058
10106WAT     H130560   8.271   4.803   9.104
10106WAT     H230561   8.339   4.859   8.966
10107WAT      O30562   5.631   3.547   9.605
10107WAT     H130563   5.639   3.557   9.704
10107WAT     H230564   5.674   3.626   9.560
10108WAT      O30565   2.889   7.169   3.618
10108WAT     H130566   2.838   7.248   3.649
10108WAT     H230567   2.826   7.098   3.588
10109WAT      O30568   5.486   7.057   2.392
10109WAT     H130569   5.539   6.974   2.378
10109WAT     H230570   5.425   7.045   2.471
10110WAT      O30571   2.387   2.329   3.598
10110WAT     H130572   2.470   2.323   3.653
10110WAT     H230573   2.350   2.422   3.605
10111WAT      O30574   3.073   6.605   1.135
10111WAT     H130575   3.085   6.538   1.209
10111WAT     H230576   3.144   6.675   1.142
10112WAT      O30577   4.492   6.070   3.298
10112WAT     H130578   4.449   6.153   3.264
10112WAT     H230579   4.430   6.023   3.361
10113WAT      O30580   7.480   1.149   7.468
10113WAT     H130581   7.422   1.068   7.474
10113WAT     H230582   7.558   1.139   7.530
10114WAT      O30583   1.671   5.974   0.737
10114WAT     H130584   1.757   5.925   0.744
10114WAT     H230585   1.665   6.042   0.810
10115WAT      O30586   0.495   1.188   5.313
10115WAT     H130587   0.479   1.105   5.260
10115WAT     H230588   0.426   1.195   5.385
10116WAT      O30589   6.130   4.467   6.990
10116WAT     H130590   6.040   4.435   7.021
10116WAT     H230591   6.187   4.389   6.966
10117WAT      O30592   2.765   5.232   2.137
10117WAT     H130593   2.672   5.228   2.102
10117WAT     H230594   2.798   5.326   2.138
10118WAT      O30595   3.532   1.630   2.504
10118WAT     H130596   3.568   1.538   2.515
10118WAT     H230597   3.492   1.660   2.591
10119WAT      O30598   0.392   5.326   1.390
10119WAT     H130599   0.379   5.227   1.385
10119WAT     H230600   0.453   5.356   1.317
10120WAT      O30601   9.635   5.038   1.225
10120WAT     H130602   9.654   5.132   1.252
10120WAT     H230603   9.710   4.979   1.256
10121WAT      O30604   6.686   9.580   2.087
10121WAT     H130605   6.662   9.484   2.073
10121WAT     H230606   6.727   9.592   2.177
10122WAT      O30607   9.231   0.774   9.552
10122WAT     H130608   9.213   0.745   9.459
10122WAT     H230609   9.239   0.694   9.612
10123WAT      O30610   2.601   3.898   0.633
10123WAT     H130611   2.566   3.831   0.567
10123WAT     H230612   2.597   3.989   0.593
10124WAT      O30613   9.361   6.365   1.130
10124WAT     H130614   9.424   6.442   1.130
10124WAT     H230615   9.270   6.396   1.154
10125WAT      O30616   7.054   5.859   5.136
10125WAT     H130617   7.100   5.947   5.149
10125WAT     H230618   6.962   5.874   5.099
10126WAT      O30619   8.228   2.131   5.532
10126WAT     H130620   8.184   2.205   5.583
10126WAT     H230621   8.245   2.161   5.438
10127WAT      O30622   1.598   4.453   0.369
10127WAT     H130623   1.599   4.547   0.401
10127WAT     H230624   1.667   4.400   0.420
10128WAT      O30625   0.237   7.816   1.047
10128WAT     H130626   0.223   7.723   1.081
10128WAT     H230627   0.311   7.815   0.979
10129WAT      O30628   9.099   7.715   1.629
10129WAT     H130629   9.174   7.724   1.564
10129WAT     H230630   9.127   7.656   1.705
10130WAT      O30631   4.920   5.066   1.558
10130WAT     H130632   4.909   5.164   1.575
10130WAT     H230633   4.871   5.041   1.475
10131WAT      O30634   5.335   6.749   8.914
10131WAT     H130635   5.367   6.741   9.008
10131WAT     H230636   5.238   6.774   8.913
10132WAT      O30637   2.490   6.930   0.034
10132WAT     H130638   2.552   6.932  -0.044
10132WAT     H230639   2.449   6.840   0.042
10133WAT      O30640   5.902   5.455   5.675
10133WAT     H130641   5.933   5.457   5.580
10133WAT     H230642   5.817   5.507   5.684
10134WAT      O30643   3.772   2.686   4.274
10134WAT     H130644   3.798   2.634   4.355
10134WAT     H230645   3.672   2.689   4.267
10135WAT      O30646   7.128   2.227   8.609
10135WAT     H130647   7.228   2.223   8.605
10135WAT     H230648   7.095   2.301   8.551
10136WAT      O30649   4.199   0.952   2.619
10136WAT     H130650   4.294   0.963   2.591
10136WAT     H230651   4.147   0.910   2.545
10137WAT      O30652   6.019   1.300   5.425
10137WAT     H130653   6.038   1.321   5.521
10137WAT     H230654   5.935   1.345   5.396
10138WAT      O30655   0.853   3.834   6.694
10138WAT     H130656   0.929   3.818   6.632
10138WAT     H230657   0.810   3.747   6.719
10139WAT      O30658   0.428   5.315   8.654
10139WAT     H130659   0.519   5.344   8.624
10139WAT     H230660   0.374   5.396   8.676
10140WAT      O30661   5.960   2.060   9.270
10140WAT     H130662   5.979   2.154   9.240
10140WAT     H230663   5.863   2.039   9.253
10141WAT      O30664   3.547   2.484   2.057
10141WAT     H130665   3.642   2.504   2.032
10141WAT     H230666   3.507   2.422   1.990
10142WAT      O30667   8.728   1.686   6.397
10142WAT     H130668   8.762   1.705   6.489
10142WAT     H230669   8.628   1.689   6.397
10143WAT      O30670   5.092   5.650   9.176
10143WAT     H130671   5.101   5.740   9.219
10143WAT     H230672   5.172   5.631   9.119
10144WAT      O30673   2.610   6.003   4.531
10144WAT     H130674   2.532   5.948   4.503
10144WAT     H230675   2.631   5.984   4.627
10145WAT      O30676   2.617   3.783   6.848
10145WAT     H130677   2.609   3.694   6.804
10145WAT     H230678   2.709   3.821   6.831
10146WAT      O30679   3.245   9.052   8.504
10146WAT     H130680   3.199   9.125   8.555
10146WAT     H230681   3.317   9.092   8.447
10147WAT      O30682   7.767   9.547   5.847
10147WAT     H130683   7.865   9.563   5.839
10147WAT     H230684   7.718   9.607   5.783
10148WAT      O30685   4.470   3.580   0.105
10148WAT     H130686   4.522   3.596   0.021
10148WAT     H230687   4.399   3.649   0.114
10149WAT      O30688   2.179   0.768   8.460
10149WAT     H130689   2.096   0.750   8.512
10149WAT     H230690   2.159   0.832   8.386
10150WAT      O30691   0.389   6.832   6.815
10150WAT     H130692   0.354   6.892   6.887
10150WAT     H230693   0.485   6.810   6.834
10151WAT      O30694   9.584   9.261   7.031
10151WAT     H130695   9.596   9.359   7.014
10151WAT     H230696   9.674   9.216   7.032
10152WAT      O30697   7.626   7.218   1.678
10152WAT     H130698   7.716   7.179   1.697
10152WAT     H230699   7.563   7.193   1.752
10153WAT      O30700   1.609   8.242   1.536
10153WAT     H130701   1.552   8.247   1.618
10153WAT     H230702   1.589   8.320   1.477
10154WAT      O30703   6.657   5.364   6.625
10154WAT     H130704   6.607   5.387   6.542
10154WAT     H230705   6.746   5.326   6.601
10155WAT      O30706   7.085   0.158   3.705
10155WAT     H130707   7.113   0.062   3.712
10155WAT     H230708   7.117   0.195   3.618
10156WAT      O30709   8.637   4.182   9.687
10156WAT     H130710   8.718   4.213   9.738
10156WAT     H230711   8.664   4.161   9.593
10157WAT      O30712   4.035   7.755   4.968
10157WAT     H130713   3.961   7.812   5.003
10157WAT     H230714   4.121   7.779   5.014
10158WAT      O30715   1.436   9.646   8.894
10158WAT     H130716   1.475   9.555   8.876
10158WAT     H230717   1.378   9.641   8.975
10159WAT      O30718   1.780   6.555   0.086
10159WAT     H130719   1.871   6.545   0.126
10159WAT     H230720   1.720   6.484   0.123
10160WAT      O30721   9.209   0.588   7.976
10160WAT     H130722   9.293   0.599   7.922
10160WAT     H230723   9.132   0.572   7.914
10161WAT      O30724   0.450   7.946   2.632
10161WAT     H130725   0.368   7.942   2.689
10161WAT     H230726   0.528   7.976   2.687
10162WAT      O30727   8.354   3.794   6.526
10162WAT     H130728   8.300   3.812   6.609
10162WAT     H230729   8.313   3.841   6.448
10163WAT      O30730   1.473   6.725   7.538
10163WAT     H130731   1.423   6.811   7.550
10163WAT     H230732   1.571   6.744   7.529
10164WAT      O30733   3.569   5.682   0.802
10164WAT     H130734   3.535   5.627   0.879
10164WAT     H230735   3.547   5.778   0.818
10165WAT      O30736   3.428   8.858   3.922
10165WAT     H130737   3.428   8.950   3.962
10165WAT     H230738   3.470   8.860   3.832
10166WAT      O30739   9.620   3.566   5.603
10166WAT     H130740   9.659   3.591   5.692
10166WAT     H230741   9.550   3.496   5.617
10167WAT      O30742   5.850   1.923   6.898
10167WAT     H130743   5.871   1.915   6.801
10167WAT     H230744   5.839   1.831   6.937
10168WAT      O30745   8.545   3.440   4.253
10168WAT     H130746   8.551   3.397   4.343
10168WAT     H230747   8.633   3.482   4.230
10169WAT      O30748   1.273   0.248   8.361
10169WAT     H130749   1.269   0.196   8.276
10169WAT     H230750   1.233   0.193   8.435
10170WAT      O30751   8.326   1.648   0.311
10170WAT     H130752   8.318   1.548   0.309
10170WAT     H230753   8.410   1.674   0.358
10171WAT      O30754   3.943   9.345   5.439
10171WAT     H130755   3.894   9.373   5.521
10171WAT     H230756   4.017   9.409   5.421
10172WAT      O30757   3.383   4.828   4.202
10172WAT     H130758   3.429   4.883   4.273
10172WAT     H230759   3.431   4.741   4.191
10173WAT      O30760   6.075   3.972   0.961
10173WAT     H130761   6.041   3.909   0.891
10173WAT     H230762   6.078   4.065   0.925
10174WAT      O30763   7.891   4.768   7.921
10174WAT     H130764   7.800   4.773   7.961
10174WAT     H230765   7.952   4.719   7.983
10175WAT      O30766   3.867   4.082   7.085
10175WAT     H130767   3.811   4.164   7.101
10175WAT     H230768   3.836   4.037   7.001
10176WAT      O30769   5.884   9.446   3.105
10176WAT     H130770   5.858   9.409   3.194
10176WAT     H230771   5.803   9.485   3.061
10177WAT      O30772   2.961   2.712   9.134
10177WAT     H130773   2.989   2.655   9.211
10177WAT     H230774   2.962   2.657   9.050
10178WAT      O30775   6.643   2.098   7.916
10178WAT     H130776   6.722   2.120   7.859
10178WAT     H230777   6.673   2.047   7.997
10179WAT      O30778   1.247   9.125   2.020
10179WAT     H130779   1.225   9.029   2.041
10179WAT     H230780   1.214   9.184   2.094
10180WAT      O30781   4.572   1.604   7.283
10180WAT     H130782   4.580   1.700   7.255
10180WAT     H230783   4.555   1.599   7.381
10181WAT      O30784   9.426   3.844   5.192
10181WAT     H130785   9.432   3.891   5.280
10181WAT     H230786   9.404   3.911   5.121
10182WAT      O30787   0.419   5.170   1.996
10182WAT     H130788   0.464   5.198   2.081
10182WAT     H230789   0.481   5.183   1.919
10183WAT      O30790   7.717   6.432   0.566
10183WAT     H130791   7.817   6.438   0.567
10183WAT     H230792   7.689   6.343   0.531
10184WAT      O30793   7.409   2.090   4.253
10184WAT     H130794   7.476   2.163   4.266
10184WAT     H230795   7.399   2.038   4.337
10185WAT      O30796   4.399   6.506   9.450
10185WAT     H130797   4.425   6.581   9.389
10185WAT     H230798   4.333   6.447   9.403
10186WAT      O30799   8.967   6.077   1.626
10186WAT     H130800   8.892   6.039   1.573
10186WAT     H230801   8.930   6.121   1.708
10187WAT      O30802   0.429   7.915   9.880
10187WAT     H130803   0.471   7.836   9.925
10187WAT     H230804   0.369   7.963   9.944
10188WAT      O30805   2.946   8.737   7.031
10188WAT     H130806   2.961   8.674   7.107
10188WAT     H230807   2.892   8.815   7.062
10189WAT      O30808   1.564   2.293   1.050
10189WAT     H130809   1.489   2.317   1.111
10189WAT     H230810   1.533   2.299   0.955
10190WAT      O30811   5.433   5.623   7.506
10190WAT     H130812   5.376   5.704   7.519
10190WAT     H230813   5.436   5.569   7.590
10191WAT      O30814   0.194   0.706   0.413
10191WAT     H130815   0.127   0.713   0.487
10191WAT     H230816   0.263   0.638   0.437
10192WAT      O30817   6.238   2.726   3.685
10192WAT     H130818   6.315   2.733   3.622
10192WAT     H230819   6.254   2.650   3.749
10193WAT      O30820   5.649   8.205   1.203
10193WAT     H130821   5.706   8.274   1.246
10193WAT     H230822   5.614   8.142   1.272
10194WAT      O30823   4.574   6.032   4.559
10194WAT     H130824   4.549   6.123   4.526
10194WAT     H230825   4.673   6.021   4.560
10195WAT      O30826   5.516   9.270   1.778
10195WAT     H130827   5.592   9.263   1.714
10195WAT     H230828   5.484   9.178   1.803
10196WAT      O30829   9.355   3.989   4.223
10196WAT     H130830   9.387   4.083   4.234
10196WAT     H230831   9.410   3.943   4.154
10197WAT      O30832   2.876   2.939   2.272
10197WAT     H130833   2.926   3.026   2.268
10197WAT     H230834   2.797   2.949   2.332
10198WAT      O30835   1.360   0.200   4.282
10198WAT     H130836   1.361   0.290   4.327
10198WAT     H230837   1.353   0.213   4.183
10199WAT      O30838   4.035   6.709   7.951
10199WAT     H130839   3.973   6.631   7.942
10199WAT     H230840   4.130   6.677   7.943
10200WAT      O30841   9.562   4.570   3.307
10200WAT     H130842   9.584   4.488   3.361
10200WAT     H230843   9.484   4.617   3.349
10201WAT      O30844   5.887   0.784   9.630
10201WAT     H130845   5.802   0.834   9.644
10201WAT     H230846   5.896   0.714   9.701
10202WAT      O30847   7.158   7.369   5.735
10202WAT     H130848   7.060   7.356   5.720
10202WAT     H230849   7.172   7.438   5.806
10203WAT      O30850   7.547   1.701   5.869
10203WAT     H130851   7.462   1.663   5.834
10203WAT     H230852   7.545   1.801   5.862
10204WAT      O30853   7.219   1.641   8.514
10204WAT     H130854   7.242   1.735   8.536
10204WAT     H230855   7.214   1.630   8.414
10205WAT      O30856   2.208   2.453   7.708
10205WAT     H130857   2.223   2.535   7.653
10205WAT     H230858   2.188   2.376   7.647
10206WAT      O30859   1.551   5.988   3.235
10206WAT     H130860   1.457   5.988   3.268
10206WAT     H230861   1.570   6.073   3.186
10207WAT      O30862   6.145   8.327   6.084
10207WAT     H130863   6.082   8.275   6.025
10207WAT     H230864   6.237   8.324   6.046
10208WAT      O30865   7.561   2.178   1.288
10208WAT     H130866   7.489   2.219   1.344
10208WAT     H230867   7.629   2.248   1.265
10209WAT      O30868   4.936   9.099   5.548
10209WAT     H130869   4.966   9.189   5.581
10209WAT     H230870   4.931   9.101   5.448
10210WAT      O30871   5.142   7.731   6.638
10210WAT     H130872   5.073   7.703   6.706
10210WAT     H230873   5.128   7.827   6.615
10211WAT      O30874   3.391   7.572   5.822
10211WAT     H130875   3.409   7.671   5.821
10211WAT     H230876   3.293   7.556   5.810
10212WAT      O30877   3.854   1.795   7.124
10212WAT     H130878   3.911   1.786   7.042
10212WAT     H230879   3.781   1.726   7.121
10213WAT      O30880   0.936   8.359   2.584
10213WAT     H130881   0.875   8.364   2.663
10213WAT     H230882   0.888   8.317   2.508
10214WAT      O30883   1.210   0.576   1.610
10214WAT     H130884   1.255   0.487   1.607
10214WAT     H230885   1.278   0.648   1.595
10215WAT      O30886   0.767   3.887   6.213
10215WAT     H130887   0.861   3.856   6.227
10215WAT     H230888   0.734   3.932   6.295
10216WAT      O30889   6.705   7.315   0.483
10216WAT     H130890   6.728   7.236   0.540
10216WAT     H230891   6.606   7.328   0.482
10217WAT      O30892   9.025   4.211   9.317
10217WAT     H130893   8.976   4.175   9.238
10217WAT     H230894   9.052   4.306   9.300
10218WAT      O30895   8.073   1.613   2.225
10218WAT     H130896   8.083   1.712   2.231
10218WAT     H230897   7.979   1.590   2.202
10219WAT      O30898   5.892   0.551   5.977
10219WAT     H130899   5.961   0.604   6.027
10219WAT     H230900   5.918   0.454   5.978
10220WAT      O30901   1.931   7.832   2.871
10220WAT     H130902   1.848   7.791   2.833
10220WAT     H230903   1.960   7.781   2.951
10221WAT      O30904   2.391   8.400   8.397
10221WAT     H130905   2.364   8.350   8.479
10221WAT     H230906   2.426   8.336   8.329
10222WAT      O30907   9.599   1.224   3.862
10222WAT     H130908   9.527   1.163   3.830
10222WAT     H230909   9.558   1.298   3.916
10223WAT      O30910   7.774   0.823   1.967
10223WAT     H130911   7.801   0.779   1.881
10223WAT     H230912   7.686   0.786   1.997
10224WAT      O30913   8.772   5.101   0.514
10224WAT     H130914   8.696   5.072   0.456
10224WAT     H230915   8.821   5.177   0.471
10225WAT      O30916   3.842   9.135   5.303
10225WAT     H130917   3.881   9.212   5.353
10225WAT     H230918   3.766   9.097   5.354
10226WAT      O30919   8.350   3.646   0.232
10226WAT     H130920   8.389   3.569   0.282
10226WAT     H230921   8.297   3.703   0.296
10227WAT      O30922   7.155   4.103   3.338
10227WAT     H130923   7.227   4.118   3.270
10227WAT     H230924   7.169   4.165   3.415
10228WAT      O30925   3.210   6.028   2.719
10228WAT     H130926   3.168   5.997   2.634
10228WAT     H230927   3.142   6.033   2.791
10229WAT      O30928   8.450   0.876   7.683
10229WAT     H130929   8.376   0.845   7.743
10229WAT     H230930   8.537   0.863   7.730
10230WAT      O30931   2.466   4.226   7.309
10230WAT     H130932   2.460   4.204   7.407
10230WAT     H230933   2.463   4.142   7.256
10231WAT      O30934   0.527   4.388   0.959
10231WAT     H130935   0.566   4.470   1.001
10231WAT     H230936   0.499   4.324   1.030
10232WAT      O30937   7.348   8.473   8.635
10232WAT     H130938   7.283   8.422   8.579
10232WAT     H230939   7.440   8.440   8.617
10233WAT      O30940   2.907   2.885   6.406
10233WAT     H130941   2.926   2.983   6.401
10233WAT     H230942   2.984   2.834   6.366
10234WAT      O30943   6.411   0.953   3.388
10234WAT     H130944   6.348   0.914   3.456
10234WAT     H230945   6.410   0.897   3.306
10235WAT      O30946   4.172   1.153   5.908
10235WAT     H130947   4.221   1.078   5.952
10235WAT     H230948   4.115   1.118   5.833
10236WAT      O30949   3.348   4.044   9.373
10236WAT     H130950   3.292   4.036   9.291
10236WAT     H230951   3.290   4.038   9.454
10237WAT      O30952   7.911   5.008   6.101
10237WAT     H130953   7.974   5.003   6.023
10237WAT     H230954   7.931   4.932   6.164
10238WAT      O30955   9.379   7.478   1.437
10238WAT     H130956   9.347   7.394   1.481
10238WAT     H230957   9.401   7.459   1.341
10239WAT      O30958   1.502   0.448   1.901
10239WAT     H130959   1.430   0.389   1.939
10239WAT     H230960   1.587   0.396   1.893
10240WAT      O30961   2.174   7.342   3.877
10240WAT     H130962   2.137   7.282   3.806
10240WAT     H230963   2.231   7.288   3.939
10241WAT      O30964   7.251   6.361   2.299
10241WAT     H130965   7.248   6.263   2.280
10241WAT     H230966   7.345   6.389   2.317
10242WAT      O30967   1.399   0.183   4.601
10242WAT     H130968   1.497   0.189   4.584
10242WAT     H230969   1.350   0.249   4.544
10243WAT      O30970   8.245   8.164   6.901
10243WAT     H130971   8.275   8.256   6.927
10243WAT     H230972   8.146   8.164   6.886
10244WAT      O30973   2.141   5.998   0.706
10244WAT     H130974   2.133   6.016   0.608
10244WAT     H230975   2.133   6.084   0.757
10245WAT      O30976   0.621   8.663   5.944
10245WAT     H130977   0.562   8.582   5.943
10245WAT     H230978   0.714   8.636   5.922
10246WAT      O30979   1.823   5.909   7.272
10246WAT     H130980   1.884   5.956   7.208
10246WAT     H230981   1.762   5.848   7.223
10247WAT      O30982   8.533   6.629   8.851
10247WAT     H130983   8.541   6.612   8.949
10247WAT     H230984   8.442   6.600   8.820
10248WAT      O30985   0.110   0.085   9.699
10248WAT     H130986   0.163   0.159   9.657
10248WAT     H230987   0.044   0.050   9.633
10249WAT      O30988   7.213   1.716   2.337
10249WAT     H130989   7.200   1.648   2.264
10249WAT     H230990   7.178   1.804   2.307
10250WAT      O30991   8.964   8.923   7.038
10250WAT     H130992   8.943   8.828   7.014
10250WAT     H230993   8.887   8.962   7.088
10251WAT      O30994   6.993   7.091   7.693
10251WAT     H130995   7.004   7.004   7.740
10251WAT     H230996   6.901   7.096   7.653
10252WAT      O30997   2.776   4.433   8.681
10252WAT     H130998   2.703   4.464   8.620
10252WAT     H230999   2.803   4.507   8.742
10253WAT      O31000   9.675   8.152   8.493
10253WAT     H131001   9.720   8.237   8.466
10253WAT     H231002   9.728   8.074   8.458
10254WAT      O31003   0.279   3.622   7.617
10254WAT     H131004   0.283   3.522   7.611
10254WAT     H231005   0.352   3.661   7.561
10255WAT      O31006   1.048   6.359   0.475
10255WAT     H131007   0.974   6.291   0.478
10255WAT     H231008   1.009   6.451   0.482
10256WAT      O31009   8.959   3.688   3.640
10256WAT     H131010   9.042   3.668   3.589
10256WAT     H231011   8.972   3.769   3.697
10257WAT      O31012   3.866   5.035   0.057
10257WAT     H131013   3.877   4.999  -0.036
10257WAT     H231014   3.798   5.108   0.056
10258WAT      O31015   8.271   9.015   9.334
10258WAT     H131016   8.248   9.041   9.240
10258WAT     H231017   8.317   8.926   9.334
10259WAT      O31018   7.532   0.799   4.947
10259WAT     H131019   7.549   0.795   4.849
10259WAT     H231020   7.535   0.895   4.977
10260WAT      O31021   0.768   5.566   2.111
10260WAT     H131022   0.727   5.510   2.183
10260WAT     H231023   0.721   5.549   2.025
10261WAT      O31024   6.359   1.863   9.136
10261WAT     H131025   6.327   1.783   9.188
10261WAT     H231026   6.358   1.842   9.039
10262WAT      O31027   9.194   9.343   7.765
10262WAT     H131028   9.215   9.439   7.784
10262WAT     H231029   9.211   9.324   7.668
10263WAT      O31030   0.650   8.743   5.655
10263WAT     H131031   0.640   8.731   5.754
10263WAT     H231032   0.568   8.712   5.608
10264WAT      O31033   9.850   8.951   1.156
10264WAT     H131034   9.919   8.882   1.175
10264WAT     H231035   9.845   9.015   1.232
10265WAT      O31036   2.436   2.272   9.463
10265WAT     H131037   2.417   2.358   9.417
10265WAT     H231038   2.535   2.260   9.473
10266WAT      O31039   9.094   8.417   6.339
10266WAT     H131040   9.118   8.400   6.243
10266WAT     H231041   9.032   8.495   6.344
10267WAT      O31042   0.332   1.731   0.656
10267WAT     H131043   0.352   1.805   0.720
10267WAT     H231044   0.278   1.766   0.580
10268WAT      O31045   6.980   0.896   5.986
10268WAT     H131046   7.001   0.869   5.892
10268WAT     H231047   7.063   0.889   6.042
10269WAT      O31048   5.425   7.010   1.544
10269WAT     H131049   5.466   6.947   1.611
10269WAT     H231050   5.495   7.073   1.511
10270WAT      O31051   6.576   7.112   4.726
10270WAT     H131052   6.623   7.165   4.797
10270WAT     H231053   6.556   7.171   4.648
10271WAT      O31054   1.268   8.646   4.442
10271WAT     H131055   1.302   8.659   4.535
10271WAT     H231056   1.200   8.716   4.421
10272WAT      O31057   6.271   2.160   0.640
10272WAT     H131058   6.255   2.062   0.653
10272WAT     H231059   6.364   2.183   0.670
10273WAT      O31060   9.446   8.859   9.402
10273WAT     H131061   9.425   8.956   9.391
10273WAT     H231062   9.545   8.847   9.408
10274WAT      O31063   0.159   2.173   6.045
10274WAT     H131064   0.142   2.223   6.130
10274WAT     H231065   0.256   2.149   6.039
10275WAT      O31066   8.230   6.975   1.439
10275WAT     H131067   8.130   6.973   1.442
10275WAT     H231068   8.265   6.884   1.417
10276WAT      O31069   4.545   2.348   1.464
10276WAT     H131070   4.484   2.407   1.411
10276WAT     H231071   4.638   2.388   1.463
10277WAT      O31072   9.543   9.583   2.984
10277WAT     H131073   9.491   9.658   2.943
10277WAT     H231074   9.580   9.525   2.911
10278WAT      O31075   1.454   0.305   6.646
10278WAT     H131076   1.532   0.253   6.612
10278WAT     H231077   1.370   0.252   6.632
10279WAT      O31078   3.282   8.329   4.011
10279WAT     H131079   3.251   8.369   3.925
10279WAT     H231080   3.224   8.360   4.086
10280WAT      O31081   3.524   6.183   2.498
10280WAT     H131082   3.431   6.199   2.530
10280WAT     H231083   3.530   6.201   2.400
10281WAT      O31084   7.445   5.653   9.298
10281WAT     H131085   7.386   5.729   9.324
10281WAT     H231086   7.498   5.679   9.216
10282WAT      O31087   0.858   6.352   5.357
10282WAT     H131088   0.874   6.433   5.414
10282WAT     H231089   0.795   6.290   5.404
10283WAT      O31090   7.017   6.504   9.212
10283WAT     H131091   6.979   6.562   9.283
10283WAT     H231092   7.103   6.465   9.243
10284WAT      O31093   0.442   5.767   7.753
10284WAT     H131094   0.407   5.780   7.660
10284WAT     H231095   0.446   5.669   7.774
10285WAT      O31096   3.928   0.243   3.600
10285WAT     H131097   3.936   0.144   3.615
10285WAT     H231098   3.929   0.261   3.501
10286WAT      O31099   8.386   5.819   6.708
10286WAT     H131100   8.314   5.884   6.681
10286WAT     H231101   8.393   5.747   6.639
10287WAT      O31102   6.949   4.816   3.563
10287WAT     H131103   6.938   4.844   3.658
10287WAT     H231104   7.045   4.790   3.547
10288WAT      O31105   9.659   0.871   3.656
10288WAT     H131106   9.686   0.787   3.703
10288WAT     H231107   9.577   0.908   3.699
10289WAT      O31108   4.648   9.802   5.710
10289WAT     H131109   4.655   9.753   5.797
10289WAT     H231110   4.551   9.809   5.684
10290WAT      O31111   8.580   8.652   1.742
10290WAT     H131112   8.512   8.580   1.730
10290WAT     H231113   8.584   8.677   1.839
10291WAT      O31114   7.388   4.402   5.950
10291WAT     H131115   7.391   4.304   5.967
10291WAT     H231116   7.379   4.451   6.037
10292WAT      O31117   0.807   5.849   2.178
10292WAT     H131118   0.820   5.758   2.137
10292WAT     H231119   0.797   5.840   2.277
10293WAT      O31120   2.374   6.711   1.366
10293WAT     H131121   2.312   6.789   1.366
10293WAT     H231122   2.466   6.742   1.392
10294WAT      O31123   6.304   7.578   8.599
10294WAT     H131124   6.351   7.495   8.630
10294WAT     H231125   6.239   7.554   8.527
10295WAT      O31126   6.502   1.561   1.465
10295WAT     H131127   6.516   1.635   1.530
10295WAT     H231128   6.465   1.597   1.380
10296WAT      O31129   7.191   4.925   2.684
10296WAT     H131130   7.098   4.926   2.722
10296WAT     H231131   7.228   5.018   2.684
10297WAT      O31132   7.721   4.168   7.094
10297WAT     H131133   7.736   4.246   7.155
10297WAT     H231134   7.652   4.192   7.025
10298WAT      O31135   2.382   0.218   9.826
10298WAT     H131136   2.389   0.267   9.740
10298WAT     H231137   2.340   0.128   9.811
10299WAT      O31138   2.869   3.987   6.448
10299WAT     H131139   2.865   4.074   6.497
10299WAT     H231140   2.947   3.934   6.481
10300WAT      O31141   5.526   9.019   3.825
10300WAT     H131142   5.625   9.031   3.837
10300WAT     H231143   5.498   9.055   3.737
10301WAT      O31144   4.817   8.273   2.391
10301WAT     H131145   4.763   8.351   2.423
10301WAT     H231146   4.888   8.306   2.328
10302WAT      O31147   3.497   9.026   1.971
10302WAT     H131148   3.463   8.960   1.904
10302WAT     H231149   3.520   9.112   1.925
10303WAT      O31150   1.340   2.334   2.799
10303WAT     H131151   1.419   2.368   2.849
10303WAT     H231152   1.277   2.410   2.780
10304WAT      O31153   2.869   2.104   5.833
10304WAT     H131154   2.843   2.011   5.808
10304WAT     H231155   2.807   2.139   5.903
10305WAT      O31156   2.954   8.826   5.581
10305WAT     H131157   2.936   8.729   5.569
10305WAT     H231158   2.949   8.848   5.679
10306WAT      O31159   2.692   2.194   6.029
10306WAT     H131160   2.746   2.273   6.060
10306WAT     H231161   2.595   2.216   6.034
10307WAT      O31162   7.770   5.662   9.888
10307WAT     H131163   7.829   5.630   9.962
10307WAT     H231164   7.720   5.585   9.848
10308WAT      O31165   4.550   0.206   5.406
10308WAT     H131166   4.598   0.232   5.322
10308WAT     H231167   4.497   0.283   5.440
10309WAT      O31168   6.707   3.624   8.542
10309WAT     H131169   6.681   3.673   8.625
10309WAT     H231170   6.651   3.541   8.534
10310WAT      O31171   2.645   4.168   0.605
10310WAT     H131172   2.622   4.233   0.678
10310WAT     H231173   2.744   4.166   0.593
10311WAT      O31174   2.275   0.502   0.099
10311WAT     H131175   2.224   0.521   0.014
10311WAT     H231176   2.302   0.406   0.101
10312WAT      O31177   3.263   9.189   6.069
10312WAT     H131178   3.175   9.222   6.033
10312WAT     H231179   3.301   9.256   6.132
10313WAT      O31180   0.881   0.620   4.139
10313WAT     H131181   0.863   0.661   4.049
10313WAT     H231182   0.975   0.584   4.140
10314WAT      O31183   9.798   0.260   7.901
10314WAT     H131184   9.791   0.246   7.802
10314WAT     H231185   9.762   0.350   7.925
10315WAT      O31186   2.353   1.419   9.060
10315WAT     H131187   2.351   1.357   9.139
10315WAT     H231188   2.321   1.370   8.979
10316WAT      O31189   4.418   0.239   8.264
10316WAT     H131190   4.431   0.155   8.211
10316WAT     H231191   4.431   0.318   8.204
10317WAT      O31192   7.778   8.799   1.336
10317WAT     H131193   7.807   8.832   1.246
10317WAT     H231194   7.776   8.875   1.401
10318WAT      O31195   0.651   7.886   5.199
10318WAT     H131196   0.662   7.970   5.147
10318WAT     H231197   0.577   7.897   5.266
10319WAT      O31198   5.807   6.084   2.744
10319WAT     H131199   5.878   6.094   2.674
10319WAT     H231200   5.764   5.994   2.737
10320WAT      O31201   2.472   1.163   0.239
10320WAT     H131202   2.566   1.149   0.266
10320WAT     H231203   2.446   1.258   0.255
10321WAT      O31204   4.728   0.475   9.149
10321WAT     H131205   4.635   0.444   9.172
10321WAT     H231206   4.792   0.440   9.218
10322WAT      O31207   7.803   0.807   0.882
10322WAT     H131208   7.848   0.856   0.807
10322WAT     H231209   7.717   0.853   0.905
10323WAT      O31210   6.851   7.003   7.371
10323WAT     H131211   6.814   7.095   7.383
10323WAT     H231212   6.947   7.008   7.345
10324WAT      O31213   2.767   2.657   1.211
10324WAT     H131214   2.676   2.672   1.172
10324WAT     H231215   2.776   2.711   1.295
10325WAT      O31216   1.956   4.986   0.836
10325WAT     H131217   1.919   5.066   0.884
10325WAT     H231218   1.894   4.960   0.763
10326WAT      O31219   6.894   6.988   5.787
10326WAT     H131220   6.902   6.999   5.886
10326WAT     H231221   6.804   6.949   5.764
10327WAT      O31222   1.118   2.140   1.221
10327WAT     H131223   1.149   2.143   1.126
10327WAT     H231224   1.048   2.210   1.235
10328WAT      O31225   4.311   6.922   5.465
10328WAT     H131226   4.271   6.971   5.388
10328WAT     H231227   4.322   6.826   5.441
10329WAT      O31228   2.726   6.776   4.417
10329WAT     H131229   2.779   6.842   4.364
10329WAT     H231230   2.728   6.802   4.514
10330WAT      O31231   6.488   1.162   4.589
10330WAT     H131232   6.502   1.215   4.673
10330WAT     H231233   6.458   1.222   4.516
10331WAT      O31234   9.028   3.892   0.008
10331WAT     H131235   9.064   3.903  -0.084
10331WAT     H231236   9.011   3.795   0.026
10332WAT      O31237   9.644   4.082   7.235
10332WAT     H131238   9.604   3.990   7.233
10332WAT     H231239   9.717   4.088   7.168
10333WAT      O31240   3.896   6.305   8.294
10333WAT     H131241   3.960   6.258   8.355
10333WAT     H231242   3.879   6.397   8.328
10334WAT      O31243   5.809   0.760   8.900
10334WAT     H131244   5.844   0.702   8.826
10334WAT     H231245   5.783   0.849   8.862
10335WAT      O31246   2.317   4.159   6.647
10335WAT     H131247   2.217   4.163   6.649
10335WAT     H231248   2.348   4.072   6.685
10336WAT      O31249   1.293   4.641   0.371
10336WAT     H131250   1.346   4.634   0.287
10336WAT     H231251   1.198   4.664   0.348
10337WAT      O31252   0.259   1.480   0.869
10337WAT     H131253   0.304   1.482   0.958
10337WAT     H231254   0.301   1.547   0.809
10338WAT      O31255   8.534   2.805   2.812
10338WAT     H131256   8.580   2.788   2.724
10338WAT     H231257   8.482   2.890   2.806
10339WAT      O31258   8.353   9.587   6.686
10339WAT     H131259   8.284   9.605   6.616
10339WAT     H231260   8.373   9.489   6.689
10340WAT      O31261   9.003   1.158   5.842
10340WAT     H131262   8.955   1.088   5.896
10340WAT     H231263   9.041   1.227   5.903
10341WAT      O31264   6.158   1.295   6.653
10341WAT     H131265   6.087   1.261   6.591
10341WAT     H231266   6.191   1.384   6.619
10342WAT      O31267   1.785   3.722   4.118
10342WAT     H131268   1.720   3.756   4.187
10342WAT     H231269   1.735   3.697   4.035
10343WAT      O31270   3.461   4.675   7.889
10343WAT     H131271   3.457   4.641   7.982
10343WAT     H231272   3.557   4.693   7.864
10344WAT      O31273   0.148   2.885   7.092
10344WAT     H131274   0.130   2.918   7.185
10344WAT     H231275   0.176   2.962   7.035
10345WAT      O31276   3.332   5.837   1.857
10345WAT     H131277   3.321   5.868   1.763
10345WAT     H231278   3.323   5.738   1.861
10346WAT      O31279   0.839   4.972   8.476
10346WAT     H131280   0.797   5.062   8.481
10346WAT     H231281   0.852   4.947   8.380
10347WAT      O31282   5.839   1.144   1.013
10347WAT     H131283   5.769   1.088   1.058
10347WAT     H231284   5.920   1.149   1.072
10348WAT      O31285   8.205   2.586   7.095
10348WAT     H131286   8.135   2.527   7.135
10348WAT     H231287   8.290   2.576   7.146
10349WAT      O31288   0.433   7.172   6.405
10349WAT     H131289   0.468   7.162   6.498
10349WAT     H231290   0.442   7.085   6.356
10350WAT      O31291   7.722   1.608   1.256
10350WAT     H131292   7.790   1.536   1.268
10350WAT     H231293   7.637   1.568   1.222
10351WAT      O31294   3.746   8.427   8.443
10351WAT     H131295   3.801   8.343   8.437
10351WAT     H231296   3.720   8.457   8.351
10352WAT      O31297   6.820   6.685   3.768
10352WAT     H131298   6.774   6.709   3.683
10352WAT     H231299   6.756   6.637   3.828
10353WAT      O31300   1.797   4.537   9.511
10353WAT     H131301   1.854   4.455   9.500
10353WAT     H231302   1.774   4.573   9.420
10354WAT      O31303   6.827   9.373   2.590
10354WAT     H131304   6.832   9.279   2.625
10354WAT     H231305   6.771   9.375   2.507
10355WAT      O31306   6.881   5.209   6.602
10355WAT     H131307   6.887   5.201   6.503
10355WAT     H231308   6.972   5.206   6.642
10356WAT      O31309   6.866   4.274   2.843
10356WAT     H131310   6.864   4.356   2.901
10356WAT     H231311   6.897   4.196   2.897
10357WAT      O31312   4.912   5.944   1.966
10357WAT     H131313   4.854   5.889   1.906
10357WAT     H231314   4.860   5.969   2.048
10358WAT      O31315   3.034   8.259   6.432
10358WAT     H131316   2.984   8.344   6.415
10358WAT     H231317   3.004   8.189   6.367
10359WAT      O31318   0.947   5.077   0.837
10359WAT     H131319   0.994   5.075   0.749
10359WAT     H231320   1.014   5.068   0.910
10360WAT      O31321   5.820   3.360   5.848
10360WAT     H131322   5.860   3.445   5.881
10360WAT     H231323   5.736   3.380   5.797
10361WAT      O31324   6.836   1.957   6.873
10361WAT     H131325   6.833   2.018   6.952
10361WAT     H231326   6.813   1.864   6.902
10362WAT      O31327   4.560   0.038   0.889
10362WAT     H131328   4.508   0.123   0.895
10362WAT     H231329   4.549  -0.014   0.973
10363WAT      O31330   7.596   1.398   4.733
10363WAT     H131331   7.546   1.347   4.663
10363WAT     H231332   7.533   1.428   4.804
10364WAT      O31333   7.930   0.273   9.780
10364WAT     H131334   7.964   0.181   9.761
10364WAT     H231335   8.006   0.332   9.806
10365WAT      O31336   0.243   9.432   0.596
10365WAT     H131337   0.242   9.332   0.591
10365WAT     H231338   0.163   9.468   0.548
10366WAT      O31339   6.324   1.730   2.859
10366WAT     H131340   6.399   1.785   2.897
10366WAT     H231341   6.359   1.640   2.834
10367WAT      O31342   3.580   6.474   2.377
10367WAT     H131343   3.549   6.406   2.312
10367WAT     H231344   3.565   6.566   2.340
10368WAT      O31345   3.636   1.720   3.946
10368WAT     H131346   3.556   1.730   3.887
10368WAT     H231347   3.620   1.643   4.009
10369WAT      O31348   1.900   4.568   0.996
10369WAT     H131349   1.823   4.617   1.036
10369WAT     H231350   1.874   4.532   0.906
10370WAT      O31351   8.817   2.345   6.830
10370WAT     H131352   8.769   2.257   6.822
10370WAT     H231353   8.890   2.336   6.897
10371WAT      O31354   2.333   4.596   0.676
10371WAT     H131355   2.253   4.556   0.630
10371WAT     H231356   2.315   4.603   0.774
10372WAT      O31357   5.554   1.918   3.970
10372WAT     H131358   5.545   1.928   4.069
10372WAT     H231359   5.479   1.965   3.925
10373WAT      O31360   0.310   3.191   4.124
10373WAT     H131361   0.313   3.170   4.222
10373WAT     H231362   0.315   3.106   4.071
10374WAT      O31363   0.498   0.274   6.240
10374WAT     H131364   0.496   0.356   6.183
10374WAT     H231365   0.490   0.300   6.336
10375WAT      O31366   2.252   7.999   5.519
10375WAT     H131367   2.267   7.940   5.440
10375WAT     H231368   2.336   8.006   5.572
10376WAT      O31369   1.214   6.604   5.965
10376WAT     H131370   1.125   6.612   5.920
10376WAT     H231371   1.224   6.512   6.002
10377WAT      O31372   3.344   9.419   8.764
10377WAT     H131373   3.348   9.463   8.675
10377WAT     H231374   3.421   9.356   8.774
10378WAT      O31375   7.758   0.616   3.190
10378WAT     H131376   7.723   0.664   3.109
10378WAT     H231377   7.748   0.674   3.270
10379WAT      O31378   0.076   6.311   9.291
10379WAT     H131379   0.114   6.330   9.201
10379WAT     H231380   0.150   6.282   9.353
10380WAT      O31381   9.769   0.775   0.791
10380WAT     H131382   9.704   0.715   0.745
10380WAT     H231383   9.861   0.737   0.782
10381WAT      O31384   2.483   2.860   0.170
10381WAT     H131385   2.534   2.939   0.205
10381WAT     H231386   2.387   2.885   0.158
10382WAT      O31387   2.282   5.103   5.935
10382WAT     H131388   2.186   5.130   5.937
10382WAT     H231389   2.298   5.033   6.005
10383WAT      O31390   0.933   3.933   1.313
10383WAT     H131391   0.922   3.838   1.340
10383WAT     H231392   0.883   3.992   1.376
10384WAT      O31393   7.224   3.060   1.105
10384WAT     H131394   7.180   3.138   1.062
10384WAT     H231395   7.265   3.001   1.035
10385WAT      O31396   0.608   4.644   2.308
10385WAT     H131397   0.671   4.611   2.238
10385WAT     H231398   0.587   4.740   2.291
10386WAT      O31399   2.044   5.776   0.325
10386WAT     H131400   2.128   5.740   0.366
10386WAT     H231401   1.989   5.700   0.290
10387WAT      O31402   5.716   8.649   9.224
10387WAT     H131403   5.781   8.695   9.285
10387WAT     H231404   5.624   8.657   9.260
10388WAT      O31405   0.540   7.773   4.761
10388WAT     H131406   0.526   7.736   4.853
10388WAT     H231407   0.479   7.851   4.747
10389WAT      O31408   5.544   5.001   4.376
10389WAT     H131409   5.449   5.027   4.395
10389WAT     H231410   5.605   5.048   4.441
10390WAT      O31411   9.510   4.941   8.441
10390WAT     H131412   9.571   4.941   8.520
10390WAT     H231413   9.561   4.969   8.359
10391WAT      O31414   4.072   5.504   4.758
10391WAT     H131415   4.114   5.438   4.696
10391WAT     H231416   4.101   5.596   4.733
10392WAT      O31417   6.280   8.423   6.569
10392WAT     H131418   6.191   8.398   6.607
10392WAT     H231419   6.302   8.517   6.595
10393WAT      O31420   6.929   1.092   1.559
10393WAT     H131421   6.981   1.098   1.643
10393WAT     H231422   6.851   1.155   1.563
10394WAT      O31423   7.759   6.534   5.303
10394WAT     H131424   7.734   6.630   5.310
10394WAT     H231425   7.772   6.510   5.207
10395WAT      O31426   7.066   5.860   7.296
10395WAT     H131427   7.087   5.811   7.211
10395WAT     H231428   7.134   5.932   7.312
10396WAT      O31429   4.864   7.470   3.479
10396WAT     H131430   4.781   7.518   3.506
10396WAT     H231431   4.919   7.451   3.561
10397WAT      O31432   9.656   6.933   2.162
10397WAT     H131433   9.644   6.940   2.063
10397WAT     H231434   9.567   6.930   2.207
10398WAT      O31435   1.251   8.759   1.396
10398WAT     H131436   1.227   8.764   1.493
10398WAT     H231437   1.266   8.664   1.370
10399WAT      O31438   2.496   7.574   6.517
10399WAT     H131439   2.461   7.612   6.431
10399WAT     H231440   2.573   7.514   6.498
10400WAT      O31441   1.128   2.659   3.643
10400WAT     H131442   1.109   2.596   3.568
10400WAT     H231443   1.147   2.750   3.607
10401WAT      O31444   6.875   2.200   7.773
10401WAT     H131445   6.860   2.172   7.678
10401WAT     H231446   6.963   2.163   7.805
10402WAT      O31447   3.507   4.481   3.426
10402WAT     H131448   3.425   4.535   3.405
10402WAT     H231449   3.502   4.449   3.520
10403WAT      O31450   1.715   7.342   2.279
10403WAT     H131451   1.805   7.300   2.268
10403WAT     H231452   1.716   7.433   2.238
10404WAT      O31453   2.040   7.995   0.064
10404WAT     H131454   2.123   7.968   0.113
10404WAT     H231455   2.055   7.986  -0.034
10405WAT      O31456   6.633   6.442   2.089
10405WAT     H131457   6.641   6.395   2.177
10405WAT     H231458   6.684   6.528   2.094
10406WAT      O31459   6.014   8.832   1.452
10406WAT     H131460   5.937   8.875   1.404
10406WAT     H231461   6.100   8.866   1.413
10407WAT      O31462   7.770   3.711   4.351
10407WAT     H131463   7.803   3.675   4.264
10407WAT     H231464   7.697   3.653   4.385
10408WAT      O31465   2.991   3.673   6.362
10408WAT     H131466   2.948   3.685   6.452
10408WAT     H231467   3.047   3.753   6.341
10409WAT      O31468   7.622   6.748   6.557
10409WAT     H131469   7.662   6.692   6.630
10409WAT     H231470   7.524   6.760   6.574
10410WAT      O31471   7.997   6.758   0.704
10410WAT     H131472   8.032   6.800   0.788
10410WAT     H231473   7.897   6.758   0.705
10411WAT      O31474   2.775   7.466   1.730
10411WAT     H131475   2.686   7.433   1.700
10411WAT     H231476   2.838   7.470   1.652
10412WAT      O31477   3.473   0.460   9.409
10412WAT     H131478   3.550   0.423   9.462
10412WAT     H231479   3.422   0.385   9.368
10413WAT      O31480   9.272   8.055   0.248
10413WAT     H131481   9.212   8.108   0.308
10413WAT     H231482   9.274   8.098   0.157
10414WAT      O31483   3.846   4.017   3.882
10414WAT     H131484   3.826   4.018   3.980
10414WAT     H231485   3.762   3.993   3.832
10415WAT      O31486   1.964   3.156   7.198
10415WAT     H131487   1.867   3.176   7.209
10415WAT     H231488   1.976   3.067   7.155
10416WAT      O31489   1.389   9.356   2.712
10416WAT     H131490   1.363   9.429   2.650
10416WAT     H231491   1.322   9.349   2.786
10417WAT      O31492   9.417   7.909   7.699
10417WAT     H131493   9.386   7.935   7.608
10417WAT     H231494   9.510   7.943   7.714
10418WAT      O31495   0.801   8.297   6.894
10418WAT     H131496   0.880   8.319   6.952
10418WAT     H231497   0.832   8.283   6.800
10419WAT      O31498   7.082   3.954   9.364
10419WAT     H131499   7.174   3.973   9.398
10419WAT     H231500   7.026   4.037   9.369
10420WAT      O31501   0.974   7.447   5.841
10420WAT     H131502   1.038   7.374   5.866
10420WAT     H231503   0.979   7.462   5.742
10421WAT      O31504   6.439   5.914   5.666
10421WAT     H131505   6.417   5.845   5.735
10421WAT     H231506   6.471   5.997   5.713
10422WAT      O31507   2.481   5.362   2.822
10422WAT     H131508   2.525   5.274   2.808
10422WAT     H231509   2.428   5.387   2.741
10423WAT      O31510   6.474   8.029   9.257
10423WAT     H131511   6.559   8.036   9.309
10423WAT     H231512   6.462   8.111   9.201
10424WAT      O31513   5.263   8.759   7.142
10424WAT     H131514   5.186   8.721   7.091
10424WAT     H231515   5.257   8.859   7.141
10425WAT      O31516   9.581   0.288   2.023
10425WAT     H131517   9.489   0.319   1.997
10425WAT     H231518   9.623   0.355   2.084
10426WAT      O31519   5.096   7.257   5.606
10426WAT     H131520   5.000   7.263   5.579
10426WAT     H231521   5.111   7.175   5.660
10427WAT      O31522   7.318   7.705   0.828
10427WAT     H131523   7.321   7.760   0.911
10427WAT     H231524   7.300   7.609   0.852
10428WAT      O31525   8.641   1.262   1.959
10428WAT     H131526   8.557   1.308   1.989
10428WAT     H231527   8.617   1.181   1.905
10429WAT      O31528   9.070   7.856   9.048
10429WAT     H131529   9.085   7.955   9.053
10429WAT     H231530   9.094   7.815   9.136
10430WAT      O31531   9.500   5.841   9.540
10430WAT     H131532   9.506   5.852   9.639
10430WAT     H231533   9.406   5.858   9.510
10431WAT      O31534   9.025   7.475   0.846
10431WAT     H131535   9.006   7.387   0.890
10431WAT     H231536   9.103   7.519   0.891
10432WAT      O31537   8.466   5.937   3.999
10432WAT     H131538   8.561   5.912   4.015
10432WAT     H231539   8.414   5.926   4.084
10433WAT      O31540   6.376   7.772   9.215
10433WAT     H131541   6.417   7.857   9.249
10433WAT     H231542   6.312   7.737   9.283
10434WAT      O31543   1.488   0.453   5.682
10434WAT     H131544   1.579   0.487   5.709
10434WAT     H231545   1.467   0.484   5.590
10435WAT      O31546   1.998   5.903   5.833
10435WAT     H131547   1.992   5.814   5.878
10435WAT     H231548   2.085   5.909   5.784
10436WAT      O31549   8.607   3.274   2.776
10436WAT     H131550   8.680   3.288   2.710
10436WAT     H231551   8.520   3.307   2.738
10437WAT      O31552   0.215   4.637   2.595
10437WAT     H131553   0.196   4.728   2.560
10437WAT     H231554   0.314   4.624   2.602
10438WAT      O31555   7.143   1.189   6.177
10438WAT     H131556   7.214   1.251   6.210
10438WAT     H231557   7.184   1.122   6.114
10439WAT      O31558   7.717   8.503   7.299
10439WAT     H131559   7.691   8.596   7.323
10439WAT     H231560   7.784   8.469   7.365
10440WAT      O31561   5.271   5.560   1.426
10440WAT     H131562   5.366   5.529   1.421
10440WAT     H231563   5.237   5.579   1.334
10441WAT      O31564   9.369   4.005   7.521
10441WAT     H131565   9.459   4.001   7.566
10441WAT     H231566   9.354   3.921   7.469
10442WAT      O31567   8.788   9.780   5.268
10442WAT     H131568   8.858   9.752   5.334
10442WAT     H231569   8.754   9.699   5.220
10443WAT      O31570   6.777   7.274   7.373
10443WAT     H131571   6.710   7.339   7.336
10443WAT     H231572   6.774   7.277   7.473
10444WAT      O31573   4.428   4.535   3.195
10444WAT     H131574   4.402   4.472   3.268
10444WAT     H231575   4.516   4.577   3.216
10445WAT      O31576   5.250   3.717   5.270
10445WAT     H131577   5.200   3.773   5.205
10445WAT     H231578   5.191   3.693   5.347
10446WAT      O31579   5.475   0.613   2.763
10446WAT     H131580   5.540   0.686   2.743
10446WAT     H231581   5.413   0.602   2.685
10447WAT      O31582   7.736   6.385   4.802
10447WAT     H131583   7.651   6.391   4.854
10447WAT     H231584   7.746   6.466   4.744
10448WAT      O31585   9.213   1.540   9.139
10448WAT     H131586   9.139   1.555   9.205
10448WAT     H231587   9.178   1.485   9.063
10449WAT      O31588   1.420   3.849   2.128
10449WAT     H131589   1.346   3.854   2.061
10449WAT     H231590   1.499   3.804   2.087
10450WAT      O31591   5.812   1.932   8.944
10450WAT     H131592   5.903   1.921   8.985
10450WAT     H231593   5.771   2.017   8.977
10451WAT      O31594   4.862   1.827   6.362
10451WAT     H131595   4.910   1.880   6.293
10451WAT     H231596   4.900   1.848   6.453
10452WAT      O31597   2.346   9.787   3.553
10452WAT     H131598   2.342   9.737   3.467
10452WAT     H231599   2.255   9.795   3.592
10453WAT      O31600   7.584   7.349   8.768
10453WAT     H131601   7.656   7.364   8.700
10453WAT     H231602   7.566   7.434   8.817
10454WAT      O31603   8.837   8.900   8.797
10454WAT     H131604   8.834   8.878   8.894
10454WAT     H231605   8.748   8.937   8.768
10455WAT      O31606   9.201   6.911   2.741
10455WAT     H131607   9.213   6.812   2.733
10455WAT     H231608   9.171   6.934   2.834
10456WAT      O31609   6.489   8.354   6.738
10456WAT     H131610   6.431   8.366   6.658
10456WAT     H231611   6.523   8.443   6.770
10457WAT      O31612   9.198   0.967   8.492
10457WAT     H131613   9.283   1.019   8.489
10457WAT     H231614   9.215   0.878   8.534
10458WAT      O31615   8.760   6.175   8.954
10458WAT     H131616   8.660   6.181   8.959
10458WAT     H231617   8.798   6.268   8.950
10459WAT      O31618   1.023   3.755   6.506
10459WAT     H131619   1.103   3.788   6.456
10459WAT     H231620   1.020   3.655   6.501
10460WAT      O31621   7.597   5.892   5.586
10460WAT     H131622   7.586   5.847   5.498
10460WAT     H231623   7.692   5.921   5.598
10461WAT      O31624   1.378   1.168   6.433
10461WAT     H131625   1.365   1.094   6.500
10461WAT     H231626   1.472   1.167   6.400
10462WAT      O31627   7.084   2.930   7.844
10462WAT     H131628   7.141   2.887   7.914
10462WAT     H231629   7.138   2.944   7.761
10463WAT      O31630   6.557   1.285   4.816
10463WAT     H131631   6.654   1.304   4.829
10463WAT     H231632   6.538   1.189   4.833
10464WAT      O31633   4.026   5.908   5.656
10464WAT     H131634   4.081   5.864   5.586
10464WAT     H231635   3.988   5.839   5.717
10465WAT      O31636   5.494   2.770   8.940
10465WAT     H131637   5.396   2.787   8.948
10465WAT     H231638   5.534   2.834   8.874
10466WAT      O31639   5.169   1.527   7.578
10466WAT     H131640   5.079   1.559   7.548
10466WAT     H231641   5.199   1.582   7.657
10467WAT      O31642   5.338   8.596   1.945
10467WAT     H131643   5.333   8.674   2.008
10467WAT     H231644   5.266   8.605   1.876
10468WAT      O31645   6.914   0.179   1.754
10468WAT     H131646   7.010   0.155   1.742
10468WAT     H231647   6.864   0.099   1.788
10469WAT      O31648   8.360   1.602   7.605
10469WAT     H131649   8.399   1.536   7.670
10469WAT     H231650   8.295   1.661   7.653
10470WAT      O31651   1.537   6.557   9.628
10470WAT     H131652   1.587   6.622   9.570
10470WAT     H231653   1.599   6.486   9.661
10471WAT      O31654   8.266   0.494   2.638
10471WAT     H131655   8.364   0.471   2.630
10471WAT     H231656   8.256   0.590   2.662
10472WAT      O31657   0.457   6.708   2.093
10472WAT     H131658   0.437   6.776   2.022
10472WAT     H231659   0.385   6.711   2.163
10473WAT      O31660   9.131   1.281   7.577
10473WAT     H131661   9.128   1.380   7.584
10473WAT     H231662   9.226   1.250   7.574
10474WAT      O31663   4.783   7.014   7.475
10474WAT     H131664   4.761   6.984   7.382
10474WAT     H231665   4.873   7.058   7.475
10475WAT      O31666   2.115   0.137   2.956
10475WAT     H131667   2.127   0.209   2.887
10475WAT     H231668   2.195   0.077   2.955
10476WAT      O31669   6.637   9.679   1.400
10476WAT     H131670   6.736   9.674   1.388
10476WAT     H231671   6.600   9.587   1.411
10477WAT      O31672   4.629   8.986   5.600
10477WAT     H131673   4.653   9.081   5.622
10477WAT     H231674   4.694   8.924   5.644
10478WAT      O31675   5.250   1.498   8.092
10478WAT     H131676   5.304   1.444   8.027
10478WAT     H231677   5.185   1.437   8.138
10479WAT      O31678   5.229   0.292   6.002
10479WAT     H131679   5.262   0.246   5.920
10479WAT     H231680   5.142   0.253   6.031
10480WAT      O31681   6.408   5.576   8.788
10480WAT     H131682   6.493   5.567   8.840
10480WAT     H231683   6.357   5.490   8.791
10481WAT      O31684   2.078   9.669   5.347
10481WAT     H131685   1.994   9.616   5.342
10481WAT     H231686   2.155   9.613   5.318
10482WAT      O31687   6.305   0.240   0.729
10482WAT     H131688   6.251   0.323   0.742
10482WAT     H231689   6.278   0.196   0.643
10483WAT      O31690   1.579   4.878   9.253
10483WAT     H131691   1.566   4.974   9.228
10483WAT     H231692   1.523   4.856   9.332
10484WAT      O31693   2.987   9.717   7.760
10484WAT     H131694   2.897   9.723   7.804
10484WAT     H231695   3.047   9.659   7.815
10485WAT      O31696   2.828   8.176   4.866
10485WAT     H131697   2.733   8.206   4.860
10485WAT     H231698   2.833   8.077   4.849
10486WAT      O31699   8.369   3.031   2.464
10486WAT     H131700   8.429   3.102   2.427
10486WAT     H231701   8.390   2.943   2.421
10487WAT      O31702   9.862   1.349   8.822
10487WAT     H131703   9.872   1.266   8.876
10487WAT     H231704   9.930   1.351   8.749
10488WAT      O31705   0.575   6.166   5.415
10488WAT     H131706   0.628   6.081   5.416
10488WAT     H231707   0.529   6.177   5.503
10489WAT      O31708   9.509   0.462   6.867
10489WAT     H131709   9.529   0.385   6.807
10489WAT     H231710   9.520   0.435   6.962
10490WAT      O31711   6.054   2.614   8.379
10490WAT     H131712   6.116   2.536   8.370
10490WAT     H231713   6.009   2.612   8.468
10491WAT      O31714   7.001   7.705   5.807
10491WAT     H131715   6.941   7.627   5.787
10491WAT     H231716   6.949   7.776   5.854
10492WAT      O31717   9.438   7.148   3.761
10492WAT     H131718   9.496   7.213   3.711
10492WAT     H231719   9.388   7.091   3.695
10493WAT      O31720   9.710   0.644   2.751
10493WAT     H131721   9.672   0.632   2.660
10493WAT     H231722   9.760   0.562   2.778
10494WAT      O31723   8.989   2.726   2.820
10494WAT     H131724   8.913   2.685   2.871
10494WAT     H231725   8.967   2.728   2.722
10495WAT      O31726   5.998   5.672   6.967
10495WAT     H131727   5.918   5.663   6.907
10495WAT     H231728   6.030   5.766   6.967
10496WAT      O31729   1.897   0.776   5.291
10496WAT     H131730   1.808   0.732   5.284
10496WAT     H231731   1.962   0.730   5.230
10497WAT      O31732   5.766   6.077   4.208
10497WAT     H131733   5.701   6.151   4.189
10497WAT     H231734   5.859   6.112   4.197
10498WAT      O31735   5.394   6.817   4.113
10498WAT     H131736   5.488   6.784   4.123
10498WAT     H231737   5.383   6.903   4.163
10499WAT      O31738   6.076   0.035   6.133
10499WAT     H131739   6.156   0.095   6.142
10499WAT     H231740   6.031   0.052   6.045
10500WAT      O31741   2.826   9.604   6.342
10500WAT     H131742   2.775   9.690   6.343
10500WAT     H231743   2.806   9.552   6.425
10501WAT      O31744   3.337   4.695   9.377
10501WAT     H131745   3.269   4.716   9.307
10501WAT     H231746   3.393   4.618   9.348
10502WAT      O31747   9.674   5.431   1.998
10502WAT     H131748   9.743   5.360   2.011
10502WAT     H231749   9.701   5.514   2.046
10503WAT      O31750   8.851   6.213   1.828
10503WAT     H131751   8.784   6.197   1.901
10503WAT     H231752   8.942   6.216   1.867
10504WAT      O31753   4.970   5.541   1.839
10504WAT     H131754   5.024   5.502   1.764
10504WAT     H231755   5.006   5.507   1.926
10505WAT      O31756   5.340   2.727   8.023
10505WAT     H131757   5.430   2.707   7.985
10505WAT     H231758   5.341   2.711   8.122
10506WAT      O31759   6.405   0.058   1.761
10506WAT     H131760   6.453  -0.021   1.724
10506WAT     H231761   6.393   0.047   1.860
10507WAT      O31762   8.678   6.951   0.016
10507WAT     H131763   8.637   6.863   0.040
10507WAT     H231764   8.742   6.979   0.088
10508WAT      O31765   7.846   9.812   2.592
10508WAT     H131766   7.912   9.866   2.644
10508WAT     H231767   7.886   9.723   2.570
10509WAT      O31768   5.665   8.887   9.515
10509WAT     H131769   5.748   8.850   9.475
10509WAT     H231770   5.587   8.829   9.492
10510WAT      O31771   6.506   7.580   7.946
10510WAT     H131772   6.457   7.499   7.979
10510WAT     H231773   6.450   7.662   7.961
10511WAT      O31774   1.728   1.406   9.224
10511WAT     H131775   1.821   1.379   9.197
10511WAT     H231776   1.676   1.324   9.250
10512WAT      O31777   8.605   0.186   2.655
10512WAT     H131778   8.678   0.118   2.643
10512WAT     H231779   8.629   0.248   2.730
10513WAT      O31780   5.559   3.487   5.483
10513WAT     H131781   5.519   3.579   5.489
10513WAT     H231782   5.654   3.494   5.452
10514WAT      O31783   5.382   4.827   8.654
10514WAT     H131784   5.407   4.800   8.747
10514WAT     H231785   5.342   4.919   8.655
10515WAT      O31786   2.023   7.445   0.596
10515WAT     H131787   2.000   7.543   0.601
10515WAT     H231788   2.093   7.425   0.666
10516WAT      O31789   3.989   8.183   4.737
10516WAT     H131790   3.988   8.196   4.836
10516WAT     H231791   4.067   8.127   4.711
10517WAT      O31792   9.095   3.098   8.865
10517WAT     H131793   9.090   3.180   8.922
10517WAT     H231794   9.191   3.074   8.850
10518WAT      O31795   0.850   7.871   7.671
10518WAT     H131796   0.924   7.870   7.738
10518WAT     H231797   0.782   7.801   7.694
10519WAT      O31798   5.065   3.808   0.298
10519WAT     H131799   5.132   3.744   0.336
10519WAT     H231800   4.976   3.764   0.294
10520WAT      O31801   3.975   4.562   2.778
10520WAT     H131802   3.933   4.480   2.817
10520WAT     H231803   4.041   4.601   2.841
10521WAT      O31804   6.087   0.184   0.538
10521WAT     H131805   6.108   0.231   0.452
10521WAT     H231806   6.006   0.225   0.580
10522WAT      O31807   5.981   8.269   1.919
10522WAT     H131808   5.988   8.368   1.907
10522WAT     H231809   5.975   8.249   2.017
10523WAT      O31810   4.597   4.185   9.191
10523WAT     H131811   4.597   4.284   9.174
10523WAT     H231812   4.506   4.148   9.177
10524WAT      O31813   4.851   0.456   3.572
10524WAT     H131814   4.848   0.474   3.474
10524WAT     H231815   4.774   0.397   3.597
10525WAT      O31816   1.713   0.419   8.281
10525WAT     H131817   1.660   0.447   8.202
10525WAT     H231818   1.777   0.492   8.306
10526WAT      O31819   3.330   9.696   3.116
10526WAT     H131820   3.262   9.728   3.050
10526WAT     H231821   3.407   9.656   3.068
10527WAT      O31822   3.928   9.799   6.657
10527WAT     H131823   3.982   9.798   6.741
10527WAT     H231824   3.901   9.893   6.636
10528WAT      O31825   1.955   6.001   6.836
10528WAT     H131826   2.035   6.057   6.814
10528WAT     H231827   1.878   6.060   6.859
10529WAT      O31828   5.779   3.227   1.359
10529WAT     H131829   5.844   3.251   1.431
10529WAT     H231830   5.687   3.220   1.397
10530WAT      O31831   8.464   7.876   2.343
10530WAT     H131832   8.520   7.865   2.261
10530WAT     H231833   8.379   7.922   2.320
10531WAT      O31834   4.393   8.205   1.477
10531WAT     H131835   4.477   8.255   1.458
10531WAT     H231836   4.409   8.107   1.465
10532WAT      O31837   6.714   4.012   5.056
10532WAT     H131838   6.725   4.005   5.155
10532WAT     H231839   6.803   4.030   5.014
10533WAT      O31840   6.225   1.761   9.770
10533WAT     H131841   6.317   1.772   9.809
10533WAT     H231842   6.160   1.745   9.844
10534WAT      O31843   0.423   6.903   2.689
10534WAT     H131844   0.358   6.972   2.657
10534WAT     H231845   0.462   6.932   2.776
10535WAT      O31846   1.836   7.317   1.590
10535WAT     H131847   1.771   7.257   1.635
10535WAT     H231848   1.790   7.402   1.563
10536WAT      O31849   9.582   6.684   5.599
10536WAT     H131850   9.595   6.780   5.571
10536WAT     H231851   9.576   6.679   5.699
10537WAT      O31852   6.118   2.836   3.449
10537WAT     H131853   6.146   2.824   3.545
10537WAT     H231854   6.054   2.764   3.424
10538WAT      O31855   5.612   2.360   0.916
10538WAT     H131856   5.638   2.354   1.013
10538WAT     H231857   5.527   2.412   0.908
10539WAT      O31858   0.301   7.549   8.467
10539WAT     H131859   0.231   7.549   8.539
10539WAT     H231860   0.296   7.634   8.416
10540WAT      O31861   4.827   7.796   8.115
10540WAT     H131862   4.807   7.859   8.190
10540WAT     H231863   4.905   7.738   8.141
10541WAT      O31864   6.450   6.073   1.071
10541WAT     H131865   6.411   6.144   1.129
10541WAT     H231866   6.533   6.107   1.028
10542WAT      O31867   8.770   7.617   7.013
10542WAT     H131868   8.765   7.622   6.913
10542WAT     H231869   8.860   7.581   7.039
10543WAT      O31870   4.798   4.299   7.481
10543WAT     H131871   4.835   4.377   7.532
10543WAT     H231872   4.825   4.215   7.527
10544WAT      O31873   5.755   8.682   0.797
10544WAT     H131874   5.750   8.778   0.772
10544WAT     H231875   5.826   8.637   0.742
10545WAT      O31876   3.674   3.413   0.344
10545WAT     H131877   3.726   3.486   0.300
10545WAT     H231878   3.581   3.412   0.309
10546WAT      O31879   7.858   2.751   5.276
10546WAT     H131880   7.799   2.720   5.202
10546WAT     H231881   7.805   2.810   5.338
10547WAT      O31882   7.812   2.418   8.355
10547WAT     H131883   7.783   2.348   8.421
10547WAT     H231884   7.791   2.509   8.392
10548WAT      O31885   5.810   3.575   3.297
10548WAT     H131886   5.895   3.528   3.273
10548WAT     H231887   5.813   3.669   3.263
10549WAT      O31888   6.652   5.959   2.546
10549WAT     H131889   6.631   5.980   2.451
10549WAT     H231890   6.570   5.923   2.591
10550WAT      O31891   8.811   1.220   2.161
10550WAT     H131892   8.887   1.285   2.168
10550WAT     H231893   8.737   1.262   2.108
10551WAT      O31894   3.581   8.947   1.481
10551WAT     H131895   3.652   8.938   1.552
10551WAT     H231896   3.611   8.903   1.397
10552WAT      O31897   9.686   4.160   8.367
10552WAT     H131898   9.747   4.237   8.350
10552WAT     H231899   9.592   4.185   8.341
10553WAT      O31900   5.848   4.848   4.927
10553WAT     H131901   5.763   4.823   4.973
10553WAT     H231902   5.835   4.932   4.875
10554WAT      O31903   1.373   9.656   1.068
10554WAT     H131904   1.413   9.636   0.978
10554WAT     H231905   1.374   9.573   1.124
10555WAT      O31906   3.480   4.959   7.005
10555WAT     H131907   3.388   4.949   7.042
10555WAT     H231908   3.514   4.870   6.975
10556WAT      O31909   2.699   5.816   8.754
10556WAT     H131910   2.634   5.796   8.827
10556WAT     H231911   2.769   5.878   8.788
10557WAT      O31912   6.212   7.555   6.769
10557WAT     H131913   6.259   7.482   6.719
10557WAT     H231914   6.210   7.533   6.867
10558WAT      O31915   2.680   2.487   3.441
10558WAT     H131916   2.699   2.423   3.516
10558WAT     H231917   2.611   2.448   3.381
10559WAT      O31918   2.540   7.143   9.567
10559WAT     H131919   2.458   7.102   9.526
10559WAT     H231920   2.567   7.223   9.514
10560WAT      O31921   7.211   3.417   2.185
10560WAT     H131922   7.194   3.462   2.097
10560WAT     H231923   7.281   3.468   2.235
10561WAT      O31924   4.117   3.151   7.502
10561WAT     H131925   4.091   3.203   7.583
10561WAT     H231926   4.061   3.180   7.424
10562WAT      O31927   4.300   7.232   2.271
10562WAT     H131928   4.308   7.292   2.351
10562WAT     H231929   4.232   7.269   2.208
10563WAT      O31930   3.538   2.533   5.711
10563WAT     H131931   3.502   2.583   5.632
10563WAT     H231932   3.479   2.550   5.791
10564WAT      O31933   3.944   0.858   4.610
10564WAT     H131934   3.999   0.782   4.645
10564WAT     H231935   3.891   0.828   4.530
10565WAT      O31936   1.838   4.774   4.717
10565WAT     H131937   1.862   4.703   4.784
10565WAT     H231938   1.767   4.739   4.656
10566WAT      O31939   3.960   5.350   1.116
10566WAT     H131940   3.869   5.317   1.142
10566WAT     H231941   3.953   5.445   1.085
10567WAT      O31942   6.143   1.815   5.527
10567WAT     H131943   6.074   1.798   5.457
10567WAT     H231944   6.099   1.823   5.616
10568WAT      O31945   6.713   8.798   8.815
10568WAT     H131946   6.750   8.890   8.830
10568WAT     H231947   6.715   8.777   8.717
10569WAT      O31948   7.687   0.488   7.582
10569WAT     H131949   7.724   0.423   7.647
10569WAT     H231950   7.713   0.461   7.489
10570WAT      O31951   7.792   4.108   4.900
10570WAT     H131952   7.702   4.069   4.921
10570WAT     H231953   7.788   4.207   4.910
10571WAT      O31954   7.775   8.954   2.569
10571WAT     H131955   7.728   8.940   2.656
10571WAT     H231956   7.756   8.877   2.508
10572WAT      O31957   1.026   9.169   3.482
10572WAT     H131958   1.048   9.180   3.579
10572WAT     H231959   1.075   9.089   3.447
10573WAT      O31960   5.203   9.445   0.210
10573WAT     H131961   5.268   9.513   0.177
10573WAT     H231962   5.113   9.464   0.172
10574WAT      O31963   6.314   6.597   8.393
10574WAT     H131964   6.247   6.552   8.334
10574WAT     H231965   6.364   6.665   8.339
10575WAT      O31966   4.322   8.258   5.612
10575WAT     H131967   4.361   8.343   5.576
10575WAT     H231968   4.329   8.258   5.712
10576WAT      O31969   7.229   3.684   3.908
10576WAT     H131970   7.187   3.735   3.983
10576WAT     H231971   7.245   3.745   3.830
10577WAT      O31972   9.133   1.439   9.643
10577WAT     H131973   9.121   1.365   9.577
10577WAT     H231974   9.226   1.473   9.639
10578WAT      O31975   0.457   6.113   8.798
10578WAT     H131976   0.479   6.169   8.718
10578WAT     H231977   0.461   6.016   8.773
10579WAT      O31978   5.920   7.592   9.377
10579WAT     H131979   5.926   7.640   9.290
10579WAT     H231980   5.835   7.538   9.380
10580WAT      O31981   9.013   1.804   7.858
10580WAT     H131982   8.968   1.893   7.850
10580WAT     H231983   9.019   1.762   7.768
10581WAT      O31984   7.241   5.283   1.506
10581WAT     H131985   7.212   5.364   1.455
10581WAT     H231986   7.278   5.311   1.595
10582WAT      O31987   5.260   0.390   2.108
10582WAT     H131988   5.310   0.357   2.028
10582WAT     H231989   5.164   0.404   2.084
10583WAT      O31990   1.810   8.688   2.115
10583WAT     H131991   1.764   8.672   2.202
10583WAT     H231992   1.777   8.622   2.047
10584WAT      O31993   5.526   1.950   1.002
10584WAT     H131994   5.530   1.873   1.065
10584WAT     H231995   5.617   1.991   0.993
10585WAT      O31996   3.046   0.807   7.385
10585WAT     H131997   2.958   0.777   7.422
10585WAT     H231998   3.036   0.896   7.341
10586WAT      O31999   2.520   9.110   1.230
10586WAT     H132000   2.601   9.060   1.260
10586WAT     H232001   2.545   9.203   1.203
10587WAT      O32002   1.564   4.690   9.043
10587WAT     H132003   1.608   4.757   9.102
10587WAT     H232004   1.531   4.735   8.960
10588WAT      O32005   9.406   4.261   6.827
10588WAT     H132006   9.497   4.281   6.791
10588WAT     H232007   9.339   4.322   6.785
10589WAT      O32008   5.132   5.867   2.316
10589WAT     H132009   5.059   5.799   2.307
10589WAT     H232010   5.108   5.949   2.265
10590WAT      O32011   3.480   4.080   6.039
10590WAT     H132012   3.487   4.156   6.104
10590WAT     H232013   3.409   4.016   6.071
10591WAT      O32014   3.762   2.136   0.975
10591WAT     H132015   3.671   2.163   0.943
10591WAT     H232016   3.811   2.216   1.009
10592WAT      O32017   8.779   7.724   1.270
10592WAT     H132018   8.800   7.655   1.339
10592WAT     H232019   8.754   7.679   1.185
10593WAT      O32020   1.767   5.117   7.583
10593WAT     H132021   1.833   5.117   7.508
10593WAT     H232022   1.784   5.197   7.642
10594WAT      O32023   9.233   3.955   0.435
10594WAT     H132024   9.238   3.983   0.339
10594WAT     H232025   9.226   4.036   0.493
10595WAT      O32026   1.051   3.487   6.479
10595WAT     H132027   1.015   3.424   6.547
10595WAT     H232028   1.130   3.445   6.434
10596WAT      O32029   6.379   5.891   7.031
10596WAT     H132030   6.330   5.894   7.118
10596WAT     H232031   6.314   5.875   6.957
10597WAT      O32032   0.588   3.916   1.402
10597WAT     H132033   0.562   3.853   1.329
10597WAT     H232034   0.572   3.873   1.490
10598WAT      O32035   7.713   2.847   4.791
10598WAT     H132036   7.634   2.839   4.851
10598WAT     H232037   7.745   2.942   4.791
10599WAT      O32038   5.890   4.960   3.541
10599WAT     H132039   5.837   4.881   3.574
10599WAT     H232040   5.902   4.953   3.442
10600WAT      O32041   6.747   6.845   1.747
10600WAT     H132042   6.671   6.862   1.685
10600WAT     H232043   6.766   6.747   1.751
10601WAT      O32044   9.537   4.601   8.329
10601WAT     H132045   9.547   4.533   8.401
10601WAT     H232046   9.467   4.668   8.354
10602WAT      O32047   5.327   9.318   0.943
10602WAT     H132048   5.347   9.261   0.864
10602WAT     H232049   5.280   9.264   1.013
10603WAT      O32050   2.378   9.563   2.493
10603WAT     H132051   2.423   9.583   2.580
10603WAT     H232052   2.446   9.529   2.428
10604WAT      O32053   0.762   6.069   5.913
10604WAT     H132054   0.790   6.042   6.005
10604WAT     H232055   0.735   6.166   5.914
10605WAT      O32056   1.750   6.837   6.532
10605WAT     H132057   1.693   6.805   6.608
10605WAT     H232058   1.699   6.907   6.480
10606WAT      O32059   5.933   5.654   4.749
10606WAT     H132060   6.005   5.593   4.781
10606WAT     H232061   5.972   5.740   4.718
10607WAT      O32062   0.075   1.432   2.220
10607WAT     H132063   0.007   1.364   2.190
10607WAT     H232064   0.125   1.397   2.299
10608WAT      O32065   5.449   6.380   7.763
10608WAT     H132066   5.432   6.441   7.840
10608WAT     H232067   5.421   6.424   7.678
10609WAT      O32068   5.576   4.494   7.416
10609WAT     H132069   5.668   4.533   7.414
10609WAT     H232070   5.579   4.402   7.377
10610WAT      O32071   6.495   6.534   5.917
10610WAT     H132072   6.441   6.452   5.934
10610WAT     H232073   6.570   6.539   5.984
10611WAT      O32074   7.212   1.395   0.582
10611WAT     H132075   7.218   1.489   0.615
10611WAT     H232076   7.158   1.340   0.647
10612WAT      O32077   1.177   4.224   7.082
10612WAT     H132078   1.133   4.294   7.138
10612WAT     H232079   1.135   4.224   6.991
10613WAT      O32080   4.951   4.338   8.905
10613WAT     H132081   4.924   4.277   8.830
10613WAT     H232082   5.027   4.396   8.876
10614WAT      O32083   3.445   7.414   6.679
10614WAT     H132084   3.459   7.513   6.687
10614WAT     H232085   3.517   7.374   6.624
10615WAT      O32086   8.998   6.743   3.855
10615WAT     H132087   9.087   6.700   3.868
10615WAT     H232088   9.006   6.842   3.868
10616WAT      O32089   5.614   8.367   5.199
10616WAT     H132090   5.628   8.454   5.246
10616WAT     H232091   5.701   8.318   5.193
10617WAT      O32092   6.393   1.272   0.720
10617WAT     H132093   6.314   1.217   0.747
10617WAT     H232094   6.378   1.367   0.746
10618WAT      O32095   9.106   1.716   6.247
10618WAT     H132096   9.007   1.715   6.231
10618WAT     H232097   9.150   1.777   6.181
10619WAT      O32098   8.726   7.134   4.621
10619WAT     H132099   8.734   7.202   4.694
10619WAT     H232100   8.776   7.165   4.540
10620WAT      O32101   1.362   1.602   2.857
10620WAT     H132102   1.270   1.638   2.875
10620WAT     H232103   1.405   1.575   2.943
10621WAT      O32104   1.439   9.728   8.078
10621WAT     H132105   1.440   9.777   7.991
10621WAT     H232106   1.426   9.630   8.062
10622WAT      O32107   1.110   5.485   4.571
10622WAT     H132108   1.183   5.418   4.585
10622WAT     H232109   1.062   5.464   4.485
10623WAT      O32110   9.877   8.038   6.145
10623WAT     H132111   9.821   8.113   6.180
10623WAT     H232112   9.894   7.972   6.219
10624WAT      O32113   4.517   0.913   6.048
10624WAT     H132114   4.558   0.827   6.020
10624WAT     H232115   4.580   0.988   6.027
10625WAT      O32116   6.703   9.229   0.430
10625WAT     H132117   6.738   9.226   0.524
10625WAT     H232118   6.617   9.179   0.425
10626WAT      O32119   5.718   3.701   2.311
10626WAT     H132120   5.623   3.671   2.306
10626WAT     H232121   5.735   3.772   2.244
10627WAT      O32122   7.265   8.562   0.857
10627WAT     H132123   7.322   8.615   0.919
10627WAT     H232124   7.291   8.466   0.862
10628WAT      O32125   5.813   0.052   6.824
10628WAT     H132126   5.715   0.055   6.844
10628WAT     H232127   5.856   0.135   6.859
10629WAT      O32128   0.108   5.580   0.747
10629WAT     H132129   0.120   5.492   0.792
10629WAT     H232130   0.193   5.632   0.751
10630WAT      O32131   7.930   3.767   6.013
10630WAT     H132132   7.949   3.854   5.969
10630WAT     H232133   7.894   3.703   5.945
10631WAT      O32134   1.979   5.982   1.072
10631WAT     H132135   2.045   6.041   1.119
10631WAT     H232136   1.889   6.026   1.073
10632WAT      O32137   8.541   0.536   2.564
10632WAT     H132138   8.560   0.632   2.585
10632WAT     H232139   8.619   0.480   2.593
10633WAT      O32140   7.759   7.474   2.461
10633WAT     H132141   7.793   7.551   2.515
10633WAT     H232142   7.734   7.399   2.523
10634WAT      O32143   2.383   8.934   9.674
10634WAT     H132144   2.307   8.946   9.610
10634WAT     H232145   2.436   8.854   9.647
10635WAT      O32146   2.550   1.933   1.532
10635WAT     H132147   2.571   1.870   1.607
10635WAT     H232148   2.573   2.027   1.560
10636WAT      O32149   9.047   3.671   9.575
10636WAT     H132150   9.078   3.766   9.576
10636WAT     H232151   9.084   3.622   9.654
10637WAT      O32152   8.603   5.050   4.044
10637WAT     H132153   8.611   5.126   4.108
10637WAT     H232154   8.652   4.970   4.079
10638WAT      O32155   8.731   4.799   7.740
10638WAT     H132156   8.689   4.883   7.776
10638WAT     H232157   8.713   4.792   7.642
10639WAT      O32158   1.710   4.375   2.809
10639WAT     H132159   1.761   4.326   2.880
10639WAT     H232160   1.651   4.444   2.852
10640WAT      O32161   8.043   5.930   5.216
10640WAT     H132162   8.015   6.024   5.237
10640WAT     H232163   8.131   5.911   5.260
10641WAT      O32164   0.070   0.326   0.901
10641WAT     H132165   0.031   0.269   0.974
10641WAT     H232166   0.061   0.422   0.926
10642WAT      O32167   3.422   6.292   7.567
10642WAT     H132168   3.426   6.380   7.521
10642WAT     H232169   3.512   6.271   7.607
10643WAT      O32170   9.016   7.895   5.980
10643WAT     H132171   9.115   7.888   5.984
10643WAT     H232172   8.981   7.930   6.067
10644WAT      O32173   7.942   7.140   1.052
10644WAT     H132174   8.023   7.198   1.045
10644WAT     H232175   7.891   7.164   1.134
10645WAT      O32176   3.647   3.760   4.726
10645WAT     H132177   3.586   3.760   4.804
10645WAT     H232178   3.721   3.694   4.741
10646WAT      O32179   7.338   1.956   4.471
10646WAT     H132180   7.267   1.890   4.495
10646WAT     H232181   7.309   2.048   4.498
10647WAT      O32182   7.304   5.812   9.847
10647WAT     H132183   7.267   5.873   9.777
10647WAT     H232184   7.264   5.721   9.838
10648WAT      O32185   2.026   1.144   0.757
10648WAT     H132186   2.055   1.075   0.691
10648WAT     H232187   2.074   1.230   0.740
10649WAT      O32188   3.347   8.275   7.067
10649WAT     H132189   3.410   8.330   7.013
10649WAT     H232190   3.393   8.241   7.149
10650WAT      O32191   4.731   7.593   4.240
10650WAT     H132192   4.716   7.596   4.339
10650WAT     H232193   4.756   7.500   4.213
10651WAT      O32194   8.975   8.155   8.679
10651WAT     H132195   9.019   8.160   8.769
10651WAT     H232196   9.039   8.184   8.609
10652WAT      O32197   8.218   7.581   0.840
10652WAT     H132198   8.121   7.564   0.852
10652WAT     H232199   8.234   7.618   0.748
10653WAT      O32200   1.615   6.227   3.126
10653WAT     H132201   1.714   6.234   3.113
10653WAT     H232202   1.570   6.232   3.037
10654WAT      O32203   8.194   0.933   7.115
10654WAT     H132204   8.129   0.980   7.175
10654WAT     H232205   8.285   0.935   7.156
10655WAT      O32206   9.827   4.376   1.120
10655WAT     H132207   9.842   4.335   1.210
10655WAT     H232208   9.736   4.417   1.117
10656WAT      O32209   0.338   5.182   5.295
10656WAT     H132210   0.422   5.134   5.317
10656WAT     H232211   0.267   5.116   5.272
10657WAT      O32212   2.266   1.727   9.100
10657WAT     H132213   2.273   1.748   9.002
10657WAT     H232214   2.297   1.633   9.115
10658WAT      O32215   2.740   2.310   3.653
10658WAT     H132216   2.769   2.324   3.748
10658WAT     H232217   2.774   2.222   3.621
10659WAT      O32218   6.933   8.148   9.215
10659WAT     H132219   6.986   8.188   9.290
10659WAT     H232220   6.963   8.054   9.200
10660WAT      O32221   4.655   0.418   2.969
10660WAT     H132222   4.590   0.455   3.035
10660WAT     H232223   4.624   0.328   2.938
10661WAT      O32224   1.650   6.353   6.811
10661WAT     H132225   1.572   6.406   6.845
10661WAT     H232226   1.640   6.339   6.712
10662WAT      O32227   7.695   3.121   2.457
10662WAT     H132228   7.627   3.091   2.524
10662WAT     H232229   7.658   3.108   2.365
10663WAT      O32230   7.927   5.149   4.819
10663WAT     H132231   7.829   5.153   4.797
10663WAT     H232232   7.974   5.227   4.778
10664WAT      O32233   5.794   5.262   9.548
10664WAT     H132234   5.762   5.198   9.479
10664WAT     H232235   5.854   5.215   9.613
10665WAT      O32236   5.468   8.522   4.326
10665WAT     H132237   5.389   8.531   4.387
10665WAT     H232238   5.435   8.501   4.233
10666WAT      O32239   8.622   1.851   8.158
10666WAT     H132240   8.583   1.865   8.249
10666WAT     H232241   8.592   1.925   8.097
10667WAT      O32242   5.389   6.149   9.600
10667WAT     H132243   5.411   6.200   9.683
10667WAT     H232244   5.443   6.064   9.598
10668WAT      O32245   6.573   5.512   4.586
10668WAT     H132246   6.536   5.476   4.500
10668WAT     H232247   6.557   5.611   4.590
10669WAT      O32248   6.512   2.472   6.048
10669WAT     H132249   6.605   2.463   6.082
10669WAT     H232250   6.495   2.567   6.020
10670WAT      O32251   9.387   3.358   2.528
10670WAT     H132252   9.324   3.287   2.498
10670WAT     H232253   9.397   3.354   2.628
10671WAT      O32254   6.337   6.597   2.773
10671WAT     H132255   6.264   6.537   2.806
10671WAT     H232256   6.351   6.581   2.675
10672WAT      O32257   7.833   3.044   7.749
10672WAT     H132258   7.817   3.060   7.652
10672WAT     H232259   7.928   3.063   7.771
10673WAT      O32260   0.193   1.031   0.424
10673WAT     H132261   0.099   1.054   0.400
10673WAT     H232262   0.234   0.978   0.350
10674WAT      O32263   5.485   8.492   7.521
10674WAT     H132264   5.473   8.405   7.570
10674WAT     H232265   5.408   8.506   7.459
10675WAT      O32266   8.191   6.669   6.831
10675WAT     H132267   8.152   6.694   6.742
10675WAT     H232268   8.125   6.689   6.903
10676WAT      O32269   6.385   4.188   9.791
10676WAT     H132270   6.378   4.258   9.720
10676WAT     H232271   6.318   4.208   9.863
10677WAT      O32272   3.873   3.268   8.747
10677WAT     H132273   3.889   3.223   8.834
10677WAT     H232274   3.869   3.367   8.761
10678WAT      O32275   7.594   2.483   8.613
10678WAT     H132276   7.637   2.531   8.690
10678WAT     H232277   7.587   2.545   8.535
10679WAT      O32278   3.448   7.325   5.107
10679WAT     H132279   3.441   7.229   5.133
10679WAT     H232280   3.410   7.382   5.180
10680WAT      O32281   4.386   9.333   7.612
10680WAT     H132282   4.416   9.373   7.526
10680WAT     H232283   4.290   9.306   7.605
10681WAT      O32284   5.653   8.445   3.552
10681WAT     H132285   5.622   8.505   3.627
10681WAT     H232286   5.611   8.475   3.467
10682WAT      O32287   0.236   8.665   2.604
10682WAT     H132288   0.299   8.743   2.599
10682WAT     H232289   0.162   8.686   2.668
10683WAT      O32290   2.988   0.807   3.335
10683WAT     H132291   2.979   0.708   3.348
10683WAT     H232292   3.084   0.829   3.314
10684WAT      O32293   2.864   0.514   6.931
10684WAT     H132294   2.834   0.459   7.009
10684WAT     H232295   2.789   0.523   6.866
10685WAT      O32296   8.726   1.613   2.661
10685WAT     H132297   8.700   1.685   2.724
10685WAT     H232298   8.699   1.524   2.698
10686WAT      O32299   9.434   9.563   8.629
10686WAT     H132300   9.439   9.463   8.641
10686WAT     H232301   9.354   9.598   8.678
10687WAT      O32302   0.493   2.012   1.556
10687WAT     H132303   0.564   2.039   1.490
10687WAT     H232304   0.532   2.011   1.648
10688WAT      O32305   8.402   7.204   2.042
10688WAT     H132306   8.405   7.173   1.948
10688WAT     H232307   8.306   7.211   2.072
10689WAT      O32308   1.021   0.942   5.983
10689WAT     H132309   1.015   0.987   5.894
10689WAT     H232310   0.929   0.921   6.017
10690WAT      O32311   3.115   5.547   1.184
10690WAT     H132312   3.049   5.478   1.214
10690WAT     H232313   3.067   5.634   1.169
10691WAT      O32314   1.686   8.390   7.569
10691WAT     H132315   1.765   8.444   7.599
10691WAT     H232316   1.622   8.450   7.521
10692WAT      O32317   6.396   5.739   9.139
10692WAT     H132318   6.436   5.692   9.060
10692WAT     H232319   6.420   5.690   9.223
10693WAT      O32320   5.727   7.493   1.406
10693WAT     H132321   5.791   7.472   1.332
10693WAT     H232322   5.642   7.527   1.367
10694WAT      O32323   5.289   8.281   8.702
10694WAT     H132324   5.326   8.358   8.754
10694WAT     H232325   5.343   8.269   8.618
10695WAT      O32326   5.624   0.349   8.465
10695WAT     H132327   5.654   0.445   8.468
10695WAT     H232328   5.652   0.308   8.378
10696WAT      O32329   7.192   0.426   5.663
10696WAT     H132330   7.163   0.425   5.759
10696WAT     H232331   7.150   0.348   5.616
10697WAT      O32332   3.954   8.871   3.107
10697WAT     H132333   3.901   8.811   3.167
10697WAT     H232334   3.942   8.842   3.012
10698WAT      O32335   6.649   3.779   8.334
10698WAT     H132336   6.663   3.737   8.423
10698WAT     H232337   6.554   3.766   8.305
10699WAT      O32338   5.836   6.074   5.798
10699WAT     H132339   5.792   6.112   5.880
10699WAT     H232340   5.779   6.001   5.761
10700WAT      O32341   3.764   6.277   4.480
10700WAT     H132342   3.776   6.372   4.452
10700WAT     H232343   3.843   6.223   4.450
10701WAT      O32344   2.433   5.843   1.588
10701WAT     H132345   2.462   5.876   1.498
10701WAT     H232346   2.388   5.916   1.638
10702WAT      O32347   1.892   8.718   1.688
10702WAT     H132348   1.803   8.713   1.733
10702WAT     H232349   1.938   8.803   1.712
10703WAT      O32350   1.501   6.408   5.129
10703WAT     H132351   1.466   6.314   5.135
10703WAT     H232352   1.599   6.408   5.145
10704WAT      O32353   5.300   3.949   6.512
10704WAT     H132354   5.351   4.017   6.459
10704WAT     H232355   5.333   3.949   6.606
10705WAT      O32356   7.629   1.822   6.461
10705WAT     H132357   7.541   1.836   6.506
10705WAT     H232358   7.625   1.859   6.368
10706WAT      O32359   8.654   7.233   0.167
10706WAT     H132360   8.710   7.152   0.182
10706WAT     H232361   8.699   7.294   0.102
10707WAT      O32362   6.481   9.383   9.550
10707WAT     H132363   6.425   9.465   9.541
10707WAT     H232364   6.568   9.407   9.592
10708WAT      O32365   4.172   9.021   3.759
10708WAT     H132366   4.133   8.954   3.823
10708WAT     H232367   4.144   8.998   3.666
10709WAT      O32368   1.159   4.236   4.610
10709WAT     H132369   1.082   4.290   4.642
10709WAT     H232370   1.162   4.236   4.510
10710WAT      O32371   4.257   8.207   1.762
10710WAT     H132372   4.209   8.231   1.678
10710WAT     H232373   4.262   8.108   1.771
10711WAT      O32374   4.206   6.433   4.462
10711WAT     H132375   4.211   6.533   4.458
10711WAT     H232376   4.204   6.396   4.369
10712WAT      O32377   4.556   4.592   2.022
10712WAT     H132378   4.587   4.672   1.970
10712WAT     H232379   4.490   4.620   2.091
10713WAT      O32380   1.498   2.110   6.292
10713WAT     H132381   1.494   2.205   6.262
10713WAT     H232382   1.431   2.095   6.365
10714WAT      O32383   4.744   4.689   8.893
10714WAT     H132384   4.663   4.631   8.897
10714WAT     H232385   4.770   4.717   8.985
10715WAT      O32386   3.293   6.246   8.193
10715WAT     H132387   3.354   6.237   8.114
10715WAT     H232388   3.344   6.285   8.270
10716WAT      O32389   6.797   8.274   1.351
10716WAT     H132390   6.861   8.287   1.426
10716WAT     H232391   6.840   8.302   1.265
10717WAT      O32392   9.814   2.077   4.343
10717WAT     H132393   9.755   2.011   4.391
10717WAT     H232394   9.826   2.157   4.401
10718WAT      O32395   7.148   5.199   8.906
10718WAT     H132396   7.193   5.242   8.985
10718WAT     H232397   7.049   5.203   8.918
10719WAT      O32398   8.574   8.949   7.861
10719WAT     H132399   8.644   8.971   7.793
10719WAT     H232400   8.572   9.020   7.931
10720WAT      O32401   2.557   5.360   1.671
10720WAT     H132402   2.502   5.371   1.754
10720WAT     H232403   2.616   5.279   1.681
10721WAT      O32404   9.054   3.522   0.377
10721WAT     H132405   9.013   3.434   0.401
10721WAT     H232406   9.042   3.586   0.452
10722WAT      O32407   8.784   4.544   0.091
10722WAT     H132408   8.839   4.580   0.167
10722WAT     H232409   8.705   4.496   0.127
10723WAT      O32410   0.100   6.162   2.070
10723WAT     H132411   0.133   6.083   2.019
10723WAT     H232412   0.024   6.135   2.128
10724WAT      O32413   3.663   1.202   7.586
10724WAT     H132414   3.570   1.196   7.549
10724WAT     H232415   3.726   1.225   7.512
10725WAT      O32416   6.274   6.540   7.441
10725WAT     H132417   6.234   6.551   7.532
10725WAT     H232418   6.261   6.446   7.410
10726WAT      O32419   8.242   3.248   4.597
10726WAT     H132420   8.145   3.267   4.589
10726WAT     H232421   8.268   3.248   4.694
10727WAT      O32422   1.087   8.820   4.686
10727WAT     H132423   0.995   8.812   4.724
10727WAT     H232424   1.147   8.862   4.754
10728WAT      O32425   1.368   9.084   2.590
10728WAT     H132426   1.422   9.001   2.599
10728WAT     H232427   1.348   9.121   2.681
10729WAT      O32428   4.687   9.142   1.864
10729WAT     H132429   4.766   9.110   1.916
10729WAT     H232430   4.707   9.136   1.766
10730WAT      O32431   4.003   6.530   2.336
10730WAT     H132432   4.012   6.629   2.343
10730WAT     H232433   3.912   6.503   2.368
10731WAT      O32434   8.123   7.658   4.199
10731WAT     H132435   8.181   7.690   4.123
10731WAT     H232436   8.032   7.637   4.165
10732WAT      O32437   5.728   6.594   5.288
10732WAT     H132438   5.814   6.646   5.292
10732WAT     H232439   5.703   6.564   5.380
10733WAT      O32440   1.558   0.512   3.578
10733WAT     H132441   1.474   0.551   3.542
10733WAT     H232442   1.635   0.574   3.561
10734WAT      O32443   1.548   8.226   8.386
10734WAT     H132444   1.614   8.167   8.340
10734WAT     H232445   1.592   8.312   8.414
10735WAT      O32446   1.805   0.032   2.167
10735WAT     H132447   1.763   0.102   2.109
10735WAT     H232448   1.901   0.020   2.141
10736WAT      O32449   7.114   2.323   3.661
10736WAT     H132450   7.090   2.344   3.756
10736WAT     H232451   7.196   2.265   3.660
10737WAT      O32452   2.612   7.322   6.900
10737WAT     H132453   2.615   7.315   6.801
10737WAT     H232454   2.555   7.248   6.937
10738WAT      O32455   9.264   3.721   3.891
10738WAT     H132456   9.196   3.766   3.833
10738WAT     H232457   9.322   3.791   3.934
10739WAT      O32458   1.633   0.863   5.455
10739WAT     H132459   1.728   0.838   5.436
10739WAT     H232460   1.592   0.905   5.374
10740WAT      O32461   2.969   2.530   2.441
10740WAT     H132462   3.016   2.610   2.478
10740WAT     H232463   2.876   2.554   2.415
10741WAT      O32464   8.323   8.769   9.728
10741WAT     H132465   8.322   8.672   9.750
10741WAT     H232466   8.367   8.783   9.639
10742WAT      O32467   3.295   5.206   0.514
10742WAT     H132468   3.346   5.146   0.575
10742WAT     H232469   3.204   5.223   0.552
10743WAT      O32470   5.458   4.899   1.033
10743WAT     H132471   5.545   4.874   1.075
10743WAT     H232472   5.459   4.996   1.009
10744WAT      O32473   7.857   1.473   8.355
10744WAT     H132474   7.865   1.545   8.425
10744WAT     H232475   7.930   1.406   8.369
10745WAT      O32476   1.840   0.541   1.663
10745WAT     H132477   1.886   0.500   1.585
10745WAT     H232478   1.743   0.514   1.663
10746WAT      O32479   8.160   7.683   6.585
10746WAT     H132480   8.150   7.609   6.651
10746WAT     H232481   8.130   7.652   6.494
10747WAT      O32482   9.669   8.995   5.400
10747WAT     H132483   9.644   9.088   5.427
10747WAT     H232484   9.620   8.929   5.457
10748WAT      O32485   4.773   1.028   2.070
10748WAT     H132486   4.848   1.041   2.136
10748WAT     H232487   4.726   0.942   2.091
10749WAT      O32488   7.430   2.778   4.769
10749WAT     H132489   7.451   2.876   4.775
10749WAT     H232490   7.332   2.764   4.783
10750WAT      O32491   9.872   4.583   2.723
10750WAT     H132492   9.792   4.559   2.668
10750WAT     H232493   9.951   4.599   2.663
10751WAT      O32494   1.970   1.189   2.233
10751WAT     H132495   2.048   1.165   2.291
10751WAT     H232496   1.901   1.235   2.288
10752WAT      O32497   8.030   6.668   4.586
10752WAT     H132498   7.935   6.653   4.616
10752WAT     H232499   8.068   6.747   4.634
10753WAT      O32500   3.863   1.065   7.943
10753WAT     H132501   3.808   1.078   8.026
10753WAT     H232502   3.855   1.146   7.885
10754WAT      O32503   0.937   1.707   7.889
10754WAT     H132504   1.031   1.738   7.908
10754WAT     H232505   0.937   1.648   7.808
10755WAT      O32506   6.133   9.437   3.736
10755WAT     H132507   6.045   9.476   3.764
10755WAT     H232508   6.123   9.338   3.726
10756WAT      O32509   1.760   5.936   0.253
10756WAT     H132510   1.797   5.975   0.337
10756WAT     H232511   1.677   5.884   0.275
10757WAT      O32512   0.618   9.317   4.795
10757WAT     H132513   0.693   9.367   4.838
10757WAT     H232514   0.540   9.378   4.781
10758WAT      O32515   9.619   7.019   6.527
10758WAT     H132516   9.695   6.966   6.490
10758WAT     H232517   9.655   7.095   6.581
10759WAT      O32518   7.305   7.103   9.418
10759WAT     H132519   7.207   7.119   9.403
10759WAT     H232520   7.356   7.132   9.337
10760WAT      O32521   9.391   9.645   3.487
10760WAT     H132522   9.324   9.594   3.540
10760WAT     H232523   9.480   9.600   3.493
10761WAT      O32524   7.404   2.558   0.525
10761WAT     H132525   7.472   2.630   0.541
10761WAT     H232526   7.392   2.545   0.427
10762WAT      O32527   0.398   2.725   4.979
10762WAT     H132528   0.314   2.672   4.963
10762WAT     H232529   0.381   2.821   4.955
10763WAT      O32530   6.748   4.573   7.733
10763WAT     H132531   6.757   4.631   7.814
10763WAT     H232532   6.736   4.478   7.762
10764WAT      O32533   5.250   4.186   2.578
10764WAT     H132534   5.184   4.115   2.603
10764WAT     H232535   5.219   4.231   2.494
10765WAT      O32536   0.883   3.636   3.123
10765WAT     H132537   0.824   3.572   3.073
10765WAT     H232538   0.828   3.686   3.190
10766WAT      O32539   3.047   4.564   8.005
10766WAT     H132540   3.051   4.464   8.003
10766WAT     H232541   2.978   4.595   7.940
10767WAT      O32542   0.974   8.489   7.965
10767WAT     H132543   1.074   8.489   7.961
10767WAT     H232544   0.943   8.536   8.047
10768WAT      O32545   7.809   5.175   1.952
10768WAT     H132546   7.806   5.168   1.852
10768WAT     H232547   7.744   5.111   1.992
10769WAT      O32548   4.937   5.770   4.043
10769WAT     H132549   4.918   5.684   4.091
10769WAT     H232550   4.902   5.847   4.097
10770WAT      O32551   2.975   7.363   0.308
10770WAT     H132552   2.888   7.413   0.301
10770WAT     H232553   2.999   7.352   0.404
10771WAT      O32554   1.109   2.553   2.826
10771WAT     H132555   1.028   2.572   2.771
10771WAT     H232556   1.082   2.504   2.909
10772WAT      O32557   7.624   6.806   6.169
10772WAT     H132558   7.629   6.816   6.069
10772WAT     H232559   7.538   6.845   6.202
10773WAT      O32560   6.965   1.835   7.660
10773WAT     H132561   7.061   1.856   7.641
10773WAT     H232562   6.910   1.917   7.644
10774WAT      O32563   7.999   5.191   0.658
10774WAT     H132564   8.086   5.240   0.649
10774WAT     H232565   7.951   5.224   0.739
10775WAT      O32566   8.490   5.968   3.506
10775WAT     H132567   8.513   6.065   3.506
10775WAT     H232568   8.525   5.926   3.422
10776WAT      O32569   6.493   9.663   8.423
10776WAT     H132570   6.593   9.656   8.418
10776WAT     H232571   6.467   9.760   8.418
10777WAT      O32572   7.187   8.993   4.345
10777WAT     H132573   7.145   9.024   4.260
10777WAT     H232574   7.283   8.970   4.328
10778WAT      O32575   0.337   7.260   8.479
10778WAT     H132576   0.345   7.359   8.491
10778WAT     H232577   0.370   7.234   8.388
10779WAT      O32578   1.790   8.680   7.416
10779WAT     H132579   1.863   8.614   7.436
10779WAT     H232580   1.808   8.723   7.328
10780WAT      O32581   2.202   0.283   5.965
10780WAT     H132582   2.139   0.218   6.009
10780WAT     H232583   2.289   0.239   5.947
10781WAT      O32584   1.309   6.612   9.751
10781WAT     H132585   1.399   6.581   9.719
10781WAT     H232586   1.252   6.634   9.672
10782WAT      O32587   8.112   3.755   9.509
10782WAT     H132588   8.180   3.691   9.545
10782WAT     H232589   8.029   3.749   9.565
10783WAT      O32590   3.548   6.234   9.766
10783WAT     H132591   3.639   6.250   9.729
10783WAT     H232592   3.487   6.308   9.738
10784WAT      O32593   5.919   8.384   4.308
10784WAT     H132594   6.007   8.432   4.304
10784WAT     H232595   5.844   8.450   4.300
10785WAT      O32596   2.542   9.490   6.239
10785WAT     H132597   2.490   9.550   6.299
10785WAT     H232598   2.612   9.543   6.192
10786WAT      O32599   2.280   6.872   2.201
10786WAT     H132600   2.373   6.839   2.181
10786WAT     H232601   2.285   6.943   2.271
10787WAT      O32602   8.210   8.947   3.471
10787WAT     H132603   8.265   8.908   3.396
10787WAT     H232604   8.245   8.914   3.558
10788WAT      O32605   5.979   6.567   8.490
10788WAT     H132606   6.018   6.639   8.433
10788WAT     H232607   5.969   6.600   8.584
10789WAT      O32608   0.886   1.614   8.950
10789WAT     H132609   0.825   1.692   8.964
10789WAT     H232610   0.975   1.646   8.919
10790WAT      O32611   3.186   9.237   2.212
10790WAT     H132612   3.234   9.288   2.140
10790WAT     H232613   3.099   9.204   2.177
10791WAT      O32614   7.741   4.965   2.312
10791WAT     H132615   7.646   4.936   2.325
10791WAT     H232616   7.769   5.021   2.389
10792WAT      O32617   6.118   4.905   7.176
10792WAT     H132618   6.175   4.982   7.148
10792WAT     H232619   6.052   4.937   7.245
10793WAT      O32620   8.183   6.456   5.595
10793WAT     H132621   8.171   6.512   5.676
10793WAT     H232622   8.182   6.514   5.514
10794WAT      O32623   2.707   4.102   7.903
10794WAT     H132624   2.760   4.145   7.830
10794WAT     H232625   2.634   4.163   7.931
10795WAT      O32626   0.569   4.871   9.148
10795WAT     H132627   0.486   4.926   9.156
10795WAT     H232628   0.646   4.931   9.124
10796WAT      O32629   0.439   4.566   3.372
10796WAT     H132630   0.432   4.633   3.446
10796WAT     H232631   0.531   4.569   3.334
10797WAT      O32632   3.385   1.090   4.649
10797WAT     H132633   3.343   1.038   4.722
10797WAT     H232634   3.484   1.092   4.662
10798WAT      O32635   8.463   1.257   7.516
10798WAT     H132636   8.459   1.355   7.534
10798WAT     H232637   8.492   1.209   7.598
10799WAT      O32638   7.933   1.254   5.548
10799WAT     H132639   7.932   1.265   5.449
10799WAT     H232640   7.925   1.157   5.571
10800WAT      O32641   7.038   2.095   5.606
10800WAT     H132642   7.008   2.054   5.692
10800WAT     H232643   7.043   2.025   5.534
10801WAT      O32644   7.115   1.098   8.313
10801WAT     H132645   7.109   1.163   8.389
10801WAT     H232646   7.173   1.021   8.339
10802WAT      O32647   3.010   5.177   9.126
10802WAT     H132648   3.045   5.241   9.057
10802WAT     H232649   2.945   5.115   9.082
10803WAT      O32650   5.192   4.261   0.148
10803WAT     H132651   5.289   4.281   0.150
10803WAT     H232652   5.169   4.202   0.225
10804WAT      O32653   7.381   4.572   3.754
10804WAT     H132654   7.446   4.550   3.827
10804WAT     H232655   7.289   4.546   3.783
10805WAT      O32656   3.490   7.599   2.929
10805WAT     H132657   3.425   7.531   2.964
10805WAT     H232658   3.526   7.569   2.841
10806WAT      O32659   9.683   1.369   9.648
10806WAT     H132660   9.639   1.409   9.568
10806WAT     H232661   9.693   1.438   9.719
10807WAT      O32662   3.879   4.701   9.014
10807WAT     H132663   3.818   4.635   9.058
10807WAT     H232664   3.973   4.683   9.043
10808WAT      O32665   2.549   9.025   5.479
10808WAT     H132666   2.608   9.040   5.399
10808WAT     H232667   2.490   9.105   5.492
10809WAT      O32668   8.539   1.318   0.242
10809WAT     H132669   8.626   1.354   0.208
10809WAT     H232670   8.509   1.243   0.183
10810WAT      O32671   4.550   6.030   1.728
10810WAT     H132672   4.470   6.071   1.771
10810WAT     H232673   4.563   5.937   1.763
10811WAT      O32674   5.173   8.032   6.882
10811WAT     H132675   5.080   8.054   6.912
10811WAT     H232676   5.203   7.947   6.926
10812WAT      O32677   4.657   6.964   0.929
10812WAT     H132678   4.579   6.978   0.867
10812WAT     H232679   4.623   6.950   1.022
10813WAT      O32680   4.608   5.330   6.965
10813WAT     H132681   4.615   5.368   6.873
10813WAT     H232682   4.667   5.250   6.973
10814WAT      O32683   8.524   9.645   0.558
10814WAT     H132684   8.579   9.724   0.528
10814WAT     H232685   8.571   9.598   0.633
10815WAT      O32686   9.259   3.550   6.966
10815WAT     H132687   9.167   3.590   6.963
10815WAT     H232688   9.259   3.471   7.027
10816WAT      O32689   6.220   7.469   5.358
10816WAT     H132690   6.214   7.521   5.443
10816WAT     H232691   6.231   7.532   5.281
10817WAT      O32692   5.676   6.525   0.987
10817WAT     H132693   5.641   6.610   1.027
10817WAT     H232694   5.774   6.533   0.972
10818WAT      O32695   9.717   1.823   4.692
10818WAT     H132696   9.797   1.843   4.748
10818WAT     H232697   9.694   1.726   4.700
10819WAT      O32698   6.205   7.634   4.472
10819WAT     H132699   6.226   7.710   4.534
10819WAT     H232700   6.290   7.600   4.431
10820WAT      O32701   5.202   9.062   6.649
10820WAT     H132702   5.240   9.003   6.720
10820WAT     H232703   5.234   9.156   6.663
10821WAT      O32704   3.214   9.418   9.688
10821WAT     H132705   3.141   9.374   9.635
10821WAT     H232706   3.173   9.470   9.763
10822WAT      O32707   8.294   8.628   1.932
10822WAT     H132708   8.298   8.727   1.913
10822WAT     H232709   8.376   8.600   1.981
10823WAT      O32710   2.091   3.567   3.598
10823WAT     H132711   2.143   3.590   3.516
10823WAT     H232712   2.006   3.621   3.599
10824WAT      O32713   6.073   7.575   4.142
10824WAT     H132714   5.998   7.551   4.204
10824WAT     H232715   6.156   7.526   4.170
10825WAT      O32716   6.249   5.760   3.799
10825WAT     H132717   6.211   5.811   3.722
10825WAT     H232718   6.301   5.681   3.764
10826WAT      O32719   9.172   0.324   9.553
10826WAT     H132720   9.174   0.416   9.594
10826WAT     H232721   9.265   0.295   9.532
10827WAT      O32722   4.128   9.834   5.140
10827WAT     H132723   4.191   9.879   5.077
10827WAT     H232724   4.045   9.888   5.148
10828WAT      O32725   2.308   5.026   0.245
10828WAT     H132726   2.401   5.025   0.281
10828WAT     H232727   2.243   5.001   0.316
10829WAT      O32728   3.759   6.610   7.308
10829WAT     H132729   3.670   6.647   7.334
10829WAT     H232730   3.748   6.538   7.240
10830WAT      O32731   1.880   4.292   6.237
10830WAT     H132732   1.818   4.336   6.172
10830WAT     H232733   1.846   4.305   6.330
10831WAT      O32734   6.941   5.780   2.247
10831WAT     H132735   6.933   5.788   2.347
10831WAT     H232736   6.944   5.683   2.222
10832WAT      O32737   8.486   0.339   6.462
10832WAT     H132738   8.475   0.437   6.478
10832WAT     H232739   8.573   0.322   6.416
10833WAT      O32740   2.883   5.103   6.609
10833WAT     H132741   2.824   5.171   6.652
10833WAT     H232742   2.859   5.012   6.642
10834WAT      O32743   8.566   0.781   3.908
10834WAT     H132744   8.542   0.719   3.833
10834WAT     H232745   8.484   0.805   3.960
10835WAT      O32746   0.789   6.629   8.914
10835WAT     H132747   0.882   6.598   8.894
10835WAT     H232748   0.724   6.572   8.864
10836WAT      O32749   1.421   6.815   9.198
10836WAT     H132750   1.438   6.854   9.289
10836WAT     H232751   1.327   6.833   9.171
10837WAT      O32752   4.772   9.275   1.178
10837WAT     H132753   4.797   9.324   1.261
10837WAT     H232754   4.801   9.328   1.098
10838WAT      O32755   6.644   4.443   4.102
10838WAT     H132756   6.580   4.439   4.025
10838WAT     H232757   6.657   4.352   4.140
10839WAT      O32758   7.232   8.700   8.651
10839WAT     H132759   7.215   8.711   8.749
10839WAT     H232760   7.275   8.611   8.634
10840WAT      O32761   2.106   7.863   5.819
10840WAT     H132762   2.195   7.908   5.812
10840WAT     H232763   2.056   7.873   5.732
10841WAT      O32764   8.263   4.972   7.981
10841WAT     H132765   8.224   4.976   8.073
10841WAT     H232766   8.363   4.975   7.988
10842WAT      O32767   2.477   0.728   1.586
10842WAT     H132768   2.506   0.637   1.615
10842WAT     H232769   2.378   0.735   1.590
10843WAT      O32770   0.124   9.796   6.366
10843WAT     H132771   0.180   9.829   6.291
10843WAT     H232772   0.164   9.825   6.453
10844WAT      O32773   7.925   3.985   0.812
10844WAT     H132774   8.015   4.019   0.786
10844WAT     H232775   7.857   4.058   0.800
10845WAT      O32776   5.249   7.062   6.809
10845WAT     H132777   5.303   7.040   6.728
10845WAT     H232778   5.155   7.084   6.782
10846WAT      O32779   2.066   0.672   5.108
10846WAT     H132780   2.086   0.586   5.155
10846WAT     H232781   2.105   0.669   5.016
10847WAT      O32782   2.974   4.986   0.238
10847WAT     H132783   2.888   4.986   0.188
10847WAT     H232784   3.050   4.987   0.173
10848WAT      O32785   9.350   5.304   3.744
10848WAT     H132786   9.425   5.311   3.678
10848WAT     H232787   9.287   5.232   3.714
10849WAT      O32788   2.614   8.465   5.276
10849WAT     H132789   2.630   8.529   5.352
10849WAT     H232790   2.616   8.515   5.189
10850WAT      O32791   0.616   2.382   7.601
10850WAT     H132792   0.645   2.398   7.507
10850WAT     H232793   0.696   2.383   7.661
10851WAT      O32794   0.836   9.729   9.583
10851WAT     H132795   0.780   9.675   9.646
10851WAT     H232796   0.778   9.782   9.522
10852WAT      O32797   8.164   4.685   2.022
10852WAT     H132798   8.181   4.774   2.064
10852WAT     H232799   8.094   4.694   1.951
10853WAT      O32800   9.277   7.877   8.339
10853WAT     H132801   9.316   7.789   8.363
10853WAT     H232802   9.299   7.899   8.244
10854WAT      O32803   3.465   3.663   9.747
10854WAT     H132804   3.489   3.752   9.709
10854WAT     H232805   3.410   3.612   9.681
10855WAT      O32806   9.001   9.022   5.744
10855WAT     H132807   8.924   9.085   5.740
10855WAT     H232808   9.048   9.022   5.656
10856WAT      O32809   4.993   9.642   9.207
10856WAT     H132810   4.903   9.685   9.212
10856WAT     H232811   5.000   9.569   9.274
10857WAT      O32812   5.535   8.736   4.046
10857WAT     H132813   5.459   8.670   4.043
10857WAT     H232814   5.533   8.784   4.133
10858WAT      O32815   4.298   0.933   3.029
10858WAT     H132816   4.362   0.991   3.080
10858WAT     H232817   4.241   0.989   2.970
10859WAT      O32818   0.420   3.696   5.268
10859WAT     H132819   0.462   3.729   5.184
10859WAT     H232820   0.443   3.599   5.280
10860WAT      O32821   4.075   5.905   3.250
10860WAT     H132822   4.142   5.971   3.217
10860WAT     H232823   3.991   5.913   3.197
10861WAT      O32824   2.235   7.816   5.318
10861WAT     H132825   2.137   7.834   5.314
10861WAT     H232826   2.268   7.791   5.227
10862WAT      O32827   0.069   2.459   0.909
10862WAT     H132828   0.088   2.555   0.891
10862WAT     H232829  -0.009   2.429   0.854
10863WAT      O32830   4.033   3.406   9.088
10863WAT     H132831   4.073   3.465   9.018
10863WAT     H232832   3.979   3.462   9.152
10864WAT      O32833   1.266   8.118   4.764
10864WAT     H132834   1.219   8.095   4.678
10864WAT     H232835   1.357   8.076   4.764
10865WAT      O32836   8.629   2.478   2.619
10865WAT     H132837   8.534   2.489   2.649
10865WAT     H232838   8.668   2.397   2.662
10866WAT      O32839   5.580   6.281   7.076
10866WAT     H132840   5.518   6.241   7.143
10866WAT     H232841   5.565   6.380   7.071
10867WAT      O32842   1.454   5.189   8.505
10867WAT     H132843   1.525   5.150   8.564
10867WAT     H232844   1.426   5.121   8.437
10868WAT      O32845   7.574   5.432   5.216
10868WAT     H132846   7.670   5.435   5.242
10868WAT     H232847   7.557   5.500   5.144
10869WAT      O32848   2.663   8.932   8.815
10869WAT     H132849   2.675   8.947   8.717
10869WAT     H232850   2.631   9.016   8.858
10870WAT      O32851   7.299   5.540   9.839
10870WAT     H132852   7.362   5.523   9.914
10870WAT     H232853   7.230   5.468   9.836
10871WAT      O32854   7.690   1.008   9.402
10871WAT     H132855   7.647   1.063   9.474
10871WAT     H232856   7.744   1.068   9.342
10872WAT      O32857   8.412   7.862   3.012
10872WAT     H132858   8.392   7.835   3.107
10872WAT     H232859   8.389   7.786   2.951
10873WAT      O32860   4.539   4.828   9.127
10873WAT     H132861   4.496   4.746   9.165
10873WAT     H232862   4.524   4.829   9.028
10874WAT      O32863   5.504   3.248   5.019
10874WAT     H132864   5.436   3.269   5.089
10874WAT     H232865   5.528   3.331   4.969
10875WAT      O32866   2.877   7.179   0.151
10875WAT     H132867   2.912   7.249   0.214
10875WAT     H232868   2.779   7.167   0.166
10876WAT      O32869   2.112   2.401   7.353
10876WAT     H132870   2.144   2.477   7.297
10876WAT     H232871   2.186   2.368   7.410
10877WAT      O32872   0.763   2.017   1.125
10877WAT     H132873   0.756   2.115   1.140
10877WAT     H232874   0.835   1.998   1.058
10878WAT      O32875   1.034   4.579   3.198
10878WAT     H132876   0.999   4.672   3.212
10878WAT     H232877   1.109   4.562   3.262
10879WAT      O32878   2.507   0.301   8.419
10879WAT     H132879   2.429   0.359   8.445
10879WAT     H232880   2.541   0.328   8.329
10880WAT      O32881   8.375   1.429   2.331
10880WAT     H132882   8.311   1.453   2.404
10880WAT     H232883   8.425   1.511   2.302
10881WAT      O32884   4.295   5.652   9.752
10881WAT     H132885   4.392   5.630   9.762
10881WAT     H232886   4.247   5.572   9.714
10882WAT      O32887   7.912   6.278   0.060
10882WAT     H132888   7.880   6.343  -0.009
10882WAT     H232889   7.986   6.319   0.112
10883WAT      O32890   8.079   3.842   6.652
10883WAT     H132891   8.003   3.872   6.710
10883WAT     H232892   8.059   3.865   6.557
10884WAT      O32893   6.424   6.429   2.370
10884WAT     H132894   6.373   6.414   2.285
10884WAT     H232895   6.495   6.359   2.379
10885WAT      O32896   8.353   8.954   5.704
10885WAT     H132897   8.399   8.880   5.753
10885WAT     H232898   8.277   8.988   5.760
10886WAT      O32899   4.325   5.348   0.056
10886WAT     H132900   4.239   5.300   0.076
10886WAT     H232901   4.339   5.351  -0.043
10887WAT      O32902   0.976   6.809   9.620
10887WAT     H132903   1.055   6.767   9.576
10887WAT     H232904   0.953   6.894   9.572
10888WAT      O32905   2.904   5.086   2.611
10888WAT     H132906   2.986   5.139   2.587
10888WAT     H232907   2.911   4.994   2.572
10889WAT      O32908   2.247   0.924   4.013
10889WAT     H132909   2.166   0.885   4.057
10889WAT     H232910   2.300   0.976   4.080
10890WAT      O32911   2.341   4.612   3.483
10890WAT     H132912   2.268   4.668   3.523
10890WAT     H232913   2.340   4.521   3.525
10891WAT      O32914   0.666   2.152   9.095
10891WAT     H132915   0.709   2.151   9.004
10891WAT     H232916   0.725   2.105   9.160
10892WAT      O32917   0.105   6.691   1.957
10892WAT     H132918   0.127   6.593   1.951
10892WAT     H232919   0.082   6.715   2.051
10893WAT      O32920   3.969   5.501   3.093
10893WAT     H132921   3.933   5.532   3.180
10893WAT     H232922   3.957   5.572   3.024
10894WAT      O32923   1.782   8.783   4.747
10894WAT     H132924   1.754   8.690   4.773
10894WAT     H232925   1.709   8.826   4.695
10895WAT      O32926   2.811   2.377   1.595
10895WAT     H132927   2.873   2.420   1.660
10895WAT     H232928   2.840   2.397   1.501
10896WAT      O32929   4.025   4.689   6.250
10896WAT     H132930   4.069   4.631   6.320
10896WAT     H232931   4.088   4.703   6.174
10897WAT      O32932   6.268   4.084   3.618
10897WAT     H132933   6.227   4.019   3.554
10897WAT     H232934   6.220   4.080   3.706
10898WAT      O32935   3.977   1.083   8.562
10898WAT     H132936   3.939   1.110   8.473
10898WAT     H232937   3.977   0.984   8.569
10899WAT      O32938   7.189   5.223   7.525
10899WAT     H132939   7.266   5.223   7.589
10899WAT     H232940   7.212   5.280   7.446
10900WAT      O32941   6.964   9.164   0.965
10900WAT     H132942   7.010   9.118   1.042
10900WAT     H232943   6.979   9.111   0.881
10901WAT      O32944   2.684   2.472   9.732
10901WAT     H132945   2.623   2.543   9.766
10901WAT     H232946   2.673   2.389   9.787
10902WAT      O32947   6.290   6.587   6.239
10902WAT     H132948   6.255   6.672   6.280
10902WAT     H232949   6.390   6.589   6.240
10903WAT      O32950   2.059   1.973   7.956
10903WAT     H132951   2.023   2.066   7.969
10903WAT     H232952   2.032   1.940   7.865
10904WAT      O32953   2.056   6.280   0.336
10904WAT     H132954   1.963   6.297   0.369
10904WAT     H232955   2.112   6.362   0.348
10905WAT      O32956   2.465   6.641   6.819
10905WAT     H132957   2.513   6.725   6.847
10905WAT     H232958   2.367   6.656   6.825
10906WAT      O32959   8.702   1.963   5.896
10906WAT     H132960   8.672   1.949   5.802
10906WAT     H232961   8.625   1.992   5.952
10907WAT      O32962   6.885   6.383   9.823
10907WAT     H132963   6.842   6.417   9.907
10907WAT     H232964   6.891   6.456   9.756
10908WAT      O32965   8.089   8.005   8.551
10908WAT     H132966   8.181   8.024   8.586
10908WAT     H232967   8.046   8.090   8.521
10909WAT      O32968   1.011   1.587   3.891
10909WAT     H132969   0.941   1.644   3.848
10909WAT     H232970   0.968   1.504   3.927
10910WAT      O32971   8.966   4.439   0.619
10910WAT     H132972   8.880   4.451   0.671
10910WAT     H232973   8.967   4.347   0.579
10911WAT      O32974   5.151   4.382   7.861
10911WAT     H132975   5.157   4.290   7.823
10911WAT     H232976   5.158   4.449   7.787
10912WAT      O32977   2.075   1.255   5.936
10912WAT     H132978   2.067   1.162   5.900
10912WAT     H232979   1.991   1.306   5.916
10913WAT      O32980   3.699   7.883   3.641
10913WAT     H132981   3.684   7.871   3.739
10913WAT     H232982   3.627   7.836   3.590
10914WAT      O32983   5.936   5.969   7.018
10914WAT     H132984   5.904   6.060   7.045
10914WAT     H232985   5.981   5.975   6.929
10915WAT      O32986   5.235   0.324   2.834
10915WAT     H132987   5.187   0.409   2.855
10915WAT     H232988   5.247   0.271   2.918
10916WAT      O32989   0.549   8.409   0.010
10916WAT     H132990   0.544   8.351  -0.071
10916WAT     H232991   0.600   8.492  -0.011
10917WAT      O32992   1.227   5.163   5.330
10917WAT     H132993   1.245   5.172   5.232
10917WAT     H232994   1.129   5.171   5.347
10918WAT      O32995   3.919   9.577   0.423
10918WAT     H132996   3.875   9.593   0.511
10918WAT     H232997   3.874   9.502   0.376
10919WAT      O32998   1.961   4.148   5.833
10919WAT     H132999   2.018   4.178   5.909
10919WAT     H233000   2.005   4.071   5.787
10920WAT      O33001   7.914   4.771   5.092
10920WAT     H133002   7.965   4.850   5.057
10920WAT     H233003   7.873   4.793   5.180
10921WAT      O33004   0.422   1.739   2.968
10921WAT     H133005   0.467   1.828   2.967
10921WAT     H233006   0.457   1.686   3.046
10922WAT      O33007   8.537   7.877   7.306
10922WAT     H133008   8.584   7.809   7.249
10922WAT     H233009   8.562   7.864   7.402
10923WAT      O33010   0.130   9.133   0.175
10923WAT     H133011   0.137   9.223   0.130
10923WAT     H233012   0.167   9.139   0.267
10924WAT      O33013   7.205   0.818   6.164
10924WAT     H133014   7.301   0.792   6.158
10924WAT     H233015   7.156   0.750   6.219
10925WAT      O33016   4.444   1.179   5.564
10925WAT     H133017   4.525   1.162   5.508
10925WAT     H233018   4.387   1.097   5.567
10926WAT      O33019   9.444   7.665   5.088
10926WAT     H133020   9.543   7.649   5.086
10926WAT     H233021   9.424   7.754   5.048
10927WAT      O33022   1.659   2.657   4.838
10927WAT     H133023   1.654   2.708   4.923
10927WAT     H233024   1.659   2.559   4.857
10928WAT      O33025   4.794   2.478   1.445
10928WAT     H133026   4.782   2.577   1.442
10928WAT     H233027   4.840   2.447   1.362
10929WAT      O33028   7.898   3.804   0.076
10929WAT     H133029   7.806   3.795   0.114
10929WAT     H233030   7.942   3.714   0.074
10930WAT      O33031   2.561   7.374   2.298
10930WAT     H133032   2.605   7.309   2.237
10930WAT     H233033   2.598   7.465   2.282
10931WAT      O33034   9.472   4.112   2.205
10931WAT     H133035   9.528   4.182   2.161
10931WAT     H233036   9.471   4.029   2.149
10932WAT      O33037   5.331   7.359   6.552
10932WAT     H133038   5.265   7.320   6.487
10932WAT     H233039   5.389   7.426   6.505
10933WAT      O33040   2.940   0.647   5.739
10933WAT     H133041   2.969   0.598   5.657
10933WAT     H233042   3.009   0.635   5.811
10934WAT      O33043   9.817   0.954   5.195
10934WAT     H133044   9.813   0.862   5.232
10934WAT     H233045   9.871   0.954   5.111
10935WAT      O33046   8.723   4.798   0.361
10935WAT     H133047   8.634   4.752   0.351
10935WAT     H233048   8.709   4.897   0.356
10936WAT      O33049   2.161   3.446   8.138
10936WAT     H133050   2.239   3.408   8.089
10936WAT     H233051   2.092   3.375   8.152
10937WAT      O33052   6.484   6.196   7.698
10937WAT     H133053   6.438   6.156   7.619
10937WAT     H233054   6.507   6.124   7.764
10938WAT      O33055   3.783   5.536   2.064
10938WAT     H133056   3.731   5.613   2.102
10938WAT     H233057   3.739   5.505   1.980
10939WAT      O33058   6.025   6.817   5.888
10939WAT     H133059   6.123   6.835   5.885
10939WAT     H233060   6.010   6.718   5.892
10940WAT      O33061   6.402   8.320   4.123
10940WAT     H133062   6.320   8.312   4.180
10940WAT     H233063   6.419   8.416   4.102
10941WAT      O33064   6.959   4.542   9.438
10941WAT     H133065   7.026   4.467   9.441
10941WAT     H233066   7.004   4.626   9.409
10942WAT      O33067   1.085   3.613   3.418
10942WAT     H133068   1.043   3.703   3.404
10942WAT     H233069   1.116   3.577   3.331
10943WAT      O33070   1.375   9.009   4.118
10943WAT     H133071   1.339   9.102   4.111
10943WAT     H233072   1.304   8.943   4.094
10944WAT      O33073   6.234   7.507   7.031
10944WAT     H133074   6.265   7.596   7.063
10944WAT     H233075   6.291   7.435   7.072
10945WAT      O33076   3.735   5.283   3.226
10945WAT     H133077   3.669   5.328   3.166
10945WAT     H233078   3.788   5.353   3.275
10946WAT      O33079   7.576   7.443   1.013
10946WAT     H133080   7.640   7.398   0.951
10946WAT     H233081   7.587   7.542   1.006
10947WAT      O33082   0.600   1.237   8.781
10947WAT     H133083   0.559   1.167   8.839
10947WAT     H233084   0.551   1.243   8.694
10948WAT      O33085   8.390   6.649   7.188
10948WAT     H133086   8.449   6.582   7.234
10948WAT     H233087   8.371   6.618   7.094
10949WAT      O33088   9.802   7.550   2.408
10949WAT     H133089   9.864   7.514   2.478
10949WAT     H233090   9.837   7.527   2.317
10950WAT      O33091   1.425   0.893   5.793
10950WAT     H133092   1.372   0.876   5.876
10950WAT     H233093   1.420   0.990   5.769
10951WAT      O33094   1.839   3.069   9.511
10951WAT     H133095   1.902   3.078   9.434
10951WAT     H233096   1.787   3.154   9.522
10952WAT      O33097   9.865   5.813   9.260
10952WAT     H133098   9.871   5.832   9.358
10952WAT     H233099   9.777   5.771   9.239
10953WAT      O33100   4.143   9.168   2.544
10953WAT     H133101   4.197   9.131   2.468
10953WAT     H233102   4.092   9.248   2.513
10954WAT      O33103   1.078   1.394   0.783
10954WAT     H133104   1.063   1.449   0.865
10954WAT     H233105   0.993   1.389   0.730
10955WAT      O33106   8.133   8.900   8.645
10955WAT     H133107   8.158   8.857   8.732
10955WAT     H233108   8.103   8.994   8.662
10956WAT      O33109   9.723   8.845   9.385
10956WAT     H133110   9.764   8.859   9.475
10956WAT     H233111   9.744   8.924   9.326
10957WAT      O33112   7.404   5.032   4.982
10957WAT     H133113   7.458   5.064   5.060
10957WAT     H233114   7.372   5.111   4.930
10958WAT      O33115   3.135   3.052   0.909
10958WAT     H133116   3.131   2.952   0.902
10958WAT     H233117   3.049   3.091   0.878
10959WAT      O33118   3.985   8.853   2.284
10959WAT     H133119   3.959   8.853   2.188
10959WAT     H233120   3.903   8.843   2.341
10960WAT      O33121   9.748   8.567   1.374
10960WAT     H133122   9.771   8.543   1.469
10960WAT     H233123   9.799   8.508   1.312
10961WAT      O33124   1.472   2.043   4.527
10961WAT     H133125   1.452   2.040   4.429
10961WAT     H233126   1.480   1.949   4.562
10962WAT      O33127   4.692   3.076   1.159
10962WAT     H133128   4.769   3.135   1.137
10962WAT     H233129   4.609   3.132   1.167
10963WAT      O33130   2.529   7.361   0.814
10963WAT     H133131   2.522   7.451   0.770
10963WAT     H233132   2.579   7.370   0.900
10964WAT      O33133   4.886   1.130   4.312
10964WAT     H133134   4.801   1.117   4.364
10964WAT     H233135   4.958   1.161   4.374
10965WAT      O33136   1.434   1.304   1.676
10965WAT     H133137   1.354   1.267   1.723
10965WAT     H233138   1.432   1.404   1.680
10966WAT      O33139   3.803   0.948   4.811
10966WAT     H133140   3.726   0.988   4.761
10966WAT     H233141   3.872   0.915   4.746
10967WAT      O33142   7.668   0.505   3.605
10967WAT     H133143   7.752   0.534   3.560
10967WAT     H233144   7.624   0.433   3.551
10968WAT      O33145   8.300   9.755   2.855
10968WAT     H133146   8.284   9.660   2.830
10968WAT     H233147   8.296   9.813   2.774
10969WAT      O33148   1.195   3.962   9.594
10969WAT     H133149   1.105   3.986   9.558
10969WAT     H233150   1.189   3.874   9.642
10970WAT      O33151   8.106   2.967   9.439
10970WAT     H133152   8.012   2.937   9.422
10970WAT     H233153   8.131   3.036   9.371
10971WAT      O33154   7.005   3.444   8.766
10971WAT     H133155   7.028   3.539   8.788
10971WAT     H233156   7.082   3.402   8.718
10972WAT      O33157   3.454   8.578   3.322
10972WAT     H133158   3.515   8.520   3.376
10972WAT     H233159   3.509   8.636   3.262
10973WAT      O33160   0.711   7.314   4.547
10973WAT     H133161   0.667   7.248   4.608
10973WAT     H233162   0.665   7.403   4.556
10974WAT      O33163   3.642   3.637   7.898
10974WAT     H133164   3.666   3.541   7.882
10974WAT     H233165   3.684   3.668   7.984
10975WAT      O33166   1.301   9.591   9.125
10975WAT     H133167   1.251   9.635   9.200
10975WAT     H233168   1.381   9.543   9.161
10976WAT      O33169   6.688   3.782   4.635
10976WAT     H133170   6.716   3.870   4.672
10976WAT     H233171   6.626   3.736   4.699
10977WAT      O33172   5.609   0.938   3.543
10977WAT     H133173   5.594   1.034   3.566
10977WAT     H233174   5.634   0.887   3.626
10978WAT      O33175   2.577   0.320   5.927
10978WAT     H133176   2.538   0.398   5.977
10978WAT     H233177   2.625   0.352   5.846
10979WAT      O33178   7.168   8.507   1.397
10979WAT     H133179   7.109   8.542   1.324
10979WAT     H233180   7.116   8.445   1.455
10980WAT      O33181   6.077   8.274   2.819
10980WAT     H133182   6.027   8.233   2.895
10980WAT     H233183   6.175   8.275   2.840
10981WAT      O33184   5.822   6.065   5.071
10981WAT     H133185   5.913   6.078   5.108
10981WAT     H233186   5.827   6.010   4.987
10982WAT      O33187   5.146   2.905   0.584
10982WAT     H133188   5.229   2.891   0.638
10982WAT     H233189   5.128   3.003   0.576
10983WAT      O33190   3.309   9.322   4.712
10983WAT     H133191   3.362   9.395   4.756
10983WAT     H233192   3.293   9.249   4.779
10984WAT      O33193   1.705   7.653   0.519
10984WAT     H133194   1.696   7.751   0.502
10984WAT     H233195   1.769   7.638   0.595
10985WAT      O33196   2.119   4.348   4.882
10985WAT     H133197   2.193   4.377   4.942
10985WAT     H233198   2.155   4.333   4.790
10986WAT      O33199   1.739   6.739   7.522
10986WAT     H133200   1.779   6.781   7.604
10986WAT     H233201   1.808   6.685   7.475
10987WAT      O33202   1.229   8.233   3.518
10987WAT     H133203   1.288   8.286   3.579
10987WAT     H233204   1.134   8.260   3.532
10988WAT      O33205   1.730   0.447   3.118
10988WAT     H133206   1.697   0.417   3.028
10988WAT     H233207   1.778   0.371   3.162
10989WAT      O33208   1.792   2.541   2.715
10989WAT     H133209   1.822   2.527   2.620
10989WAT     H233210   1.867   2.519   2.777
10990WAT      O33211   5.460   1.460   9.813
10990WAT     H133212   5.509   1.545   9.832
10990WAT     H233213   5.516   1.402   9.754
10991WAT      O33214   2.342   8.958   5.877
10991WAT     H133215   2.338   8.912   5.965
10991WAT     H233216   2.256   8.945   5.828
10992WAT      O33217   2.660   3.850   9.496
10992WAT     H133218   2.612   3.763   9.485
10992WAT     H233219   2.741   3.836   9.553
10993WAT      O33220   3.085   6.449   5.023
10993WAT     H133221   3.061   6.481   4.931
10993WAT     H233222   3.087   6.349   5.024
10994WAT      O33223   4.118   4.511   8.446
10994WAT     H133224   4.136   4.587   8.384
10994WAT     H233225   4.181   4.436   8.426
10995WAT      O33226   4.262   5.736   3.183
10995WAT     H133227   4.335   5.752   3.249
10995WAT     H233228   4.180   5.786   3.212
10996WAT      O33229   8.324   5.635   3.362
10996WAT     H133230   8.234   5.617   3.321
10996WAT     H233231   8.394   5.625   3.291
10997WAT      O33232   9.500   8.507   1.460
10997WAT     H133233   9.578   8.549   1.412
10997WAT     H233234   9.415   8.550   1.429
10998WAT      O33235   4.477   0.009   8.145
10998WAT     H133236   4.547  -0.034   8.202
10998WAT     H233237   4.494  -0.011   8.049
10999WAT      O33238   2.246   4.068   6.219
10999WAT     H133239   2.197   4.035   6.299
10999WAT     H233240   2.322   4.007   6.198
11000WAT      O33241   4.793   3.914   3.962
11000WAT     H133242   4.848   3.836   3.993
11000WAT     H233243   4.847   3.971   3.900
11001WAT      O33244   3.996   3.074   5.730
11001WAT     H133245   3.996   3.029   5.641
11001WAT     H233246   4.089   3.071   5.769
11002WAT      O33247   5.088   8.373   6.295
11002WAT     H133248   4.995   8.407   6.311
11002WAT     H233249   5.132   8.429   6.225
11003WAT      O33250   8.219   8.170   3.928
11003WAT     H133251   8.290   8.237   3.909
11003WAT     H233252   8.215   8.153   4.027
11004WAT      O33253   5.614   9.396   4.590
11004WAT     H133254   5.579   9.322   4.647
11004WAT     H233255   5.651   9.468   4.648
11005WAT      O33256   8.590   9.594   8.852
11005WAT     H133257   8.511   9.620   8.796
11005WAT     H233258   8.674   9.620   8.805
11006WAT      O33259   6.389   6.449   0.391
11006WAT     H133260   6.359   6.355   0.408
11006WAT     H233261   6.488   6.451   0.375
11007WAT      O33262   0.625   7.706   8.320
11007WAT     H133263   0.681   7.639   8.273
11007WAT     H233264   0.684   7.768   8.372
11008WAT      O33265   7.329   9.428   9.657
11008WAT     H133266   7.360   9.470   9.742
11008WAT     H233267   7.250   9.478   9.621
11009WAT      O33268   0.157   8.175   1.699
11009WAT     H133269   0.222   8.106   1.666
11009WAT     H233270   0.160   8.178   1.799
11010WAT      O33271   1.210   7.491   5.041
11010WAT     H133272   1.113   7.466   5.035
11010WAT     H233273   1.218   7.591   5.043
11011WAT      O33274   7.487   4.468   8.921
11011WAT     H133275   7.569   4.449   8.974
11011WAT     H233276   7.501   4.548   8.864
11012WAT      O33277   3.486   2.530   5.218
11012WAT     H133278   3.478   2.433   5.241
11012WAT     H233279   3.581   2.553   5.198
11013WAT      O33280   8.798   8.031   2.630
11013WAT     H133281   8.779   8.109   2.690
11013WAT     H233282   8.804   7.948   2.684
11014WAT      O33283   1.277   2.916   7.226
11014WAT     H133284   1.322   2.970   7.156
11014WAT     H233285   1.181   2.903   7.203
11015WAT      O33286   5.196   9.821   8.270
11015WAT     H133287   5.118   9.866   8.313
11015WAT     H233288   5.167   9.781   8.183
11016WAT      O33289   0.499   4.292   2.595
11016WAT     H133290   0.459   4.284   2.504
11016WAT     H233291   0.508   4.200   2.635
11017WAT      O33292   0.745   7.455   8.151
11017WAT     H133293   0.654   7.437   8.113
11017WAT     H233294   0.794   7.518   8.090
11018WAT      O33295   9.200   3.085   6.030
11018WAT     H133296   9.199   2.987   6.008
11018WAT     H233297   9.106   3.117   6.041
11019WAT      O33298   3.783   8.442   9.786
11019WAT     H133299   3.882   8.437   9.778
11019WAT     H233300   3.742   8.454   9.696
11020WAT      O33301   1.705   3.059   2.026
11020WAT     H133302   1.677   3.144   1.981
11020WAT     H233303   1.625   3.000   2.037
11021WAT      O33304   5.072   6.895   0.316
11021WAT     H133305   5.023   6.956   0.378
11021WAT     H233306   5.020   6.811   0.304
11022WAT      O33307   3.876   7.108   3.250
11022WAT     H133308   3.954   7.167   3.273
11022WAT     H233309   3.832   7.142   3.167
11023WAT      O33310   9.368   6.404   9.192
11023WAT     H133311   9.348   6.494   9.230
11023WAT     H233312   9.343   6.402   9.095
11024WAT      O33313   1.055   2.353   3.623
11024WAT     H133314   1.045   2.378   3.719
11024WAT     H233315   1.151   2.333   3.603
11025WAT      O33316   8.699   8.014   4.548
11025WAT     H133317   8.663   7.969   4.630
11025WAT     H233318   8.640   8.092   4.525
11026WAT      O33319   6.051   1.630   0.303
11026WAT     H133320   6.036   1.556   0.368
11026WAT     H233321   6.144   1.624   0.266
11027WAT      O33322   2.347   5.598   7.087
11027WAT     H133323   2.373   5.677   7.033
11027WAT     H233324   2.262   5.617   7.136
11028WAT      O33325   7.085   7.957   1.338
11028WAT     H133326   7.099   8.046   1.295
11028WAT     H233327   7.171   7.924   1.375
11029WAT      O33328   0.066   8.443   8.642
11029WAT     H133329  -0.010   8.421   8.703
11029WAT     H233330   0.070   8.542   8.629
11030WAT      O33331   4.142   2.155   0.442
11030WAT     H133332   4.146   2.191   0.349
11030WAT     H233333   4.166   2.228   0.506
11031WAT      O33334   6.774   3.709   1.102
11031WAT     H133335   6.850   3.651   1.071
11031WAT     H233336   6.694   3.693   1.045
11032WAT      O33337   1.151   9.522   4.962
11032WAT     H133338   1.085   9.455   4.928
11032WAT     H233339   1.180   9.496   5.054
11033WAT      O33340   6.932   1.976   8.922
11033WAT     H133341   7.000   1.907   8.896
11033WAT     H233342   6.969   2.067   8.901
11034WAT      O33343   7.850   3.589   5.820
11034WAT     H133344   7.922   3.549   5.763
11034WAT     H233345   7.767   3.535   5.811
11035WAT      O33346   3.365   3.226   4.214
11035WAT     H133347   3.331   3.319   4.210
11035WAT     H233348   3.294   3.165   4.249
11036WAT      O33349   0.359   2.027   8.578
11036WAT     H133350   0.337   2.100   8.643
11036WAT     H233351   0.274   1.985   8.545
11037WAT      O33352   5.072   0.589   3.683
11037WAT     H133353   5.009   0.533   3.629
11037WAT     H233354   5.026   0.673   3.711
11038WAT      O33355   7.091   6.999   2.153
11038WAT     H133356   7.069   6.902   2.169
11038WAT     H233357   7.188   7.008   2.133
11039WAT      O33358   5.356   3.766   7.931
11039WAT     H133359   5.292   3.842   7.922
11039WAT     H233360   5.344   3.724   8.021
11040WAT      O33361   4.545   0.770   0.858
11040WAT     H133362   4.592   0.682   0.858
11040WAT     H233363   4.509   0.788   0.949
11041WAT      O33364   7.081   7.189   9.635
11041WAT     H133365   7.098   7.270   9.691
11041WAT     H233366   7.052   7.218   9.544
11042WAT      O33367   7.069   3.975   0.225
11042WAT     H133368   7.048   3.881   0.201
11042WAT     H233369   7.146   4.007   0.169
11043WAT      O33370   9.117   6.415   3.444
11043WAT     H133371   9.155   6.503   3.472
11043WAT     H233372   9.189   6.359   3.403
11044WAT      O33373   2.804   6.860   0.476
11044WAT     H133374   2.880   6.909   0.432
11044WAT     H233375   2.720   6.912   0.464
11045WAT      O33376   8.923   5.512   5.614
11045WAT     H133377   8.837   5.546   5.652
11045WAT     H233378   8.990   5.587   5.610
11046WAT      O33379   5.091   8.923   3.781
11046WAT     H133380   5.002   8.904   3.822
11046WAT     H233381   5.109   9.021   3.784
11047WAT      O33382   3.888   7.485   5.438
11047WAT     H133383   3.795   7.505   5.468
11047WAT     H233384   3.931   7.569   5.405
11048WAT      O33385   8.511   2.686   5.411
11048WAT     H133386   8.473   2.660   5.500
11048WAT     H233387   8.522   2.605   5.354
11049WAT      O33388   6.293   6.980   9.576
11049WAT     H133389   6.340   6.918   9.514
11049WAT     H233390   6.308   7.075   9.547
11050WAT      O33391   8.824   7.048   0.216
11050WAT     H133392   8.923   7.059   0.207
11050WAT     H233393   8.802   7.018   0.309
11051WAT      O33394   2.642   1.584   7.215
11051WAT     H133395   2.737   1.576   7.187
11051WAT     H233396   2.586   1.614   7.137
11052WAT      O33397   6.747   9.663   7.028
11052WAT     H133398   6.751   9.579   7.083
11052WAT     H233399   6.734   9.639   6.931
11053WAT      O33400   7.799   2.120   1.538
11053WAT     H133401   7.708   2.097   1.571
11053WAT     H233402   7.812   2.081   1.447
11054WAT      O33403   3.782   8.103   9.415
11054WAT     H133404   3.788   8.055   9.502
11054WAT     H233405   3.841   8.058   9.348
11055WAT      O33406   7.452   2.101   2.578
11055WAT     H133407   7.456   2.018   2.522
11055WAT     H233408   7.486   2.178   2.525
11056WAT      O33409   5.353   6.264   8.376
11056WAT     H133410   5.323   6.183   8.427
11056WAT     H233411   5.349   6.344   8.435
11057WAT      O33412   4.966   7.579   9.501
11057WAT     H133413   4.908   7.620   9.571
11057WAT     H233414   5.006   7.494   9.536
11058WAT      O33415   2.474   8.269   5.402
11058WAT     H133416   2.423   8.221   5.330
11058WAT     H233417   2.518   8.349   5.363
11059WAT      O33418   9.422   4.345   0.573
11059WAT     H133419   9.458   4.414   0.509
11059WAT     H233420   9.419   4.384   0.665
11060WAT      O33421   9.311   6.777   7.241
11060WAT     H133422   9.292   6.848   7.309
11060WAT     H233423   9.229   6.724   7.224
11061WAT      O33424   9.850   2.627   4.551
11061WAT     H133425   9.928   2.663   4.601
11061WAT     H233426   9.773   2.614   4.613
11062WAT      O33427   6.715   8.230   0.505
11062WAT     H133428   6.769   8.310   0.531
11062WAT     H233429   6.776   8.159   0.469
11063WAT      O33430   5.856   1.298   5.669
11063WAT     H133431   5.876   1.392   5.639
11063WAT     H233432   5.783   1.260   5.613
11064WAT      O33433   0.691   8.102   0.509
11064WAT     H133434   0.673   8.114   0.607
11064WAT     H233435   0.687   8.005   0.487
11065WAT      O33436   1.715   0.902   6.755
11065WAT     H133437   1.754   0.827   6.701
11065WAT     H233438   1.767   0.986   6.739
11066WAT      O33439   3.769   6.025   0.043
11066WAT     H133440   3.708   6.093   0.083
11066WAT     H233441   3.806   6.060  -0.043
11067WAT      O33442   3.363   2.886   2.401
11067WAT     H133443   3.276   2.920   2.436
11067WAT     H233444   3.422   2.964   2.377
11068WAT      O33445   3.483   7.547   4.766
11068WAT     H133446   3.454   7.638   4.735
11068WAT     H233447   3.581   7.536   4.749
11069WAT      O33448   8.862   9.135   1.482
11069WAT     H133449   8.860   9.098   1.575
11069WAT     H233450   8.957   9.139   1.450
11070WAT      O33451   8.579   7.734   6.463
11070WAT     H133452   8.654   7.795   6.436
11070WAT     H233453   8.583   7.651   6.408
11071WAT      O33454   7.410   5.438   8.852
11071WAT     H133455   7.436   5.528   8.888
11071WAT     H233456   7.421   5.369   8.924
11072WAT      O33457   9.613   0.793   7.945
11072WAT     H133458   9.686   0.859   7.929
11072WAT     H233459   9.617   0.760   8.039
11073WAT      O33460   8.282   8.465   9.208
11073WAT     H133461   8.247   8.377   9.239
11073WAT     H233462   8.221   8.503   9.138
11074WAT      O33463   6.878   0.150   8.574
11074WAT     H133464   6.868   0.160   8.475
11074WAT     H233465   6.863   0.239   8.618
11075WAT      O33466   2.878   2.955   1.657
11075WAT     H133467   2.968   2.997   1.672
11075WAT     H233468   2.873   2.868   1.707
11076WAT      O33469   2.244   7.398   1.224
11076WAT     H133470   2.250   7.343   1.307
11076WAT     H233471   2.183   7.352   1.159
11077WAT      O33472   5.093   1.217   3.599
11077WAT     H133473   5.039   1.194   3.518
11077WAT     H233474   5.183   1.251   3.571
11078WAT      O33475   0.903   5.995   6.187
11078WAT     H133476   0.851   6.004   6.272
11078WAT     H233477   0.983   6.055   6.190
11079WAT      O33478   9.139   2.397   0.654
11079WAT     H133479   9.050   2.410   0.696
11079WAT     H233480   9.151   2.301   0.630
11080WAT      O33481   1.201   4.656   9.191
11080WAT     H133482   1.266   4.670   9.266
11080WAT     H233483   1.108   4.658   9.226
11081WAT      O33484   3.887   9.118   0.232
11081WAT     H133485   3.941   9.034   0.241
11081WAT     H233486   3.896   9.154   0.140
11082WAT      O33487   0.230   2.912   3.641
11082WAT     H133488   0.153   2.886   3.699
11082WAT     H233489   0.200   2.914   3.546
11083WAT      O33490   9.629   5.260   0.752
11083WAT     H133491   9.710   5.313   0.730
11083WAT     H233492   9.583   5.232   0.667
11084WAT      O33493   5.311   7.388   7.959
11084WAT     H133494   5.352   7.297   7.953
11084WAT     H233495   5.233   7.386   8.021
11085WAT      O33496   0.834   7.871   2.496
11085WAT     H133497   0.801   7.925   2.573
11085WAT     H233498   0.764   7.805   2.469
11086WAT      O33499   8.802   4.480   8.890
11086WAT     H133500   8.777   4.477   8.987
11086WAT     H233501   8.890   4.434   8.877
11087WAT      O33502   0.464   4.686   6.828
11087WAT     H133503   0.411   4.747   6.769
11087WAT     H233504   0.401   4.641   6.892
11088WAT      O33505   9.363   2.236   1.052
11088WAT     H133506   9.412   2.305   1.106
11088WAT     H233507   9.276   2.215   1.096
11089WAT      O33508   5.317   5.163   8.097
11089WAT     H133509   5.391   5.162   8.030
11089WAT     H233510   5.265   5.077   8.091
11090WAT      O33511   8.655   2.888   7.298
11090WAT     H133512   8.644   2.910   7.201
11090WAT     H233513   8.749   2.905   7.326
11091WAT      O33514   9.683   8.574   5.400
11091WAT     H133515   9.680   8.580   5.500
11091WAT     H233516   9.779   8.569   5.370
11092WAT      O33517   7.664   6.252   6.842
11092WAT     H133518   7.656   6.295   6.931
11092WAT     H233519   7.648   6.319   6.770
11093WAT      O33520   1.678   2.227   8.143
11093WAT     H133521   1.624   2.300   8.101
11093WAT     H233522   1.759   2.209   8.088
11094WAT      O33523   0.398   7.055   5.239
11094WAT     H133524   0.373   7.029   5.146
11094WAT     H233525   0.324   7.030   5.301
11095WAT      O33526   4.816   5.320   9.342
11095WAT     H133527   4.862   5.251   9.397
11095WAT     H233528   4.837   5.411   9.377
11096WAT      O33529   8.098   8.699   4.384
11096WAT     H133530   8.019   8.756   4.361
11096WAT     H233531   8.069   8.605   4.398
11097WAT      O33532   0.714   0.312   9.882
11097WAT     H133533   0.750   0.249   9.813
11097WAT     H233534   0.775   0.391   9.888
11098WAT      O33535   0.597   2.815   9.607
11098WAT     H133536   0.664   2.839   9.538
11098WAT     H233537   0.534   2.746   9.571
11099WAT      O33538   4.376   3.316   4.256
11099WAT     H133539   4.345   3.223   4.235
11099WAT     H233540   4.463   3.333   4.209
11100WAT      O33541   6.737   5.755   0.966
11100WAT     H133542   6.794   5.702   0.903
11100WAT     H233543   6.671   5.809   0.914
11101WAT      O33544   9.730   7.580   8.581
11101WAT     H133545   9.721   7.502   8.644
11101WAT     H233546   9.666   7.651   8.608
11102WAT      O33547   8.702   9.754   2.572
11102WAT     H133548   8.724   9.734   2.667
11102WAT     H233549   8.785   9.778   2.522
11103WAT      O33550   0.819   9.179   8.020
11103WAT     H133551   0.727   9.218   8.021
11103WAT     H233552   0.885   9.249   8.045
11104WAT      O33553   8.713   7.612   2.949
11104WAT     H133554   8.679   7.615   3.043
11104WAT     H233555   8.753   7.522   2.931
11105WAT      O33556   5.960   3.060   6.045
11105WAT     H133557   5.876   3.113   6.037
11105WAT     H233558   5.940   2.970   6.083
11106WAT      O33559   9.824   7.182   2.669
11106WAT     H133560   9.873   7.270   2.671
11106WAT     H233561   9.745   7.186   2.731
11107WAT      O33562   6.530   3.480   9.788
11107WAT     H133563   6.533   3.400   9.848
11107WAT     H233564   6.532   3.451   9.693
11108WAT      O33565   6.075   9.769   0.424
11108WAT     H133566   6.123   9.707   0.486
11108WAT     H233567   6.091   9.863   0.451
11109WAT      O33568   1.760   4.163   8.691
11109WAT     H133569   1.839   4.209   8.732
11109WAT     H233570   1.777   4.064   8.689
11110WAT      O33571   6.452   9.517   7.071
11110WAT     H133572   6.431   9.591   7.135
11110WAT     H233573   6.419   9.540   6.980
11111WAT      O33574   7.275   6.737   9.370
11111WAT     H133575   7.296   6.740   9.272
11111WAT     H233576   7.317   6.816   9.415
11112WAT      O33577   2.020   8.910   0.712
11112WAT     H133578   2.033   8.820   0.670
11112WAT     H233579   1.933   8.910   0.762
11113WAT      O33580   4.766   0.995   0.220
11113WAT     H133581   4.846   1.041   0.182
11113WAT     H233582   4.781   0.896   0.219
11114WAT      O33583   8.377   9.598   0.888
11114WAT     H133584   8.370   9.503   0.920
11114WAT     H233585   8.454   9.606   0.825
11115WAT      O33586   0.995   4.337   8.787
11115WAT     H133587   1.085   4.314   8.824
11115WAT     H233588   0.966   4.265   8.723
11116WAT      O33589   9.503   3.686   1.778
11116WAT     H133590   9.575   3.738   1.824
11116WAT     H233591   9.478   3.732   1.692
11117WAT      O33592   4.963   2.340   4.367
11117WAT     H133593   5.061   2.339   4.387
11117WAT     H233594   4.948   2.387   4.280
11118WAT      O33595   6.759   5.099   5.384
11118WAT     H133596   6.802   5.147   5.307
11118WAT     H233597   6.793   5.006   5.389
11119WAT      O33598   0.565   1.485   2.196
11119WAT     H133599   0.510   1.505   2.116
11119WAT     H233600   0.652   1.446   2.168
11120WAT      O33601   5.428   2.978   1.677
11120WAT     H133602   5.488   2.920   1.733
11120WAT     H233603   5.344   2.997   1.727
11121WAT      O33604   8.124   8.487   0.845
11121WAT     H133605   8.054   8.439   0.791
11121WAT     H233606   8.176   8.548   0.785
11122WAT      O33607   3.373   4.925   0.983
11122WAT     H133608   3.361   4.833   0.946
11122WAT     H233609   3.293   4.949   1.039
11123WAT      O33610   1.686   2.790   2.741
11123WAT     H133611   1.690   2.815   2.644
11123WAT     H233612   1.741   2.709   2.757
11124WAT      O33613   3.461   7.366   3.724
11124WAT     H133614   3.515   7.442   3.759
11124WAT     H233615   3.371   7.398   3.695
11125WAT      O33616   0.390   2.168   0.166
11125WAT     H133617   0.410   2.216   0.080
11125WAT     H233618   0.425   2.074   0.160
11126WAT      O33619   1.380   0.792   2.746
11126WAT     H133620   1.290   0.762   2.775
11126WAT     H233621   1.371   0.866   2.680
11127WAT      O33622   6.778   2.476   4.147
11127WAT     H133623   6.857   2.528   4.114
11127WAT     H233624   6.756   2.403   4.082
11128WAT      O33625   2.652   9.110   3.843
11128WAT     H133626   2.663   9.207   3.824
11128WAT     H233627   2.690   9.056   3.768
11129WAT      O33628   5.282   6.973   3.015
11129WAT     H133629   5.206   6.936   2.962
11129WAT     H233630   5.368   6.955   2.968
11130WAT      O33631   9.155   5.700   2.279
11130WAT     H133632   9.060   5.710   2.252
11130WAT     H233633   9.160   5.661   2.371
11131WAT      O33634   8.901   5.646   2.194
11131WAT     H133635   8.876   5.711   2.122
11131WAT     H233636   8.819   5.605   2.233
11132WAT      O33637   6.680   2.275   3.977
11132WAT     H133638   6.725   2.234   3.898
11132WAT     H233639   6.623   2.206   4.022
11133WAT      O33640   6.622   3.740   6.171
11133WAT     H133641   6.595   3.685   6.250
11133WAT     H233642   6.685   3.687   6.113
11134WAT      O33643   9.108   0.056   9.611
11134WAT     H133644   9.119   0.151   9.583
11134WAT     H233645   9.049   0.008   9.546
11135WAT      O33646   7.412   6.298   5.490
11135WAT     H133647   7.396   6.220   5.550
11135WAT     H233648   7.461   6.269   5.408
11136WAT      O33649   8.802   6.308   5.788
11136WAT     H133650   8.882   6.251   5.772
11136WAT     H233651   8.798   6.334   5.884
11137WAT      O33652   6.156   2.534   6.385
11137WAT     H133653   6.252   2.530   6.355
11137WAT     H233654   6.103   2.465   6.336
11138WAT      O33655   8.774   2.042   2.375
11138WAT     H133656   8.702   2.087   2.427
11138WAT     H233657   8.761   1.943   2.380
11139WAT      O33658   1.452   5.401   2.217
11139WAT     H133659   1.493   5.459   2.147
11139WAT     H233660   1.355   5.388   2.197
11140WAT      O33661   2.382   0.581   0.763
11140WAT     H133662   2.479   0.601   0.752
11140WAT     H233663   2.347   0.626   0.846
11141WAT      O33664   3.131   7.281   9.751
11141WAT     H133665   3.117   7.185   9.725
11141WAT     H233666   3.207   7.318   9.698
11142WAT      O33667   6.347   2.917   9.490
11142WAT     H133668   6.418   2.955   9.549
11142WAT     H233669   6.259   2.923   9.537
11143WAT      O33670   5.644   6.624   7.934
11143WAT     H133671   5.551   6.598   7.958
11143WAT     H233672   5.704   6.607   8.013
11144WAT      O33673   3.102   6.383   1.833
11144WAT     H133674   3.099   6.348   1.927
11144WAT     H233675   3.013   6.372   1.790
11145WAT      O33676   6.564   0.935   8.211
11145WAT     H133677   6.601   0.993   8.139
11145WAT     H233678   6.483   0.887   8.178
11146WAT      O33679   5.583   0.435   2.042
11146WAT     H133680   5.608   0.353   1.990
11146WAT     H233681   5.523   0.493   1.988
11147WAT      O33682   2.549   8.189   8.262
11147WAT     H133683   2.595   8.157   8.345
11147WAT     H233684   2.607   8.170   8.183
11148WAT      O33685   4.754   9.450   7.084
11148WAT     H133686   4.697   9.375   7.118
11148WAT     H233687   4.831   9.412   7.033
11149WAT      O33688   5.547   0.409   6.950
11149WAT     H133689   5.563   0.314   6.977
11149WAT     H233690   5.483   0.411   6.873
11150WAT      O33691   0.335   9.514   3.272
11150WAT     H133692   0.378   9.565   3.197
11150WAT     H233693   0.278   9.575   3.326
11151WAT      O33694   2.909   6.334   6.710
11151WAT     H133695   2.867   6.407   6.657
11151WAT     H233696   2.952   6.372   6.792
11152WAT      O33697   2.040   2.658   1.758
11152WAT     H133698   2.135   2.687   1.770
11152WAT     H233699   1.979   2.720   1.808
11153WAT      O33700   9.256   8.232   1.493
11153WAT     H133701   9.192   8.253   1.419
11153WAT     H233702   9.275   8.134   1.493
11154WAT      O33703   2.920   9.190   4.215
11154WAT     H133704   2.867   9.159   4.294
11154WAT     H233705   2.906   9.288   4.201
11155WAT      O33706   1.732   6.889   4.098
11155WAT     H133707   1.832   6.891   4.102
11155WAT     H233708   1.701   6.794   4.090
11156WAT      O33709   8.133   6.072   4.334
11156WAT     H133710   8.033   6.074   4.335
11156WAT     H233711   8.166   6.143   4.271
11157WAT      O33712   7.409   3.020   6.382
11157WAT     H133713   7.428   2.943   6.322
11157WAT     H233714   7.377   3.097   6.328
11158WAT      O33715   8.450   2.110   3.371
11158WAT     H133716   8.398   2.028   3.395
11158WAT     H233717   8.487   2.151   3.454
11159WAT      O33718   2.425   1.124   2.821
11159WAT     H133719   2.356   1.060   2.854
11159WAT     H233720   2.382   1.212   2.801
11160WAT      O33721   8.398   6.525   6.943
11160WAT     H133722   8.477   6.530   6.881
11160WAT     H233723   8.318   6.565   6.898
11161WAT      O33724   0.024   8.708   0.117
11161WAT     H133725  -0.071   8.733   0.098
11161WAT     H233726   0.034   8.608   0.112
11162WAT      O33727   1.643   2.784   5.092
11162WAT     H133728   1.731   2.831   5.099
11162WAT     H233729   1.606   2.769   5.184
11163WAT      O33730   5.013   4.831   2.909
11163WAT     H133731   4.959   4.763   2.859
11163WAT     H233732   5.105   4.836   2.869
11164WAT      O33733   8.591   5.748   8.160
11164WAT     H133734   8.660   5.735   8.231
11164WAT     H233735   8.499   5.737   8.199
11165WAT      O33736   9.497   9.815   7.126
11165WAT     H133737   9.502   9.719   7.156
11165WAT     H233738   9.565   9.868   7.176
11166WAT      O33739   1.466   3.980   2.517
11166WAT     H133740   1.545   4.026   2.557
11166WAT     H233741   1.492   3.888   2.489
11167WAT      O33742   8.387   4.608   2.393
11167WAT     H133743   8.414   4.698   2.356
11167WAT     H233744   8.291   4.610   2.419
11168WAT      O33745   3.907   5.293   7.579
11168WAT     H133746   3.813   5.259   7.568
11168WAT     H233747   3.905   5.388   7.609
11169WAT      O33748   1.515   3.725   5.860
11169WAT     H133749   1.442   3.793   5.851
11169WAT     H233750   1.588   3.746   5.795
11170WAT      O33751   0.456   7.262   9.510
11170WAT     H133752   0.515   7.342   9.524
11170WAT     H233753   0.443   7.248   9.412
11171WAT      O33754   9.508   0.517   8.803
11171WAT     H133755   9.467   0.593   8.853
11171WAT     H233756   9.591   0.488   8.849
11172WAT      O33757   6.232   3.840   5.727
11172WAT     H133758   6.209   3.829   5.630
11172WAT     H233759   6.234   3.937   5.750
11173WAT      O33760   4.889   5.694   2.730
11173WAT     H133761   4.810   5.643   2.694
11173WAT     H233762   4.927   5.645   2.809
11174WAT      O33763   6.499   4.753   8.626
11174WAT     H133764   6.583   4.725   8.579
11174WAT     H233765   6.421   4.738   8.565
11175WAT      O33766   6.237   6.074   8.086
11175WAT     H133767   6.235   6.139   8.010
11175WAT     H233768   6.325   6.027   8.088
11176WAT      O33769   0.321   0.103   2.579
11176WAT     H133770   0.334   0.104   2.678
11176WAT     H233771   0.325   0.009   2.545
11177WAT      O33772   7.368   2.533   5.324
11177WAT     H133773   7.346   2.521   5.227
11177WAT     H233774   7.366   2.444   5.369
11178WAT      O33775   5.644   7.015   1.851
11178WAT     H133776   5.677   7.096   1.802
11178WAT     H233777   5.692   7.007   1.938
11179WAT      O33778   3.005   6.250   6.028
11179WAT     H133779   2.982   6.169   6.082
11179WAT     H233780   2.921   6.290   5.991
11180WAT      O33781   4.513   8.849   5.287
11180WAT     H133782   4.441   8.794   5.329
11180WAT     H233783   4.501   8.945   5.312
11181WAT      O33784   3.604   2.046   2.082
11181WAT     H133785   3.630   2.117   2.148
11181WAT     H233786   3.505   2.036   2.080
11182WAT      O33787   0.673   1.159   2.224
11182WAT     H133788   0.727   1.187   2.145
11182WAT     H233789   0.732   1.152   2.304
11183WAT      O33790   2.293   8.284   8.629
11183WAT     H133791   2.265   8.342   8.705
11183WAT     H233792   2.358   8.215   8.663
11184WAT      O33793   8.288   5.744   0.321
11184WAT     H133794   8.279   5.651   0.286
11184WAT     H233795   8.326   5.742   0.413
11185WAT      O33796   5.503   0.503   7.202
11185WAT     H133797   5.600   0.505   7.228
11185WAT     H233798   5.496   0.483   7.105
11186WAT      O33799   2.853   4.847   1.029
11186WAT     H133800   2.871   4.832   0.932
11186WAT     H233801   2.780   4.914   1.040
11187WAT      O33802   5.411   3.235   3.875
11187WAT     H133803   5.333   3.173   3.864
11187WAT     H233804   5.490   3.183   3.908
11188WAT      O33805   8.570   8.471   0.060
11188WAT     H133806   8.493   8.529   0.085
11188WAT     H233807   8.646   8.486   0.124
11189WAT      O33808   8.582   8.461   7.877
11189WAT     H133809   8.520   8.386   7.855
11189WAT     H233810   8.669   8.448   7.830
11190WAT      O33811   7.664   2.966   9.890
11190WAT     H133812   7.617   2.951   9.977
11190WAT     H233813   7.599   2.960   9.815
11191WAT      O33814   3.508   6.466   3.442
11191WAT     H133815   3.515   6.459   3.541
11191WAT     H233816   3.443   6.397   3.408
11192WAT      O33817   7.552   7.702   0.010
11192WAT     H133818   7.523   7.795  -0.015
11192WAT     H233819   7.482   7.660   0.068
11193WAT      O33820   3.395   2.951   6.901
11193WAT     H133821   3.344   2.886   6.957
11193WAT     H233822   3.407   2.914   6.809
11194WAT      O33823   3.856   3.839   6.223
11194WAT     H133824   3.902   3.887   6.148
11194WAT     H233825   3.769   3.802   6.190
11195WAT      O33826   9.791   4.525   1.995
11195WAT     H133827   9.726   4.585   2.043
11195WAT     H233828   9.862   4.495   2.058
11196WAT      O33829   3.593   7.747   1.333
11196WAT     H133830   3.616   7.834   1.377
11196WAT     H233831   3.634   7.744   1.242
11197WAT      O33832   3.134   2.187   8.289
11197WAT     H133833   3.100   2.256   8.354
11197WAT     H233834   3.058   2.150   8.237
11198WAT      O33835   9.439   0.494   4.339
11198WAT     H133836   9.427   0.592   4.325
11198WAT     H233837   9.501   0.457   4.270
11199WAT      O33838   3.094   7.676   3.268
11199WAT     H133839   3.040   7.646   3.346
11199WAT     H233840   3.191   7.653   3.283
11200WAT      O33841   3.322   5.838   0.649
11200WAT     H133842   3.284   5.928   0.626
11200WAT     H233843   3.248   5.777   0.675
11201WAT      O33844   2.726   6.721   0.690
11201WAT     H133845   2.797   6.724   0.760
11201WAT     H233846   2.752   6.777   0.612
11202WAT      O33847   5.135   1.263   7.404
11202WAT     H133848   5.179   1.349   7.431
11202WAT     H233849   5.109   1.212   7.486
11203WAT      O33850   3.570   6.812   3.132
11203WAT     H133851   3.559   6.763   3.219
11203WAT     H233852   3.490   6.797   3.075
11204WAT      O33853   0.109   1.843   8.163
11204WAT     H133854   0.069   1.801   8.081
11204WAT     H233855   0.104   1.777   8.239
11205WAT      O33856   6.409   9.208   0.366
11205WAT     H133857   6.397   9.163   0.278
11205WAT     H233858   6.377   9.147   0.439
11206WAT      O33859   7.068   3.645   0.450
11206WAT     H133860   7.048   3.561   0.501
11206WAT     H233861   7.125   3.705   0.506
11207WAT      O33862   0.096   6.024   0.235
11207WAT     H133863   0.017   6.064   0.281
11207WAT     H233864   0.071   6.000   0.142
11208WAT      O33865   1.526   0.862   4.484
11208WAT     H133866   1.450   0.878   4.547
11208WAT     H233867   1.605   0.914   4.515
11209WAT      O33868   3.738   5.966   6.400
11209WAT     H133869   3.828   5.957   6.441
11209WAT     H233870   3.669   5.974   6.472
11210WAT      O33871   0.261   5.649   7.195
11210WAT     H133872   0.286   5.626   7.289
11210WAT     H233873   0.342   5.683   7.147
11211WAT      O33874   0.680   7.974   4.189
11211WAT     H133875   0.593   8.009   4.223
11211WAT     H233876   0.747   8.048   4.187
11212WAT      O33877   4.646   1.637   0.643
11212WAT     H133878   4.653   1.728   0.601
11212WAT     H233879   4.590   1.578   0.585
11213WAT      O33880   4.170   0.849   3.275
11213WAT     H133881   4.088   0.904   3.258
11213WAT     H233882   4.242   0.876   3.211
11214WAT      O33883   7.259   1.579   5.445
11214WAT     H133884   7.269   1.544   5.538
11214WAT     H233885   7.255   1.503   5.380
11215WAT      O33886   2.136   0.087   6.539
11215WAT     H133887   2.069   0.116   6.471
11215WAT     H233888   2.200   0.162   6.556
11216WAT      O33889   7.575   9.298   4.268
11216WAT     H133890   7.503   9.295   4.198
11216WAT     H233891   7.560   9.377   4.328
11217WAT      O33892   4.032   1.955   3.502
11217WAT     H133893   4.044   2.051   3.524
11217WAT     H233894   4.003   1.905   3.584
11218WAT      O33895  -0.002   5.992   8.497
11218WAT     H133896  -0.049   6.073   8.529
11218WAT     H233897   0.092   5.991   8.532
11219WAT      O33898   7.268   2.372   0.713
11219WAT     H133899   7.226   2.400   0.799
11219WAT     H233900   7.312   2.451   0.670
11220WAT      O33901   5.080   1.058   7.621
11220WAT     H133902   5.056   0.980   7.562
11220WAT     H233903   5.178   1.057   7.638
11221WAT      O33904   3.598   3.444   5.377
11221WAT     H133905   3.556   3.358   5.347
11221WAT     H233906   3.533   3.519   5.366
11222WAT      O33907   7.737   5.929   3.288
11222WAT     H133908   7.677   5.850   3.292
11222WAT     H233909   7.728   5.983   3.372
11223WAT      O33910   8.644   7.171   1.141
11223WAT     H133911   8.678   7.121   1.221
11223WAT     H233912   8.545   7.163   1.136
11224WAT      O33913   2.752   7.408   4.801
11224WAT     H133914   2.718   7.461   4.723
11224WAT     H233915   2.814   7.464   4.855
11225WAT      O33916   3.537   6.592   3.737
11225WAT     H133917   3.500   6.663   3.797
11225WAT     H233918   3.542   6.628   3.644
11226WAT      O33919   7.749   4.406   1.748
11226WAT     H133920   7.701   4.318   1.741
11226WAT     H233921   7.806   4.406   1.830
11227WAT      O33922   0.927   4.837   6.765
11227WAT     H133923   0.838   4.794   6.746
11227WAT     H233924   0.931   4.863   6.862
11228WAT      O33925   5.347   4.104   3.640
11228WAT     H133926   5.294   4.186   3.617
11228WAT     H233927   5.360   4.099   3.739
11229WAT      O33928   0.495   3.543   8.687
11229WAT     H133929   0.458   3.591   8.766
11229WAT     H233930   0.570   3.597   8.648
11230WAT      O33931   7.297   2.572   9.042
11230WAT     H133932   7.321   2.551   8.947
11230WAT     H233933   7.245   2.657   9.046
11231WAT      O33934   9.632   4.059   4.298
11231WAT     H133935   9.624   4.000   4.218
11231WAT     H233936   9.604   4.007   4.380
11232WAT      O33937   2.586   6.469   1.301
11232WAT     H133938   2.617   6.375   1.294
11232WAT     H233939   2.520   6.477   1.377
11233WAT      O33940   8.108   1.264   1.966
11233WAT     H133941   8.145   1.356   1.957
11233WAT     H233942   8.184   1.199   1.977
11234WAT      O33943   0.369   6.514   3.691
11234WAT     H133944   0.445   6.495   3.629
11234WAT     H233945   0.373   6.610   3.721
11235WAT      O33946   9.115   6.378   7.222
11235WAT     H133947   9.135   6.310   7.292
11235WAT     H233948   9.059   6.451   7.260
11236WAT      O33949   6.851   6.790   0.931
11236WAT     H133950   6.883   6.700   0.962
11236WAT     H233951   6.896   6.862   0.983
11237WAT      O33952   2.470   2.413   4.210
11237WAT     H133953   2.527   2.477   4.158
11237WAT     H233954   2.524   2.334   4.238
11238WAT      O33955   7.728   5.183   7.338
11238WAT     H133956   7.659   5.253   7.357
11238WAT     H233957   7.758   5.140   7.423
11239WAT      O33958   4.744   2.299   0.653
11239WAT     H133959   4.674   2.288   0.583
11239WAT     H233960   4.748   2.217   0.710
11240WAT      O33961   3.019   5.655   0.449
11240WAT     H133962   2.942   5.611   0.495
11240WAT     H233963   3.059   5.591   0.383
11241WAT      O33964   6.521   4.420   3.409
11241WAT     H133965   6.551   4.326   3.388
11241WAT     H233966   6.487   4.463   3.326
11242WAT      O33967   1.660   1.606   7.778
11242WAT     H133968   1.646   1.521   7.828
11242WAT     H233969   1.756   1.633   7.783
11243WAT      O33970   5.246   6.879   1.115
11243WAT     H133971   5.217   6.795   1.069
11243WAT     H233972   5.343   6.895   1.097
11244WAT      O33973   4.404   2.151   3.165
11244WAT     H133974   4.373   2.235   3.121
11244WAT     H233975   4.502   2.140   3.150
11245WAT      O33976   2.884   7.057   2.276
11245WAT     H133977   2.824   7.070   2.355
11245WAT     H233978   2.974   7.027   2.307
11246WAT      O33979   3.219   8.195   6.855
11246WAT     H133980   3.263   8.210   6.943
11246WAT     H233981   3.173   8.279   6.826
11247WAT      O33982   3.717   5.515   7.683
11247WAT     H133983   3.718   5.448   7.757
11247WAT     H233984   3.695   5.605   7.720
11248WAT      O33985   5.085   0.328   2.592
11248WAT     H133986   5.140   0.323   2.675
11248WAT     H233987   4.988   0.312   2.615
11249WAT      O33988   1.399   0.065   6.221
11249WAT     H133989   1.435   0.008   6.148
11249WAT     H233990   1.396   0.013   6.306
11250WAT      O33991   1.224   1.572   1.446
11250WAT     H133992   1.132   1.581   1.482
11250WAT     H233993   1.226   1.599   1.350
11251WAT      O33994   9.813   6.826   6.432
11251WAT     H133995   9.840   6.747   6.486
11251WAT     H233996   9.780   6.796   6.342
11252WAT      O33997   3.146   4.203   7.278
11252WAT     H133998   3.227   4.251   7.311
11252WAT     H233999   3.067   4.227   7.335
11253WAT      O34000   0.757   3.966   0.827
11253WAT     H134001   0.755   3.868   0.812
11253WAT     H234002   0.753   4.013   0.738
11254WAT      O34003   5.012   5.294   6.587
11254WAT     H134004   5.109   5.306   6.606
11254WAT     H234005   4.963   5.378   6.608
11255WAT      O34006   7.967   0.675   4.487
11255WAT     H134007   8.028   0.748   4.517
11255WAT     H234008   7.952   0.611   4.562
11256WAT      O34009   2.965   7.273   0.616
11256WAT     H134010   2.964   7.265   0.716
11256WAT     H234011   2.872   7.258   0.581
11257WAT      O34012   2.729   2.021   0.953
11257WAT     H134013   2.783   2.104   0.961
11257WAT     H234014   2.787   1.946   0.920
11258WAT      O34015   7.183   5.219   0.188
11258WAT     H134016   7.120   5.151   0.151
11258WAT     H234017   7.140   5.309   0.185
11259WAT      O34018   5.630   8.817   8.560
11259WAT     H134019   5.637   8.744   8.628
11259WAT     H234020   5.710   8.877   8.568
11260WAT      O34021   2.576   4.732   2.876
11260WAT     H134022   2.494   4.762   2.924
11260WAT     H234023   2.555   4.652   2.820
11261WAT      O34024   3.612   7.510   1.831
11261WAT     H134025   3.651   7.444   1.767
11261WAT     H234026   3.624   7.602   1.794
11262WAT      O34027   8.144   4.585   0.696
11262WAT     H134028   8.171   4.681   0.700
11262WAT     H234029   8.197   4.533   0.764
11263WAT      O34030   0.995   7.655   7.186
11263WAT     H134031   0.913   7.707   7.210
11263WAT     H234032   1.075   7.701   7.224
11264WAT      O34033   3.402   0.915   7.544
11264WAT     H134034   3.483   0.912   7.485
11264WAT     H234035   3.342   0.990   7.514
11265WAT      O34036   4.261   3.120   8.835
11265WAT     H134037   4.341   3.064   8.857
11265WAT     H234038   4.221   3.155   8.919
11266WAT      O34039   6.580   4.096   2.496
11266WAT     H134040   6.668   4.140   2.480
11266WAT     H234041   6.529   4.089   2.410
11267WAT      O34042   3.271   5.879   8.245
11267WAT     H134043   3.285   5.934   8.328
11267WAT     H234044   3.191   5.820   8.257
11268WAT      O34045   0.422   4.927   5.772
11268WAT     H134046   0.482   4.988   5.824
11268WAT     H234047   0.347   4.896   5.832
11269WAT      O34048   2.878   4.398   2.119
11269WAT     H134049   2.906   4.468   2.052
11269WAT     H234050   2.849   4.443   2.203
11270WAT      O34051   7.396   9.155   5.412
11270WAT     H134052   7.379   9.139   5.509
11270WAT     H234053   7.476   9.215   5.401
11271WAT      O34054   0.492   6.785   1.129
11271WAT     H134055   0.527   6.769   1.037
11271WAT     H234056   0.392   6.792   1.126
11272WAT      O34057   0.042   0.824   6.308
11272WAT     H134058   0.067   0.830   6.405
11272WAT     H234059  -0.037   0.764   6.297
11273WAT      O34060   2.711   7.231   0.568
11273WAT     H134061   2.644   7.247   0.640
11273WAT     H234062   2.690   7.145   0.522
11274WAT      O34063   8.587   5.831   7.539
11274WAT     H134064   8.487   5.830   7.550
11274WAT     H234065   8.610   5.861   7.447
11275WAT      O34066   6.605   3.763   9.069
11275WAT     H134067   6.676   3.823   9.106
11275WAT     H234068   6.643   3.672   9.052
11276WAT      O34069   1.012   5.700   3.492
11276WAT     H134070   1.012   5.783   3.547
11276WAT     H234071   0.918   5.671   3.473
11277WAT      O34072   6.436   7.505   1.503
11277WAT     H134073   6.453   7.557   1.587
11277WAT     H234074   6.478   7.414   1.512
11278WAT      O34075   0.403   9.259   7.221
11278WAT     H134076   0.461   9.285   7.144
11278WAT     H234077   0.307   9.271   7.197
11279WAT      O34078   4.967   1.946   9.204
11279WAT     H134079   4.894   1.890   9.243
11279WAT     H234080   5.037   1.962   9.273
11280WAT      O34081   0.790   2.554   0.541
11280WAT     H134082   0.880   2.553   0.585
11280WAT     H234083   0.767   2.462   0.510
11281WAT      O34084   9.880   3.989   9.431
11281WAT     H134085   9.845   3.954   9.518
11281WAT     H234086   9.929   4.075   9.447
11282WAT      O34087   5.834   6.736   6.535
11282WAT     H134088   5.888   6.705   6.457
11282WAT     H234089   5.751   6.681   6.543
11283WAT      O34090   8.530   5.925   7.941
11283WAT     H134091   8.433   5.919   7.921
11283WAT     H234092   8.550   5.871   8.024
11284WAT      O34093   3.804   6.433   2.507
11284WAT     H134094   3.795   6.384   2.593
11284WAT     H234095   3.713   6.447   2.467
11285WAT      O34096   9.060   5.392   2.189
11285WAT     H134097   9.023   5.485   2.191
11285WAT     H234098   9.157   5.396   2.166
11286WAT      O34099   3.110   0.582   9.884
11286WAT     H134100   3.148   0.641   9.813
11286WAT     H234101   3.030   0.626   9.925
11287WAT      O34102   1.713   9.227   0.449
11287WAT     H134103   1.691   9.145   0.503
11287WAT     H234104   1.767   9.289   0.506
11288WAT      O34105   0.241   8.997   1.913
11288WAT     H134106   0.246   8.978   2.011
11288WAT     H234107   0.333   9.014   1.877
11289WAT      O34108   9.649   8.787   1.244
11289WAT     H134109   9.718   8.848   1.205
11289WAT     H234110   9.694   8.709   1.287
11290WAT      O34111   8.509   1.891   1.844
11290WAT     H134112   8.527   1.964   1.911
11290WAT     H234113   8.504   1.930   1.752
11291WAT      O34114   5.002   4.669   7.810
11291WAT     H134115   5.059   4.670   7.891
11291WAT     H234116   5.009   4.757   7.762
11292WAT      O34117   1.067   9.433   7.195
11292WAT     H134118   1.163   9.461   7.198
11292WAT     H234119   1.008   9.513   7.207
11293WAT      O34120   4.471   1.603   5.754
11293WAT     H134121   4.467   1.510   5.790
11293WAT     H234122   4.394   1.619   5.692
11294WAT      O34123   6.513   3.589   6.882
11294WAT     H134124   6.593   3.588   6.941
11294WAT     H234125   6.487   3.684   6.862
11295WAT      O34126   7.923   4.137   8.599
11295WAT     H134127   7.857   4.203   8.634
11295WAT     H234128   7.885   4.045   8.604
11296WAT      O34129   5.514   2.363   6.021
11296WAT     H134130   5.608   2.346   5.991
11296WAT     H234131   5.470   2.276   6.045
11297WAT      O34132   9.271   9.209   3.203
11297WAT     H134133   9.267   9.223   3.302
11297WAT     H234134   9.314   9.288   3.160
11298WAT      O34135   8.860   7.830   3.350
11298WAT     H134136   8.941   7.825   3.408
11298WAT     H234137   8.841   7.926   3.327
11299WAT      O34138   7.587   0.322   1.642
11299WAT     H134139   7.547   0.231   1.646
11299WAT     H234140   7.529   0.381   1.585
11300WAT      O34141   0.197   9.477   4.005
11300WAT     H134142   0.188   9.472   3.906
11300WAT     H234143   0.147   9.557   4.039
11301WAT      O34144   9.665   1.784   3.132
11301WAT     H134145   9.704   1.769   3.223
11301WAT     H234146   9.722   1.849   3.082
11302WAT      O34147   9.589   5.051   1.754
11302WAT     H134148   9.642   5.080   1.834
11302WAT     H234149   9.575   5.129   1.694
11303WAT      O34150   9.224   7.388   9.098
11303WAT     H134151   9.146   7.375   9.159
11303WAT     H234152   9.221   7.320   9.025
11304WAT      O34153   3.230   9.360   6.384
11304WAT     H134154   3.174   9.435   6.420
11304WAT     H234155   3.298   9.397   6.321
11305WAT      O34156   9.396   9.314   4.147
11305WAT     H134157   9.391   9.216   4.133
11305WAT     H234158   9.487   9.339   4.179
11306WAT      O34159   7.545   6.343   6.085
11306WAT     H134160   7.454   6.381   6.101
11306WAT     H234161   7.571   6.284   6.161
11307WAT      O34162   7.593   1.912   6.166
11307WAT     H134163   7.637   2.000   6.183
11307WAT     H234164   7.506   1.928   6.118
11308WAT      O34165   8.616   5.869   3.277
11308WAT     H134166   8.626   5.894   3.181
11308WAT     H234167   8.639   5.772   3.289
11309WAT      O34168   7.066   7.662   2.439
11309WAT     H134169   6.985   7.652   2.382
11309WAT     H234170   7.039   7.663   2.536
11310WAT      O34171   2.702   2.618   0.427
11310WAT     H134172   2.683   2.528   0.388
11310WAT     H234173   2.663   2.689   0.368
11311WAT      O34174   2.551   0.486   1.704
11311WAT     H134175   2.628   0.423   1.691
11311WAT     H234176   2.480   0.441   1.757
11312WAT      O34177   0.215   8.088   2.373
11312WAT     H134178   0.177   8.146   2.446
11312WAT     H234179   0.314   8.096   2.373
11313WAT      O34180   6.728   7.145   8.856
11313WAT     H134181   6.786   7.225   8.843
11313WAT     H234182   6.636   7.164   8.820
11314WAT      O34183   4.316   3.146   3.258
11314WAT     H134184   4.391   3.084   3.281
11314WAT     H234185   4.332   3.184   3.166
11315WAT      O34186   1.253   4.358   8.150
11315WAT     H134187   1.181   4.355   8.220
11315WAT     H234188   1.248   4.274   8.095
11316WAT      O34189   8.295   7.413   0.261
11316WAT     H134190   8.274   7.341   0.194
11316WAT     H234191   8.382   7.392   0.306
11317WAT      O34192   9.761   7.236   5.911
11317WAT     H134193   9.686   7.225   5.976
11317WAT     H234194   9.758   7.162   5.844
11318WAT      O34195   0.261   9.062   4.296
11318WAT     H134196   0.234   9.147   4.251
11318WAT     H234197   0.181   9.018   4.336
11319WAT      O34198   1.821   4.967   4.363
11319WAT     H134199   1.818   5.003   4.456
11319WAT     H234200   1.745   5.004   4.310
11320WAT      O34201   1.501   1.413   1.202
11320WAT     H134202   1.470   1.356   1.278
11320WAT     H234203   1.594   1.447   1.222
11321WAT      O34204   1.445   8.770   8.941
11321WAT     H134205   1.539   8.786   8.912
11321WAT     H234206   1.440   8.688   8.998
11322WAT      O34207   0.229   6.869   3.823
11322WAT     H134208   0.193   6.895   3.734
11322WAT     H234209   0.321   6.829   3.811
11323WAT      O34210   7.063   2.386   9.454
11323WAT     H134211   7.140   2.340   9.497
11323WAT     H234212   7.086   2.409   9.360
11324WAT      O34213   4.723   8.287   3.349
11324WAT     H134214   4.694   8.362   3.290
11324WAT     H234215   4.665   8.284   3.430
11325WAT      O34216   8.492   0.916   9.480
11325WAT     H134217   8.481   0.846   9.409
11325WAT     H234218   8.478   1.006   9.441
11326WAT      O34219   3.784   9.555   0.904
11326WAT     H134220   3.722   9.622   0.946
11326WAT     H234221   3.754   9.462   0.928
11327WAT      O34222   3.958   8.233   2.130
11327WAT     H134223   4.041   8.270   2.088
11327WAT     H234224   3.915   8.303   2.188
11328WAT      O34225   1.033   8.123   8.998
11328WAT     H134226   0.991   8.046   8.949
11328WAT     H234227   0.972   8.202   8.994
11329WAT      O34228   9.862   2.992   1.987
11329WAT     H134229   9.803   3.069   1.964
11329WAT     H234230   9.895   3.003   2.081
11330WAT      O34231   4.774   5.878   1.169
11330WAT     H134232   4.755   5.975   1.156
11330WAT     H234233   4.823   5.864   1.255
11331WAT      O34234   9.820   7.744   9.511
11331WAT     H134235   9.916   7.714   9.509
11331WAT     H234236   9.761   7.669   9.483
11332WAT      O34237   8.275   9.417   5.964
11332WAT     H134238   8.196   9.396   6.021
11332WAT     H234239   8.358   9.376   6.003
11333WAT      O34240   8.143   0.831   9.237
11333WAT     H134241   8.098   0.745   9.211
11333WAT     H234242   8.242   0.818   9.238
11334WAT      O34243   7.658   2.312   4.884
11334WAT     H134244   7.758   2.313   4.890
11334WAT     H234245   7.624   2.406   4.881
11335WAT      O34246   9.842   7.673   2.859
11335WAT     H134247   9.865   7.723   2.943
11335WAT     H234248   9.851   7.734   2.780
11336WAT      O34249   3.243   9.769   7.135
11336WAT     H134250   3.259   9.688   7.193
11336WAT     H234251   3.178   9.830   7.181
11337WAT      O34252   1.479   7.404   7.836
11337WAT     H134253   1.384   7.412   7.867
11337WAT     H234254   1.541   7.426   7.911
11338WAT      O34255   5.447   3.444   7.652
11338WAT     H134256   5.495   3.362   7.623
11338WAT     H234257   5.475   3.521   7.595
11339WAT      O34258   3.576   4.716   6.430
11339WAT     H134259   3.489   4.764   6.418
11339WAT     H234260   3.649   4.783   6.443
11340WAT      O34261   2.595   4.860   3.477
11340WAT     H134262   2.560   4.799   3.407
11340WAT     H234263   2.534   4.857   3.557
11341WAT      O34264   1.353   6.799   5.365
11341WAT     H134265   1.287   6.809   5.440
11341WAT     H234266   1.410   6.881   5.359
11342WAT      O34267   2.281   9.297   2.906
11342WAT     H134268   2.366   9.248   2.923
11342WAT     H234269   2.203   9.237   2.926
11343WAT      O34270   9.297   3.143   1.734
11343WAT     H134271   9.317   3.048   1.707
11343WAT     H234272   9.199   3.159   1.728
11344WAT      O34273   2.580   2.224   6.494
11344WAT     H134274   2.679   2.238   6.494
11344WAT     H234275   2.556   2.158   6.421
11345WAT      O34276   5.632   4.969   3.795
11345WAT     H134277   5.727   4.997   3.815
11345WAT     H234278   5.590   5.035   3.733
11346WAT      O34279   9.111   4.790   8.740
11346WAT     H134280   9.031   4.754   8.691
11346WAT     H234281   9.121   4.888   8.720
11347WAT      O34282   4.261   8.140   5.964
11347WAT     H134283   4.203   8.098   5.894
11347WAT     H234284   4.285   8.233   5.936
11348WAT      O34285   6.673   3.611   0.283
11348WAT     H134286   6.574   3.624   0.287
11348WAT     H234287   6.696   3.519   0.315
11349WAT      O34288   4.324   6.212   8.301
11349WAT     H134289   4.263   6.133   8.302
11349WAT     H234290   4.402   6.194   8.240
11350WAT      O34291   5.441   2.764   9.538
11350WAT     H134292   5.503   2.829   9.493
11350WAT     H234293   5.367   2.815   9.583
11351WAT      O34294   6.407   5.238   0.610
11351WAT     H134295   6.349   5.162   0.639
11351WAT     H234296   6.366   5.324   0.639
11352WAT      O34297   7.429   6.158   7.934
11352WAT     H134298   7.459   6.066   7.909
11352WAT     H234299   7.337   6.154   7.972
11353WAT      O34300   6.822   9.814   0.567
11353WAT     H134301   6.889   9.877   0.606
11353WAT     H234302   6.797   9.844   0.475
11354WAT      O34303   1.959   3.382   0.713
11354WAT     H134304   1.964   3.475   0.676
11354WAT     H234305   1.922   3.385   0.806
11355WAT      O34306   4.799   6.701   3.627
11355WAT     H134307   4.768   6.617   3.582
11355WAT     H234308   4.739   6.777   3.601
11356WAT      O34309   0.462   6.869   5.769
11356WAT     H134310   0.381   6.812   5.775
11356WAT     H234311   0.543   6.815   5.793
11357WAT      O34312   0.790   1.644   0.939
11357WAT     H134313   0.822   1.722   0.885
11357WAT     H234314   0.751   1.575   0.879
11358WAT      O34315   1.688   4.297   4.013
11358WAT     H134316   1.592   4.295   3.986
11358WAT     H234317   1.716   4.207   4.046
11359WAT      O34318   2.008   6.777   5.970
11359WAT     H134319   1.918   6.733   5.974
11359WAT     H234320   2.036   6.787   5.875
11360WAT      O34321   7.393   7.279   9.714
11360WAT     H134322   7.450   7.316   9.640
11360WAT     H234323   7.298   7.308   9.701
11361WAT      O34324   3.790   2.413   1.910
11361WAT     H134325   3.760   2.319   1.895
11361WAT     H234326   3.888   2.420   1.892
11362WAT      O34327   2.103   3.161   4.990
11362WAT     H134328   2.110   3.171   4.891
11362WAT     H234329   2.085   3.251   5.031
11363WAT      O34330   8.881   5.843   6.258
11363WAT     H134331   8.933   5.846   6.173
11363WAT     H234332   8.843   5.751   6.271
11364WAT      O34333   2.769   6.224   3.182
11364WAT     H134334   2.844   6.170   3.219
11364WAT     H234335   2.787   6.245   3.086
11365WAT      O34336   7.151   9.724   5.553
11365WAT     H134337   7.154   9.817   5.515
11365WAT     H234338   7.240   9.680   5.540
11366WAT      O34339   6.621   7.299   2.636
11366WAT     H134340   6.658   7.319   2.545
11366WAT     H234341   6.639   7.203   2.658
11367WAT      O34342   0.868   7.483   7.801
11367WAT     H134343   0.852   7.414   7.730
11367WAT     H234344   0.788   7.542   7.808
11368WAT      O34345   6.077   6.048   9.195
11368WAT     H134346   6.062   6.126   9.134
11368WAT     H234347   5.997   5.988   9.191
11369WAT      O34348   0.951   7.212   7.000
11369WAT     H134349   0.938   7.117   7.030
11369WAT     H234350   0.874   7.268   7.030
11370WAT      O34351   2.966   3.909   8.217
11370WAT     H134352   2.895   3.961   8.264
11370WAT     H234353   2.948   3.811   8.228
11371WAT      O34354   4.232   0.807   6.321
11371WAT     H134355   4.247   0.888   6.377
11371WAT     H234356   4.137   0.804   6.291
11372WAT      O34357   6.140   5.148   4.949
11372WAT     H134358   6.178   5.198   5.027
11372WAT     H234359   6.151   5.202   4.866
11373WAT      O34360   7.765   6.348   3.064
11373WAT     H134361   7.735   6.428   3.115
11373WAT     H234362   7.856   6.320   3.095
11374WAT      O34363   6.998   1.241   3.426
11374WAT     H134364   6.956   1.152   3.444
11374WAT     H234365   6.927   1.310   3.415
11375WAT      O34366   7.367   1.100   5.731
11375WAT     H134367   7.307   1.173   5.761
11375WAT     H234368   7.441   1.139   5.675
11376WAT      O34369   1.305   3.896   5.774
11376WAT     H134370   1.303   3.823   5.707
11376WAT     H234371   1.346   3.978   5.733
11377WAT      O34372   5.954   2.540   9.349
11377WAT     H134373   5.953   2.488   9.435
11377WAT     H234374   5.875   2.516   9.294
11378WAT      O34375   0.824   9.563   6.382
11378WAT     H134376   0.883   9.635   6.418
11378WAT     H234377   0.729   9.582   6.407
11379WAT      O34378   4.598   3.048   7.568
11379WAT     H134379   4.696   3.051   7.587
11379WAT     H234380   4.559   3.140   7.576
11380WAT      O34381   8.124   0.062   3.464
11380WAT     H134382   8.187   0.085   3.390
11380WAT     H234383   8.034   0.043   3.427
11381WAT      O34384   8.983   0.487   4.139
11381WAT     H134385   9.039   0.570   4.131
11381WAT     H234386   9.012   0.435   4.219
11382WAT      O34387   2.087   2.376   9.352
11382WAT     H134388   2.018   2.361   9.281
11382WAT     H234389   2.107   2.290   9.398
11383WAT      O34390   5.108   1.396   7.103
11383WAT     H134391   5.110   1.398   7.203
11383WAT     H234392   5.014   1.411   7.072
11384WAT      O34393   8.418   9.654   5.371
11384WAT     H134394   8.478   9.575   5.388
11384WAT     H234395   8.369   9.640   5.285
11385WAT      O34396   9.077   2.599   6.841
11385WAT     H134397   9.033   2.537   6.776
11385WAT     H234398   9.124   2.547   6.911
11386WAT      O34399   2.424   4.054   1.901
11386WAT     H134400   2.404   3.989   1.828
11386WAT     H234401   2.523   4.064   1.910
11387WAT      O34402   8.252   0.721   8.532
11387WAT     H134403   8.307   0.744   8.452
11387WAT     H234404   8.157   0.707   8.504
11388WAT      O34405   0.516   3.331   0.245
11388WAT     H134406   0.612   3.352   0.263
11388WAT     H234407   0.489   3.251   0.298
11389WAT      O34408   9.691   6.351   6.538
11389WAT     H134409   9.685   6.436   6.589
11389WAT     H234410   9.766   6.356   6.472
11390WAT      O34411   8.587   8.197   0.078
11390WAT     H134412   8.669   8.184   0.134
11390WAT     H234413   8.559   8.293   0.082
11391WAT      O34414   2.440   0.494   9.715
11391WAT     H134415   2.344   0.523   9.717
11391WAT     H234416   2.499   0.574   9.727
11392WAT      O34417   2.144   0.906   5.375
11392WAT     H134418   2.190   0.823   5.406
11392WAT     H234419   2.045   0.893   5.379
11393WAT      O34420   7.903   7.111   2.046
11393WAT     H134421   7.907   7.081   1.951
11393WAT     H234422   7.849   7.045   2.099
11394WAT      O34423   7.417   9.688   0.369
11394WAT     H134424   7.458   9.739   0.444
11394WAT     H234425   7.356   9.618   0.406
11395WAT      O34426   4.738   0.349   1.563
11395WAT     H134427   4.707   0.260   1.531
11395WAT     H234428   4.727   0.416   1.490
11396WAT      O34429   0.582   6.455   9.670
11396WAT     H134430   0.581   6.550   9.639
11396WAT     H234431   0.624   6.450   9.761
11397WAT      O34432   9.110   4.929   6.351
11397WAT     H134433   9.100   4.922   6.450
11397WAT     H234434   9.170   5.006   6.329
11398WAT      O34435   8.699   7.919   0.599
11398WAT     H134436   8.717   7.832   0.552
11398WAT     H234437   8.697   7.993   0.532
11399WAT      O34438   4.966   9.631   7.718
11399WAT     H134439   4.914   9.709   7.753
11399WAT     H234440   5.056   9.661   7.688
11400WAT      O34441   3.338   4.886   5.466
11400WAT     H134442   3.338   4.788   5.445
11400WAT     H234443   3.422   4.910   5.514
11401WAT      O34444   4.563   0.602   0.130
11401WAT     H134445   4.503   0.634   0.204
11401WAT     H234446   4.515   0.607   0.043
11402WAT      O34447   8.782   1.830   3.493
11402WAT     H134448   8.872   1.873   3.488
11402WAT     H234449   8.763   1.782   3.407
11403WAT      O34450   1.569   3.495   2.085
11403WAT     H134451   1.665   3.508   2.106
11403WAT     H234452   1.521   3.460   2.166
11404WAT      O34453   9.271   8.504   7.835
11404WAT     H134454   9.266   8.531   7.931
11404WAT     H234455   9.230   8.574   7.778
11405WAT      O34456   4.800   0.700   7.038
11405WAT     H134457   4.790   0.673   7.133
11405WAT     H234458   4.718   0.750   7.009
11406WAT      O34459   8.301   4.088   0.330
11406WAT     H134460   8.244   4.025   0.278
11406WAT     H234461   8.397   4.071   0.309
11407WAT      O34462   7.624   8.206   9.094
11407WAT     H134463   7.597   8.135   9.029
11407WAT     H234464   7.713   8.183   9.134
11408WAT      O34465   2.407   6.534   6.355
11408WAT     H134466   2.445   6.492   6.438
11408WAT     H234467   2.331   6.593   6.379
11409WAT      O34468   0.707   9.374   1.488
11409WAT     H134469   0.610   9.394   1.498
11409WAT     H234470   0.737   9.399   1.396
11410WAT      O34471   6.575   1.876   3.194
11410WAT     H134472   6.568   1.790   3.246
11410WAT     H234473   6.537   1.863   3.103
11411WAT      O34474   3.980   2.676   8.812
11411WAT     H134475   3.932   2.659   8.726
11411WAT     H234476   4.017   2.769   8.812
11412WAT      O34477   9.753   2.824   1.169
11412WAT     H134478   9.834   2.879   1.188
11412WAT     H234479   9.681   2.882   1.130
11413WAT      O34480   5.238   1.787   0.350
11413WAT     H134481   5.318   1.824   0.397
11413WAT     H234482   5.166   1.857   0.346
11414WAT      O34483   0.873   1.362   0.607
11414WAT     H134484   0.907   1.434   0.547
11414WAT     H234485   0.830   1.290   0.552
11415WAT      O34486   1.867   8.322   2.842
11415WAT     H134487   1.921   8.295   2.763
11415WAT     H234488   1.833   8.240   2.889
11416WAT      O34489   0.725   6.734   0.366
11416WAT     H134490   0.719   6.820   0.416
11416WAT     H234491   0.818   6.721   0.332
11417WAT      O34492   6.744   9.153   1.169
11417WAT     H134493   6.799   9.174   1.088
11417WAT     H234494   6.786   9.195   1.249
11418WAT      O34495   0.101   8.269   6.768
11418WAT     H134496   0.113   8.184   6.716
11418WAT     H234497   0.134   8.346   6.714
11419WAT      O34498   0.862   0.108   6.095
11419WAT     H134499   0.832   0.032   6.038
11419WAT     H234500   0.951   0.086   6.136
11420WAT      O34501   3.821   4.088   4.544
11420WAT     H134502   3.773   4.011   4.502
11420WAT     H234503   3.917   4.087   4.515
11421WAT      O34504   2.336   8.973   0.059
11421WAT     H134505   2.400   8.940   0.129
11421WAT     H234506   2.366   8.943  -0.031
11422WAT      O34507   0.551   5.433   5.343
11422WAT     H134508   0.542   5.495   5.421
11422WAT     H234509   0.479   5.452   5.276
11423WAT      O34510   9.711   3.674   7.822
11423WAT     H134511   9.672   3.635   7.739
11423WAT     H234512   9.639   3.687   7.890
11424WAT      O34513   3.453   1.374   0.194
11424WAT     H134514   3.381   1.437   0.164
11424WAT     H234515   3.435   1.345   0.288
11425WAT      O34516   6.880   1.136   4.935
11425WAT     H134517   6.894   1.078   4.854
11425WAT     H234518   6.811   1.094   4.994
11426WAT      O34519   8.117   7.254   4.096
11426WAT     H134520   8.145   7.173   4.046
11426WAT     H234521   8.137   7.242   4.194
11427WAT      O34522   2.716   8.515   7.499
11427WAT     H134523   2.784   8.505   7.571
11427WAT     H234524   2.635   8.561   7.536
11428WAT      O34525   0.523   9.672   4.808
11428WAT     H134526   0.554   9.620   4.887
11428WAT     H234527   0.488   9.761   4.838
11429WAT      O34528   0.684   9.840   4.403
11429WAT     H134529   0.686   9.752   4.452
11429WAT     H234530   0.667   9.914   4.468
11430WAT      O34531   1.658   0.467   1.191
11430WAT     H134532   1.569   0.495   1.226
11430WAT     H234533   1.686   0.382   1.234
11431WAT      O34534   6.302   8.237   0.078
11431WAT     H134535   6.204   8.249   0.060
11431WAT     H234536   6.339   8.321   0.118
11432WAT      O34537   9.452   8.555   0.014
11432WAT     H134538   9.433   8.490   0.088
11432WAT     H234539   9.365   8.586  -0.025
11433WAT      O34540   4.066   2.408   4.287
11433WAT     H134541   3.987   2.431   4.344
11433WAT     H234542   4.122   2.490   4.274
11434WAT      O34543   5.260   8.552   7.373
11434WAT     H134544   5.179   8.493   7.374
11434WAT     H234545   5.262   8.606   7.289
11435WAT      O34546   8.201   7.969   8.903
11435WAT     H134547   8.230   8.048   8.849
11435WAT     H234548   8.256   7.889   8.878
11436WAT      O34549   3.322   2.868   6.449
11436WAT     H134550   3.323   2.821   6.361
11436WAT     H234551   3.317   2.967   6.434
11437WAT      O34552   6.657   9.599   4.708
11437WAT     H134553   6.634   9.632   4.616
11437WAT     H234554   6.745   9.638   4.735
11438WAT      O34555   5.554   5.730   0.642
11438WAT     H134556   5.522   5.719   0.737
11438WAT     H234557   5.649   5.700   0.635
11439WAT      O34558   5.973   3.071   2.806
11439WAT     H134559   5.904   3.006   2.838
11439WAT     H234560   6.063   3.042   2.839
11440WAT      O34561   5.295   5.106   2.657
11440WAT     H134562   5.265   5.151   2.573
11440WAT     H234563   5.354   5.168   2.709
11441WAT      O34564   7.640   6.789   3.039
11441WAT     H134565   7.589   6.757   2.959
11441WAT     H234566   7.577   6.834   3.102
11442WAT      O34567   7.965   3.880   0.431
11442WAT     H134568   7.956   3.803   0.494
11442WAT     H234569   7.879   3.894   0.383
11443WAT      O34570   0.192   4.823   0.418
11443WAT     H134571   0.099   4.861   0.420
11443WAT     H234572   0.195   4.747   0.353
11444WAT      O34573   8.469   0.411   3.288
11444WAT     H134574   8.525   0.329   3.297
11444WAT     H234575   8.374   0.384   3.268
11445WAT      O34576   6.185   4.341   4.017
11445WAT     H134577   6.128   4.407   3.967
11445WAT     H234578   6.279   4.345   3.982
11446WAT      O34579   7.461   8.892   5.349
11446WAT     H134580   7.413   8.869   5.264
11446WAT     H234581   7.456   8.991   5.365
11447WAT      O34582   5.461   7.881   3.236
11447WAT     H134583   5.426   7.957   3.182
11447WAT     H234584   5.419   7.795   3.205
11448WAT      O34585   8.768   6.664   4.493
11448WAT     H134586   8.768   6.721   4.576
11448WAT     H234587   8.793   6.570   4.518
11449WAT      O34588   4.968   2.158   6.519
11449WAT     H134589   4.943   2.243   6.566
11449WAT     H234590   4.998   2.179   6.426
11450WAT      O34591   8.775   0.650   9.691
11450WAT     H134592   8.683   0.618   9.715
11450WAT     H234593   8.804   0.719   9.757
11451WAT      O34594   4.427   7.344   2.717
11451WAT     H134595   4.387   7.359   2.627
11451WAT     H234596   4.523   7.320   2.707
11452WAT      O34597   6.104   4.525   9.652
11452WAT     H134598   6.057   4.562   9.572
11452WAT     H234599   6.061   4.560   9.735
11453WAT      O34600   2.690   6.770   9.531
11453WAT     H134601   2.711   6.780   9.434
11453WAT     H234602   2.739   6.691   9.568
11454WAT      O34603   5.161   5.760   7.952
11454WAT     H134604   5.142   5.858   7.956
11454WAT     H234605   5.134   5.725   7.862
11455WAT      O34606   4.515   4.678   9.479
11455WAT     H134607   4.452   4.708   9.551
11455WAT     H234608   4.595   4.738   9.477
11456WAT      O34609   7.815   0.370   9.559
11456WAT     H134610   7.867   0.319   9.627
11456WAT     H234611   7.722   0.333   9.553
11457WAT      O34612   7.511   7.322   6.456
11457WAT     H134613   7.590   7.272   6.420
11457WAT     H234614   7.504   7.410   6.409
11458WAT      O34615   3.966   8.559   0.562
11458WAT     H134616   4.050   8.558   0.508
11458WAT     H234617   3.932   8.465   0.573
11459WAT      O34618   9.468   0.405   8.225
11459WAT     H134619   9.416   0.490   8.233
11459WAT     H234620   9.435   0.339   8.293
11460WAT      O34621   3.810   6.905   6.473
11460WAT     H134622   3.784   6.864   6.385
11460WAT     H234623   3.745   6.976   6.498
11461WAT      O34624   1.503   6.178   8.377
11461WAT     H134625   1.597   6.171   8.343
11461WAT     H234626   1.450   6.099   8.347
11462WAT      O34627   0.032   5.296   1.369
11462WAT     H134628   0.081   5.362   1.312
11462WAT     H234629   0.063   5.203   1.348
11463WAT      O34630   5.136   8.853   6.123
11463WAT     H134631   5.216   8.830   6.067
11463WAT     H234632   5.145   8.810   6.212
11464WAT      O34633   0.050   1.407   9.350
11464WAT     H134634   0.029   1.313   9.322
11464WAT     H234635   0.149   1.420   9.351
11465WAT      O34636   1.555   8.684   2.740
11465WAT     H134637   1.466   8.697   2.784
11465WAT     H234638   1.580   8.768   2.692
11466WAT      O34639   7.955   1.081   1.877
11466WAT     H134640   8.005   1.009   1.924
11466WAT     H234641   7.997   1.170   1.896
11467WAT      O34642   9.363   5.177   8.403
11467WAT     H134643   9.419   5.257   8.383
11467WAT     H234644   9.423   5.098   8.420
11468WAT      O34645   9.692   0.506   7.546
11468WAT     H134646   9.625   0.581   7.547
11468WAT     H234647   9.727   0.494   7.453
11469WAT      O34648   0.311   1.449   4.663
11469WAT     H134649   0.246   1.410   4.598
11469WAT     H234650   0.373   1.378   4.695
11470WAT      O34651   6.025   5.269   7.721
11470WAT     H134652   6.110   5.250   7.672
11470WAT     H234653   5.965   5.190   7.716
11471WAT      O34654   0.994   2.390   1.882
11471WAT     H134655   0.956   2.429   1.798
11471WAT     H234656   1.054   2.457   1.926
11472WAT      O34657   0.468   1.769   8.540
11472WAT     H134658   0.563   1.759   8.509
11472WAT     H234659   0.439   1.864   8.525
11473WAT      O34660   4.771   3.423   2.361
11473WAT     H134661   4.753   3.509   2.410
11473WAT     H234662   4.733   3.346   2.413
11474WAT      O34663   8.609   6.170   7.893
11474WAT     H134664   8.581   6.075   7.907
11474WAT     H234665   8.552   6.213   7.824
11475WAT      O34666   7.614   1.779   2.225
11475WAT     H134667   7.560   1.795   2.142
11475WAT     H234668   7.696   1.835   2.222
11476WAT      O34669   2.708   2.866   3.179
11476WAT     H134670   2.690   2.805   3.256
11476WAT     H234671   2.718   2.813   3.095
11477WAT      O34672   9.405   4.372   4.843
11477WAT     H134673   9.431   4.303   4.776
11477WAT     H234674   9.340   4.332   4.908
11478WAT      O34675   8.009   3.809   8.267
11478WAT     H134676   7.910   3.797   8.279
11478WAT     H234677   8.053   3.812   8.357
11479WAT      O34678   3.063   0.812   1.708
11479WAT     H134679   3.008   0.742   1.662
11479WAT     H234680   3.022   0.833   1.796
11480WAT      O34681   1.897   1.952   0.755
11480WAT     H134682   1.831   2.003   0.809
11480WAT     H234683   1.970   1.919   0.814
11481WAT      O34684   5.844   8.775   7.466
11481WAT     H134685   5.770   8.765   7.533
11481WAT     H234686   5.932   8.772   7.512
11482WAT      O34687   6.687   8.964   2.425
11482WAT     H134688   6.765   8.978   2.486
11482WAT     H234689   6.602   8.987   2.474
11483WAT      O34690   6.970   7.938   4.578
11483WAT     H134691   7.008   7.847   4.592
11483WAT     H234692   7.022   8.004   4.631
11484WAT      O34693   3.485   8.824   5.451
11484WAT     H134694   3.541   8.896   5.493
11484WAT     H234695   3.461   8.756   5.520
11485WAT      O34696   4.161   7.510   0.426
11485WAT     H134697   4.178   7.424   0.379
11485WAT     H234698   4.068   7.511   0.461
11486WAT      O34699   2.632   8.477   8.916
11486WAT     H134700   2.550   8.517   8.957
11486WAT     H234701   2.685   8.549   8.871
11487WAT      O34702   5.181   8.654   7.639
11487WAT     H134703   5.235   8.620   7.562
11487WAT     H234704   5.109   8.587   7.661
11488WAT      O34705   6.713   8.277   8.308
11488WAT     H134706   6.702   8.194   8.364
11488WAT     H234707   6.795   8.269   8.252
11489WAT      O34708   0.855   4.103   2.035
11489WAT     H134709   0.909   4.185   2.056
11489WAT     H234710   0.865   4.037   2.109
11490WAT      O34711   7.848   3.436   0.545
11490WAT     H134712   7.860   3.461   0.641
11490WAT     H234713   7.937   3.413   0.505
11491WAT      O34714   5.814   8.045   6.245
11491WAT     H134715   5.894   7.990   6.270
11491WAT     H234716   5.821   8.072   6.149
11492WAT      O34717   0.465   4.184   1.156
11492WAT     H134718   0.386   4.143   1.202
11492WAT     H234719   0.527   4.112   1.126
11493WAT      O34720   3.026   9.029   3.467
11493WAT     H134721   3.052   9.081   3.386
11493WAT     H234722   3.033   9.087   3.548
11494WAT      O34723   1.565   4.794   8.456
11494WAT     H134724   1.587   4.838   8.369
11494WAT     H234725   1.487   4.733   8.443
11495WAT      O34726   2.697   0.910   8.287
11495WAT     H134727   2.767   0.976   8.258
11495WAT     H234728   2.682   0.918   8.385
11496WAT      O34729   7.467   6.513   7.041
11496WAT     H134730   7.555   6.483   7.075
11496WAT     H234731   7.453   6.477   6.948
11497WAT      O34732   0.143   1.414   6.132
11497WAT     H134733   0.058   1.361   6.126
11497WAT     H234734   0.201   1.376   6.203
11498WAT      O34735   2.236   4.612   5.467
11498WAT     H134736   2.137   4.622   5.458
11498WAT     H234737   2.260   4.600   5.563
11499WAT      O34738   9.059   1.802   0.866
11499WAT     H134739   9.148   1.790   0.909
11499WAT     H234740   8.996   1.733   0.901
11500WAT      O34741   3.691   1.202   1.835
11500WAT     H134742   3.677   1.287   1.886
11500WAT     H234743   3.679   1.220   1.737
11501WAT      O34744   8.494   8.472   8.670
11501WAT     H134745   8.585   8.465   8.710
11501WAT     H234746   8.501   8.464   8.570
11502WAT      O34747   0.575   8.769   3.635
11502WAT     H134748   0.533   8.678   3.634
11502WAT     H234749   0.515   8.833   3.588
11503WAT      O34750   4.876   5.387   0.987
11503WAT     H134751   4.842   5.433   0.905
11503WAT     H234752   4.903   5.293   0.964
11504WAT      O34753   6.691   7.778   0.020
11504WAT     H134754   6.613   7.716   0.019
11504WAT     H234755   6.694   7.829  -0.066
11505WAT      O34756   4.244   6.056   5.773
11505WAT     H134757   4.148   6.037   5.753
11505WAT     H234758   4.251   6.144   5.820
11506WAT      O34759   0.419   8.841   7.336
11506WAT     H134760   0.404   8.939   7.348
11506WAT     H234761   0.331   8.794   7.340
11507WAT      O34762   3.038   5.592   7.889
11507WAT     H134763   3.116   5.651   7.869
11507WAT     H234764   3.070   5.498   7.900
11508WAT      O34765   7.777   8.031   4.194
11508WAT     H134766   7.858   7.982   4.226
11508WAT     H234767   7.698   8.005   4.249
11509WAT      O34768   3.328   9.362   3.264
11509WAT     H134769   3.344   9.264   3.262
11509WAT     H234770   3.295   9.393   3.175
11510WAT      O34771   0.892   6.420   2.511
11510WAT     H134772   0.989   6.407   2.530
11510WAT     H234773   0.879   6.434   2.412
11511WAT      O34774   8.835   4.609   4.647
11511WAT     H134775   8.803   4.539   4.711
11511WAT     H234776   8.930   4.591   4.623
11512WAT      O34777   4.164   7.218   0.680
11512WAT     H134778   4.120   7.135   0.714
11512WAT     H234779   4.099   7.269   0.623
11513WAT      O34780   5.946   1.428   9.519
11513WAT     H134781   5.860   1.400   9.475
11513WAT     H234782   6.023   1.389   9.469
11514WAT      O34783   0.036   6.961   6.192
11514WAT     H134784  -0.042   6.899   6.195
11514WAT     H234785   0.052   6.999   6.283
11515WAT      O34786   4.556   6.213   7.099
11515WAT     H134787   4.594   6.302   7.074
11515WAT     H234788   4.630   6.149   7.118
11516WAT      O34789   2.987   2.257   6.987
11516WAT     H134790   2.969   2.336   7.047
11516WAT     H234791   2.922   2.258   6.911
11517WAT      O34792   3.349   0.015   8.169
11517WAT     H134793   3.448   0.012   8.161
11517WAT     H234794   3.310   0.060   8.089
11518WAT      O34795   4.621   1.550   5.467
11518WAT     H134796   4.648   1.611   5.392
11518WAT     H234797   4.557   1.481   5.432
11519WAT      O34798   3.639   0.034   8.152
11519WAT     H134799   3.677   0.013   8.242
11519WAT     H234800   3.653   0.131   8.132
11520WAT      O34801   7.196   2.698   8.612
11520WAT     H134802   7.178   2.794   8.591
11520WAT     H234803   7.117   2.658   8.659
11521WAT      O34804   1.295   2.352   7.800
11521WAT     H134805   1.209   2.313   7.832
11521WAT     H234806   1.322   2.308   7.714
11522WAT      O34807   5.775   9.031   5.456
11522WAT     H134808   5.751   9.068   5.546
11522WAT     H234809   5.692   9.025   5.400
11523WAT      O34810   0.571   6.814   9.249
11523WAT     H134811   0.654   6.763   9.225
11523WAT     H234812   0.504   6.805   9.175
11524WAT      O34813   5.982   5.581   5.440
11524WAT     H134814   5.930   5.551   5.361
11524WAT     H234815   5.979   5.681   5.446
11525WAT      O34816   7.199   7.562   3.334
11525WAT     H134817   7.117   7.516   3.299
11525WAT     H234818   7.189   7.580   3.432
11526WAT      O34819   2.343   2.859   0.709
11526WAT     H134820   2.257   2.819   0.676
11526WAT     H234821   2.413   2.787   0.714
11527WAT      O34822   3.279   0.510   7.824
11527WAT     H134823   3.234   0.455   7.753
11527WAT     H234824   3.339   0.577   7.780
11528WAT      O34825   0.389   1.952   2.605
11528WAT     H134826   0.411   1.858   2.579
11528WAT     H234827   0.293   1.957   2.635
11529WAT      O34828   3.082   6.496   8.764
11529WAT     H134829   3.091   6.419   8.701
11529WAT     H234830   3.172   6.522   8.797
11530WAT      O34831   4.634   9.269   2.494
11530WAT     H134832   4.635   9.240   2.398
11530WAT     H234833   4.727   9.295   2.521
11531WAT      O34834   1.886   2.550   7.130
11531WAT     H134835   1.889   2.463   7.080
11531WAT     H234836   1.810   2.548   7.195
11532WAT      O34837   5.062   0.845   7.444
11532WAT     H134838   5.037   0.750   7.457
11532WAT     H234839   5.162   0.852   7.432
11533WAT      O34840   2.706   9.407   9.611
11533WAT     H134841   2.735   9.398   9.706
11533WAT     H234842   2.639   9.337   9.589
11534WAT      O34843   1.233   0.657   1.122
11534WAT     H134844   1.298   0.606   1.177
11534WAT     H234845   1.140   0.638   1.153
11535WAT      O34846   7.581   3.346   4.178
11535WAT     H134847   7.552   3.255   4.208
11535WAT     H234848   7.513   3.383   4.115
11536WAT      O34849   9.558   2.271   3.590
11536WAT     H134850   9.609   2.305   3.669
11536WAT     H234851   9.461   2.263   3.614
11537WAT      O34852   4.793   8.318   6.164
11537WAT     H134853   4.806   8.230   6.210
11537WAT     H234854   4.822   8.310   6.069
11538WAT      O34855   2.844   8.963   7.294
11538WAT     H134856   2.857   8.864   7.297
11538WAT     H234857   2.834   8.999   7.387
11539WAT      O34858   0.412   8.795   9.766
11539WAT     H134859   0.422   8.722   9.698
11539WAT     H234860   0.315   8.811   9.784
11540WAT      O34861   2.903   0.474   6.180
11540WAT     H134862   2.901   0.568   6.145
11540WAT     H234863   2.875   0.473   6.276
11541WAT      O34864   6.210   0.331   5.211
11541WAT     H134865   6.186   0.263   5.281
11541WAT     H234866   6.197   0.292   5.120
11542WAT      O34867   0.368   0.781   6.016
11542WAT     H134868   0.389   0.878   6.018
11542WAT     H234869   0.448   0.730   5.984
11543WAT      O34870   1.477   4.571   6.625
11543WAT     H134871   1.454   4.668   6.635
11543WAT     H234872   1.461   4.523   6.711
11544WAT      O34873   7.169   7.561   2.943
11544WAT     H134874   7.171   7.631   3.014
11544WAT     H234875   7.135   7.475   2.981
11545WAT      O34876   0.269   6.664   3.307
11545WAT     H134877   0.304   6.574   3.331
11545WAT     H234878   0.217   6.659   3.222
11546WAT      O34879   4.662   5.755   2.368
11546WAT     H134880   4.745   5.792   2.410
11546WAT     H234881   4.592   5.743   2.438
11547WAT      O34882   2.133   7.938   7.516
11547WAT     H134883   2.173   7.934   7.608
11547WAT     H234884   2.205   7.927   7.448
11548WAT      O34885   0.170   2.900   0.239
11548WAT     H134886   0.218   2.861   0.318
11548WAT     H234887   0.180   2.999   0.240
11549WAT      O34888   7.564   7.267   4.643
11549WAT     H134889   7.622   7.226   4.572
11549WAT     H234890   7.537   7.359   4.615
11550WAT      O34891   6.105   1.682   7.822
11550WAT     H134892   6.090   1.679   7.724
11550WAT     H234893   6.073   1.769   7.859
11551WAT      O34894   6.599   7.818   5.936
11551WAT     H134895   6.503   7.844   5.945
11551WAT     H234896   6.628   7.768   6.018
11552WAT      O34897   1.326   4.790   6.251
11552WAT     H134898   1.229   4.813   6.245
11552WAT     H234899   1.337   4.691   6.245
11553WAT      O34900   3.458   7.370   4.571
11553WAT     H134901   3.477   7.442   4.637
11553WAT     H234902   3.429   7.287   4.619
11554WAT      O34903   3.778   0.574   2.019
11554WAT     H134904   3.837   0.494   2.030
11554WAT     H234905   3.682   0.547   2.033
11555WAT      O34906   4.495   3.310   8.971
11555WAT     H134907   4.490   3.340   8.876
11555WAT     H234908   4.403   3.304   9.009
11556WAT      O34909   3.924   2.483   2.749
11556WAT     H134910   3.992   2.555   2.761
11556WAT     H234911   3.834   2.518   2.774
11557WAT      O34912   6.779   5.874   5.083
11557WAT     H134913   6.709   5.804   5.067
11557WAT     H234914   6.753   5.958   5.037
11558WAT      O34915   5.862   2.568   1.210
11558WAT     H134916   5.803   2.587   1.132
11558WAT     H234917   5.953   2.541   1.177
11559WAT      O34918   8.877   9.259   5.411
11559WAT     H134919   8.933   9.309   5.345
11559WAT     H234920   8.793   9.228   5.366
11560WAT      O34921   2.146   3.513   9.680
11560WAT     H134922   2.099   3.579   9.622
11560WAT     H234923   2.112   3.522   9.774
11561WAT      O34924   6.788   6.189   6.269
11561WAT     H134925   6.809   6.267   6.328
11561WAT     H234926   6.865   6.125   6.272
11562WAT      O34927   4.873   3.355   1.655
11562WAT     H134928   4.815   3.305   1.591
11562WAT     H234929   4.836   3.345   1.747
11563WAT      O34930   4.005   0.877   8.106
11563WAT     H134931   4.077   0.912   8.166
11563WAT     H234932   3.984   0.946   8.037
11564WAT      O34933   8.450   3.263   9.826
11564WAT     H134934   8.469   3.310   9.740
11564WAT     H234935   8.440   3.165   9.810
11565WAT      O34936   5.074   2.983   2.269
11565WAT     H134937   5.040   2.892   2.247
11565WAT     H234938   5.174   2.983   2.265
11566WAT      O34939   6.104   0.826   4.213
11566WAT     H134940   6.114   0.761   4.138
11566WAT     H234941   6.194   0.853   4.247
11567WAT      O34942   3.362   5.988   3.090
11567WAT     H134943   3.363   6.068   3.029
11567WAT     H234944   3.308   5.915   3.048
11568WAT      O34945   7.409   8.123   0.574
11568WAT     H134946   7.505   8.098   0.585
11568WAT     H234947   7.398   8.184   0.497
11569WAT      O34948   0.571   2.718   5.213
11569WAT     H134949   0.527   2.715   5.124
11569WAT     H234950   0.563   2.628   5.257
11570WAT      O34951   7.295   1.337   5.352
11570WAT     H134952   7.392   1.350   5.373
11570WAT     H234953   7.284   1.259   5.291
11571WAT      O34954   6.811   5.088   7.901
11571WAT     H134955   6.712   5.091   7.887
11571WAT     H234956   6.831   5.082   7.999
11572WAT      O34957   8.858   5.418   6.939
11572WAT     H134958   8.951   5.441   6.912
11572WAT     H234959   8.818   5.356   6.872
11573WAT      O34960   4.158   4.074   3.421
11573WAT     H134961   4.141   3.990   3.474
11573WAT     H234962   4.162   4.152   3.483
11574WAT      O34963   7.823   0.657   0.179
11574WAT     H134964   7.855   0.643   0.273
11574WAT     H234965   7.794   0.570   0.140
11575WAT      O34966   6.362   1.749   4.040
11575WAT     H134967   6.293   1.734   4.110
11575WAT     H234968   6.323   1.802   3.965
11576WAT      O34969   6.435   9.342   1.235
11576WAT     H134970   6.402   9.357   1.142
11576WAT     H234971   6.495   9.262   1.237
11577WAT      O34972   6.297   1.238   3.425
11577WAT     H134973   6.348   1.160   3.388
11577WAT     H234974   6.284   1.225   3.524
11578WAT      O34975   2.876   9.819   4.482
11578WAT     H134976   2.967   9.782   4.499
11578WAT     H234977   2.876   9.873   4.398
11579WAT      O34978   1.978   2.203   2.502
11579WAT     H134979   1.928   2.164   2.579
11579WAT     H234980   2.048   2.266   2.536
11580WAT      O34981   2.970   7.222   3.250
11580WAT     H134982   3.033   7.262   3.316
11580WAT     H234983   3.019   7.202   3.165
11581WAT      O34984   5.609   4.676   6.589
11581WAT     H134985   5.666   4.727   6.654
11581WAT     H234986   5.572   4.594   6.634
11582WAT      O34987   2.307   8.366   6.371
11582WAT     H134988   2.323   8.267   6.367
11582WAT     H234989   2.211   8.382   6.396
11583WAT      O34990   4.799   4.534   8.649
11583WAT     H134991   4.738   4.455   8.642
11583WAT     H234992   4.795   4.571   8.742
11584WAT      O34993   2.691   0.753   3.055
11584WAT     H134994   2.725   0.780   3.145
11584WAT     H234995   2.665   0.835   3.003
11585WAT      O34996   4.011   7.579   5.785
11585WAT     H134997   4.045   7.552   5.875
11585WAT     H234998   4.076   7.641   5.742
11586WAT      O34999   1.378   2.361   1.213
11586WAT     H135000   1.316   2.329   1.284
11586WAT     H235001   1.393   2.460   1.224
11587WAT      O35002   7.981   8.545   9.488
11587WAT     H135003   7.925   8.482   9.434
11587WAT     H235004   8.044   8.492   9.546
11588WAT      O35005   2.429   3.166   4.330
11588WAT     H135006   2.491   3.188   4.255
11588WAT     H235007   2.443   3.231   4.405
11589WAT      O35008   6.732   7.555   2.717
11589WAT     H135009   6.718   7.457   2.701
11589WAT     H235010   6.831   7.574   2.718
11590WAT      O35011   6.688   2.853   0.902
11590WAT     H135012   6.755   2.785   0.933
11590WAT     H235013   6.636   2.887   0.980
11591WAT      O35014   7.883   5.771   5.370
11591WAT     H135015   7.943   5.819   5.306
11591WAT     H235016   7.856   5.833   5.443
11592WAT      O35017   2.032   7.106   6.721
11592WAT     H135018   1.994   7.089   6.812
11592WAT     H235019   2.132   7.109   6.726
11593WAT      O35020   5.044   8.561   1.420
11593WAT     H135021   5.117   8.628   1.412
11593WAT     H235022   4.980   8.591   1.491
11594WAT      O35023   2.475   1.442   3.335
11594WAT     H135024   2.546   1.378   3.365
11594WAT     H235025   2.518   1.522   3.293
11595WAT      O35026   8.792   4.745   8.762
11595WAT     H135027   8.818   4.656   8.798
11595WAT     H235028   8.754   4.801   8.836
11596WAT      O35029   8.231   0.679   6.976
11596WAT     H135030   8.163   0.606   6.968
11596WAT     H235031   8.194   0.752   7.034
11597WAT      O35032   5.563   1.971   5.401
11597WAT     H135033   5.520   2.061   5.390
11597WAT     H235034   5.534   1.911   5.327
11598WAT      O35035   8.454   2.972   0.009
11598WAT     H135036   8.515   3.013   0.076
11598WAT     H235037   8.504   2.905  -0.046
11599WAT      O35038   8.197   2.839   3.504
11599WAT     H135039   8.123   2.780   3.472
11599WAT     H235040   8.195   2.925   3.454
11600WAT      O35041   0.790   0.013   6.557
11600WAT     H135042   0.764   0.083   6.491
11600WAT     H235043   0.709  -0.039   6.585
11601WAT      O35044   5.879   8.394   4.885
11601WAT     H135045   5.863   8.302   4.849
11601WAT     H235046   5.977   8.405   4.903
11602WAT      O35047   3.408   7.639   6.341
11602WAT     H135048   3.459   7.699   6.279
11602WAT     H235049   3.455   7.636   6.429
11603WAT      O35050   4.296   3.118   7.225
11603WAT     H135051   4.244   3.097   7.142
11603WAT     H235052   4.335   3.034   7.262
11604WAT      O35053   1.402   4.082   9.732
11604WAT     H135054   1.375   4.175   9.756
11604WAT     H235055   1.338   4.044   9.666
11605WAT      O35056   2.613   3.099   8.592
11605WAT     H135057   2.549   3.022   8.602
11605WAT     H235058   2.685   3.092   8.661
11606WAT      O35059   3.566   3.488   0.042
11606WAT     H135060   3.509   3.406   0.055
11606WAT     H235061   3.525   3.546  -0.027
11607WAT      O35062   6.440   3.151   8.615
11607WAT     H135063   6.479   3.087   8.681
11607WAT     H235064   6.503   3.227   8.601
11608WAT      O35065   8.569   3.815   7.397
11608WAT     H135066   8.521   3.740   7.443
11608WAT     H235067   8.625   3.778   7.323
11609WAT      O35068   1.453   4.995   1.529
11609WAT     H135069   1.383   4.969   1.463
11609WAT     H235070   1.491   5.084   1.503
11610WAT      O35071   7.008   0.170   0.657
11610WAT     H135072   7.085   0.130   0.608
11610WAT     H235073   7.008   0.269   0.645
11611WAT      O35074   6.064   5.838   5.442
11611WAT     H135075   6.097   5.864   5.351
11611WAT     H235076   6.118   5.885   5.512
11612WAT      O35077   1.720   6.029   7.821
11612WAT     H135078   1.657   6.092   7.868
11612WAT     H235079   1.668   5.972   7.757
11613WAT      O35080   0.005   4.730   6.919
11613WAT     H135081   0.049   4.716   7.008
11613WAT     H235082  -0.023   4.642   6.881
11614WAT      O35083   3.654   3.424   9.256
11614WAT     H135084   3.585   3.383   9.316
11614WAT     H235085   3.618   3.432   9.163
11615WAT      O35086   9.875   9.781   7.289
11615WAT     H135087   9.802   9.849   7.286
11615WAT     H235088   9.853   9.712   7.358
11616WAT      O35089   2.019   8.986   0.317
11616WAT     H135090   2.069   9.043   0.252
11616WAT     H235091   1.976   9.045   0.386
11617WAT      O35092   4.848   6.097   1.736
11617WAT     H135093   4.749   6.110   1.739
11617WAT     H235094   4.878   6.050   1.819
11618WAT      O35095   3.632   3.522   7.459
11618WAT     H135096   3.649   3.581   7.538
11618WAT     H235097   3.652   3.571   7.375
11619WAT      O35098   8.725   3.122   7.477
11619WAT     H135099   8.666   3.048   7.445
11619WAT     H235100   8.779   3.090   7.555
11620WAT      O35101   6.921   6.418   8.977
11620WAT     H135102   6.955   6.461   9.061
11620WAT     H235103   6.824   6.437   8.966
11621WAT      O35104   3.854   1.388   3.514
11621WAT     H135105   3.911   1.352   3.440
11621WAT     H235106   3.908   1.449   3.571
11622WAT      O35107   5.641   0.116   1.266
11622WAT     H135108   5.643   0.018   1.245
11622WAT     H235109   5.547   0.150   1.259
11623WAT      O35110   7.828   5.221   5.058
11623WAT     H135111   7.845   5.316   5.086
11623WAT     H235112   7.869   5.205   4.968
11624WAT      O35113   5.392   3.067   3.332
11624WAT     H135114   5.312   3.031   3.284
11624WAT     H235115   5.418   3.003   3.405
11625WAT      O35116   8.697   2.215   9.468
11625WAT     H135117   8.780   2.270   9.469
11625WAT     H235118   8.712   2.130   9.518
11626WAT      O35119   2.916   2.586   5.482
11626WAT     H135120   2.884   2.507   5.536
11626WAT     H235121   3.000   2.561   5.434
11627WAT      O35122   6.793   7.440   9.144
11627WAT     H135123   6.768   7.519   9.201
11627WAT     H235124   6.721   7.371   9.151
11628WAT      O35125   3.428   4.321   4.445
11628WAT     H135126   3.521   4.332   4.412
11628WAT     H235127   3.429   4.287   4.539
11629WAT      O35128   8.763   0.935   4.026
11629WAT     H135129   8.758   1.022   3.978
11629WAT     H235130   8.683   0.880   4.005
11630WAT      O35131   0.722   8.556   4.056
11630WAT     H135132   0.729   8.635   3.995
11630WAT     H235133   0.810   8.539   4.099
11631WAT      O35134   1.414   8.042   5.347
11631WAT     H135135   1.427   8.001   5.257
11631WAT     H235136   1.503   8.069   5.384
11632WAT      O35137   2.300   1.617   7.821
11632WAT     H135138   2.267   1.627   7.915
11632WAT     H235139   2.257   1.686   7.763
11633WAT      O35140   2.714   8.488   4.592
11633WAT     H135141   2.657   8.409   4.613
11633WAT     H235142   2.658   8.571   4.590
11634WAT      O35143   6.709   9.350   5.452
11634WAT     H135144   6.609   9.348   5.453
11634WAT     H235145   6.743   9.300   5.372
11635WAT      O35146   3.235   0.182   4.455
11635WAT     H135147   3.178   0.199   4.375
11635WAT     H235148   3.263   0.269   4.495
11636WAT      O35149   5.381   6.166   7.950
11636WAT     H135150   5.427   6.085   7.984
11636WAT     H235151   5.445   6.222   7.897
11637WAT      O35152   6.202   8.883   6.520
11637WAT     H135153   6.129   8.939   6.480
11637WAT     H235154   6.218   8.803   6.461
11638WAT      O35155   4.642   0.712   0.499
11638WAT     H135156   4.671   0.619   0.523
11638WAT     H235157   4.671   0.776   0.570
11639WAT      O35158   7.059   0.900   0.822
11639WAT     H135159   7.058   0.901   0.922
11639WAT     H235160   7.096   0.813   0.790
11640WAT      O35161   0.005   0.536   8.750
11640WAT     H135162  -0.030   0.552   8.658
11640WAT     H235163   0.105   0.535   8.748
11641WAT      O35164   4.378   9.654   0.687
11641WAT     H135165   4.282   9.652   0.658
11641WAT     H235166   4.427   9.578   0.645
11642WAT      O35167   6.753   2.832   7.444
11642WAT     H135168   6.849   2.861   7.447
11642WAT     H235169   6.747   2.743   7.399
11643WAT      O35170   0.833   8.395   8.513
11643WAT     H135171   0.932   8.384   8.521
11643WAT     H235172   0.791   8.382   8.603
11644WAT      O35173   4.412   6.252   5.168
11644WAT     H135174   4.463   6.285   5.088
11644WAT     H235175   4.365   6.328   5.212
11645WAT      O35176   2.945   2.155   1.827
11645WAT     H135177   2.900   2.242   1.807
11645WAT     H235178   3.006   2.130   1.752
11646WAT      O35179   9.115   0.205   4.870
11646WAT     H135180   9.077   0.287   4.913
11646WAT     H235181   9.119   0.130   4.937
11647WAT      O35182   2.136   8.480   0.279
11647WAT     H135183   2.107   8.572   0.306
11647WAT     H235184   2.066   8.438   0.222
11648WAT      O35185   8.908   7.621   4.544
11648WAT     H135186   8.882   7.584   4.633
11648WAT     H235187   8.826   7.647   4.493
11649WAT      O35188   8.271   4.942   8.828
11649WAT     H135189   8.265   5.041   8.842
11649WAT     H235190   8.329   4.922   8.749
11650WAT      O35191   2.919   6.730   7.842
11650WAT     H135192   3.002   6.781   7.822
11650WAT     H235193   2.875   6.769   7.922
11651WAT      O35194   4.862   7.823   0.206
11651WAT     H135195   4.951   7.779   0.210
11651WAT     H235196   4.855   7.891   0.279
11652WAT      O35197   9.068   7.698   4.860
11652WAT     H135198   8.995   7.633   4.838
11652WAT     H235199   9.111   7.730   4.776
11653WAT      O35200   9.748   5.712   6.149
11653WAT     H135201   9.722   5.744   6.240
11653WAT     H235202   9.844   5.682   6.151
11654WAT      O35203   3.716   0.232   2.368
11654WAT     H135204   3.627   0.274   2.387
11654WAT     H235205   3.760   0.207   2.454
11655WAT      O35206   7.585   5.590   0.449
11655WAT     H135207   7.624   5.506   0.412
11655WAT     H235208   7.579   5.659   0.376
11656WAT      O35209   9.385   6.650   6.571
11656WAT     H135210   9.366   6.748   6.577
11656WAT     H235211   9.300   6.600   6.553
11657WAT      O35212   5.130   6.726   9.212
11657WAT     H135213   5.171   6.816   9.227
11657WAT     H235214   5.124   6.677   9.299
11658WAT      O35215   6.641   3.316   1.439
11658WAT     H135216   6.639   3.415   1.434
11658WAT     H235217   6.641   3.277   1.347
11659WAT      O35218   7.587   3.876   6.180
11659WAT     H135219   7.567   3.858   6.083
11659WAT     H235220   7.668   3.824   6.207
11660WAT      O35221   6.345   1.143   7.791
11660WAT     H135222   6.313   1.058   7.833
11660WAT     H235223   6.420   1.122   7.727
11661WAT      O35224   2.089   3.943   8.464
11661WAT     H135225   1.989   3.944   8.454
11661WAT     H235226   2.114   3.892   8.546
11662WAT      O35227   4.924   8.118   8.389
11662WAT     H135228   4.984   8.045   8.420
11662WAT     H235229   4.922   8.121   8.289
11663WAT      O35230   8.679   7.706   4.436
11663WAT     H135231   8.580   7.695   4.444
11663WAT     H235232   8.700   7.803   4.421
11664WAT      O35233   1.724   8.555   0.781
11664WAT     H135234   1.806   8.497   0.786
11664WAT     H235235   1.690   8.571   0.873
11665WAT      O35236   8.948   3.634   0.105
11665WAT     H135237   8.854   3.600   0.107
11665WAT     H235238   8.983   3.641   0.198
11666WAT      O35239   8.957   7.943   1.253
11666WAT     H135240   8.894   7.870   1.279
11666WAT     H235241   8.940   7.969   1.158
11667WAT      O35242   6.733   2.418   7.504
11667WAT     H135243   6.699   2.447   7.593
11667WAT     H235244   6.690   2.331   7.479
11668WAT      O35245   1.925   4.385   0.036
11668WAT     H135246   1.977   4.456  -0.013
11668WAT     H235247   1.834   4.420   0.059
11669WAT      O35248   7.926   8.634   5.304
11669WAT     H135249   7.924   8.673   5.396
11669WAT     H235250   7.968   8.699   5.241
11670WAT      O35251   7.257   3.134   1.716
11670WAT     H135252   7.335   3.154   1.775
11670WAT     H235253   7.191   3.208   1.722
11671WAT      O35254   0.755   4.486   3.473
11671WAT     H135255   0.829   4.496   3.539
11671WAT     H235256   0.772   4.406   3.415
11672WAT      O35257   1.659   2.179   3.781
11672WAT     H135258   1.729   2.145   3.844
11672WAT     H235259   1.621   2.102   3.730
11673WAT      O35260   0.642   3.255   1.024
11673WAT     H135261   0.595   3.168   1.040
11673WAT     H235262   0.703   3.274   1.101
11674WAT      O35263   9.835   9.839   5.903
11674WAT     H135264   9.806   9.933   5.921
11674WAT     H235265   9.934   9.836   5.892
11675WAT      O35266   8.523   6.217   3.266
11675WAT     H135267   8.536   6.245   3.361
11675WAT     H235268   8.461   6.139   3.261
11676WAT      O35269   5.316   8.613   4.787
11676WAT     H135270   5.400   8.663   4.805
11676WAT     H235271   5.293   8.558   4.868
11677WAT      O35272   1.724   1.772   7.331
11677WAT     H135273   1.679   1.737   7.414
11677WAT     H235274   1.655   1.802   7.266
11678WAT      O35275   4.073   4.601   7.646
11678WAT     H135276   3.994   4.656   7.618
11678WAT     H235277   4.076   4.595   7.745
11679WAT      O35278   2.829   8.273   8.593
11679WAT     H135279   2.928   8.257   8.603
11679WAT     H235280   2.812   8.372   8.594
11680WAT      O35281   8.914   5.946   3.331
11680WAT     H135282   8.815   5.931   3.323
11680WAT     H235283   8.932   6.021   3.394
11681WAT      O35284   5.241   9.529   1.346
11681WAT     H135285   5.283   9.463   1.408
11681WAT     H235286   5.182   9.481   1.281
11682WAT      O35287   3.244   1.270   6.183
11682WAT     H135288   3.322   1.279   6.244
11682WAT     H235289   3.173   1.214   6.227
11683WAT      O35290   2.986   8.044   2.272
11683WAT     H135291   3.049   8.104   2.224
11683WAT     H235292   2.949   7.976   2.208
11684WAT      O35293   3.425   3.055   0.139
11684WAT     H135294   3.380   2.966   0.131
11684WAT     H235295   3.506   3.057   0.081
11685WAT      O35296   8.513   1.836   8.670
11685WAT     H135297   8.416   1.828   8.693
11685WAT     H235298   8.560   1.889   8.740
11686WAT      O35299   2.815   2.876   1.391
11686WAT     H135300   2.821   2.886   1.490
11686WAT     H235301   2.735   2.927   1.357
11687WAT      O35302   4.802   0.933   5.663
11687WAT     H135303   4.793   0.990   5.745
11687WAT     H235304   4.729   0.864   5.663
11688WAT      O35305   3.569   0.157   7.802
11688WAT     H135306   3.564   0.214   7.720
11688WAT     H235307   3.477   0.128   7.828
11689WAT      O35308   5.582   4.771   0.564
11689WAT     H135309   5.614   4.707   0.495
11689WAT     H235310   5.488   4.798   0.545
11690WAT      O35311   1.717   2.700   1.099
11690WAT     H135312   1.699   2.714   1.001
11690WAT     H235313   1.804   2.651   1.110
11691WAT      O35314   7.571   6.327   2.225
11691WAT     H135315   7.573   6.229   2.203
11691WAT     H235316   7.576   6.380   2.140
11692WAT      O35317   3.157   6.117   3.398
11692WAT     H135318   3.102   6.069   3.329
11692WAT     H235319   3.215   6.051   3.447
11693WAT      O35320   8.463   7.792   8.640
11693WAT     H135321   8.397   7.780   8.714
11693WAT     H235322   8.555   7.770   8.674
11694WAT      O35323   0.292   4.812   2.142
11694WAT     H135324   0.220   4.790   2.208
11694WAT     H235325   0.306   4.734   2.080
11695WAT      O35326   7.301   5.166   8.671
11695WAT     H135327   7.360   5.089   8.696
11695WAT     H235328   7.273   5.215   8.753
11696WAT      O35329   7.768   0.067   1.901
11696WAT     H135330   7.691   0.004   1.887
11696WAT     H235331   7.797   0.104   1.813
11697WAT      O35332   2.913   5.091   3.157
11697WAT     H135333   2.946   5.061   3.246
11697WAT     H235334   2.969   5.049   3.085
11698WAT      O35335   2.106   5.674   7.204
11698WAT     H135336   2.027   5.655   7.146
11698WAT     H235337   2.128   5.772   7.200
11699WAT      O35338   9.424   7.990   9.520
11699WAT     H135339   9.503   7.960   9.467
11699WAT     H235340   9.403   8.085   9.497
11700WAT      O35341   1.657   2.561   1.346
11700WAT     H135342   1.731   2.560   1.278
11700WAT     H235343   1.695   2.546   1.437
11701WAT      O35344   5.307   3.510   6.364
11701WAT     H135345   5.223   3.459   6.350
11701WAT     H235346   5.333   3.557   6.279
11702WAT      O35347   9.080   6.795   4.212
11702WAT     H135348   9.104   6.830   4.121
11702WAT     H235349   8.982   6.776   4.214
11703WAT      O35350   7.440   5.467   8.245
11703WAT     H135351   7.429   5.548   8.188
11703WAT     H235352   7.534   5.433   8.237
11704WAT      O35353   7.873   1.169   5.037
11704WAT     H135354   7.858   1.246   4.974
11704WAT     H235355   7.909   1.204   5.124
11705WAT      O35356   1.264   1.527   5.797
11705WAT     H135357   1.202   1.453   5.770
11705WAT     H235358   1.247   1.551   5.893
11706WAT      O35359   2.255   9.089   7.446
11706WAT     H135360   2.169   9.131   7.418
11706WAT     H235361   2.322   9.095   7.372
11707WAT      O35362   2.411   0.543   9.448
11707WAT     H135363   2.348   0.619   9.464
11707WAT     H235364   2.431   0.498   9.535
11708WAT      O35365   7.274   6.459   9.309
11708WAT     H135366   7.289   6.541   9.364
11708WAT     H235367   7.346   6.453   9.239
11709WAT      O35368   8.587   0.088   8.443
11709WAT     H135369   8.682   0.105   8.467
11709WAT     H235370   8.582   0.013   8.377
11710WAT      O35371   7.822   6.536   5.031
11710WAT     H135372   7.837   6.505   4.937
11710WAT     H235373   7.811   6.636   5.032
11711WAT      O35374   1.253   3.300   3.021
11711WAT     H135375   1.346   3.311   3.057
11711WAT     H235376   1.197   3.377   3.050
11712WAT      O35377   7.365   1.709   7.363
11712WAT     H135378   7.300   1.637   7.337
11712WAT     H235379   7.333   1.756   7.445
11713WAT      O35380   5.410   2.795   2.999
11713WAT     H135381   5.421   2.715   2.940
11713WAT     H235382   5.382   2.873   2.943
11714WAT      O35383   2.354   3.390   7.973
11714WAT     H135384   2.451   3.368   7.988
11714WAT     H235385   2.341   3.422   7.880
11715WAT      O35386   1.222   0.457   9.009
11715WAT     H135387   1.208   0.442   9.107
11715WAT     H235388   1.150   0.517   8.974
11716WAT      O35389   6.453   1.480   3.782
11716WAT     H135390   6.497   1.441   3.863
11716WAT     H235391   6.492   1.438   3.700
11717WAT      O35392   8.679   5.617   0.655
11717WAT     H135393   8.652   5.649   0.745
11717WAT     H235394   8.760   5.668   0.625
11718WAT      O35395   0.119   3.145   6.989
11718WAT     H135396   0.030   3.172   6.953
11718WAT     H235397   0.147   3.209   7.060
11719WAT      O35398   8.343   0.923   0.252
11719WAT     H135399   8.399   0.959   0.327
11719WAT     H235400   8.373   0.831   0.228
11720WAT      O35401   0.664   4.354   8.438
11720WAT     H135402   0.723   4.294   8.385
11720WAT     H235403   0.603   4.403   8.377
11721WAT      O35404   9.328   4.572   7.464
11721WAT     H135405   9.400   4.523   7.414
11721WAT     H235406   9.269   4.506   7.510
11722WAT      O35407   7.889   7.076   1.753
11722WAT     H135408   7.968   7.130   1.781
11722WAT     H235409   7.907   7.034   1.664
11723WAT      O35410   9.112   4.689   1.136
11723WAT     H135411   9.127   4.785   1.159
11723WAT     H235412   9.029   4.680   1.081
11724WAT      O35413   1.164   7.756   5.092
11724WAT     H135414   1.128   7.823   5.158
11724WAT     H235415   1.260   7.775   5.075
11725WAT      O35416   1.552   7.718   0.884
11725WAT     H135417   1.583   7.623   0.896
11725WAT     H235418   1.500   7.726   0.799
11726WAT      O35419   5.034   8.383   7.295
11726WAT     H135420   5.010   8.363   7.200
11726WAT     H235421   4.951   8.407   7.346
11727WAT      O35422   6.789   6.672   2.775
11727WAT     H135423   6.764   6.579   2.747
11727WAT     H235424   6.726   6.703   2.846
11728WAT      O35425   5.691   5.404   2.682
11728WAT     H135426   5.754   5.444   2.748
11728WAT     H235427   5.734   5.327   2.635
11729WAT      O35428   6.038   3.746   9.615
11729WAT     H135429   6.071   3.656   9.644
11729WAT     H235430   6.025   3.804   9.696
11730WAT      O35431   9.191   7.346   7.628
11730WAT     H135432   9.207   7.361   7.726
11730WAT     H235433   9.190   7.433   7.580
11731WAT      O35434   0.282   4.449   0.880
11731WAT     H135435   0.378   4.424   0.887
11731WAT     H235436   0.273   4.549   0.881
11732WAT      O35437   8.926   4.114   9.533
11732WAT     H135438   8.952   4.144   9.442
11732WAT     H235439   8.829   4.090   9.534
11733WAT      O35440   2.893   0.591   1.697
11733WAT     H135441   2.858   0.525   1.631
11733WAT     H235442   2.837   0.674   1.695
11734WAT      O35443   5.414   7.410   2.477
11734WAT     H135444   5.486   7.342   2.486
11734WAT     H235445   5.341   7.374   2.418
11735WAT      O35446   9.845   9.663   7.032
11735WAT     H135447   9.833   9.731   7.105
11735WAT     H235448   9.923   9.604   7.055
11736WAT      O35449   4.878   4.888   8.468
11736WAT     H135450   4.813   4.813   8.474
11736WAT     H235451   4.911   4.911   8.560
11737WAT      O35452   7.567   5.821   5.327
11737WAT     H135453   7.645   5.831   5.265
11737WAT     H235454   7.486   5.864   5.285
11738WAT      O35455   9.387   8.811   4.889
11738WAT     H135456   9.366   8.733   4.949
11738WAT     H235457   9.304   8.841   4.843
11739WAT      O35458   7.704   5.383   4.507
11739WAT     H135459   7.740   5.431   4.427
11739WAT     H235460   7.734   5.287   4.505
11740WAT      O35461   9.766   2.895   5.522
11740WAT     H135462   9.776   2.892   5.621
11740WAT     H235463   9.853   2.873   5.479
11741WAT      O35464   3.061   3.884   8.902
11741WAT     H135465   3.065   3.973   8.857
11741WAT     H235466   2.966   3.863   8.925
11742WAT      O35467   7.502   7.412   9.183
11742WAT     H135468   7.533   7.507   9.177
11742WAT     H235469   7.503   7.382   9.278
11743WAT      O35470   7.055   8.138   4.849
11743WAT     H135471   7.024   8.233   4.854
11743WAT     H235472   6.975   8.077   4.845
11744WAT      O35473   5.325   0.013   2.102
11744WAT     H135474   5.260   0.059   2.042
11744WAT     H235475   5.412   0.062   2.100
11745WAT      O35476   7.100   3.993   0.535
11745WAT     H135477   7.050   3.958   0.614
11745WAT     H235478   7.048   3.974   0.452
11746WAT      O35479   7.694   6.833   1.123
11746WAT     H135480   7.608   6.789   1.149
11746WAT     H235481   7.720   6.901   1.193
11747WAT      O35482   6.647   7.750   0.306
11747WAT     H135483   6.685   7.747   0.214
11747WAT     H235484   6.697   7.687   0.365
11748WAT      O35485   7.784   6.616   4.665
11748WAT     H135486   7.760   6.581   4.575
11748WAT     H235487   7.712   6.677   4.698
11749WAT      O35488   6.271   0.937   0.118
11749WAT     H135489   6.276   0.979   0.208
11749WAT     H235490   6.177   0.909   0.098
11750WAT      O35491   9.597   3.807   7.212
11750WAT     H135492   9.691   3.800   7.246
11750WAT     H235493   9.579   3.730   7.150
11751WAT      O35494   2.709   4.541   5.889
11751WAT     H135495   2.686   4.626   5.842
11751WAT     H235496   2.766   4.484   5.830
11752WAT      O35497   6.517   8.043   7.555
11752WAT     H135498   6.470   8.128   7.579
11752WAT     H235499   6.615   8.058   7.551
11753WAT      O35500   8.460   7.205   4.455
11753WAT     H135501   8.544   7.215   4.507
11753WAT     H235502   8.472   7.243   4.363
11754WAT      O35503   9.353   3.334   1.905
11754WAT     H135504   9.342   3.256   1.844
11754WAT     H235505   9.266   3.384   1.911
11755WAT      O35506   9.871   7.917   0.989
11755WAT     H135507   9.971   7.906   0.983
11755WAT     H235508   9.844   8.000   0.941
11756WAT      O35509   6.330   5.573   6.166
11756WAT     H135510   6.286   5.571   6.076
11756WAT     H235511   6.419   5.527   6.161
11757WAT      O35512   8.030   1.392   6.176
11757WAT     H135513   8.086   1.463   6.133
11757WAT     H235514   7.955   1.434   6.226
11758WAT      O35515   7.633   6.472   1.461
11758WAT     H135516   7.611   6.384   1.503
11758WAT     H235517   7.722   6.503   1.496
11759WAT      O35518   6.686   6.552   3.976
11759WAT     H135519   6.757   6.554   4.047
11759WAT     H235520   6.652   6.459   3.965
11760WAT      O35521   1.426   0.149   5.956
11760WAT     H135522   1.498   0.078   5.960
11760WAT     H235523   1.392   0.166   6.048
11761WAT      O35524   4.537   3.944   8.289
11761WAT     H135525   4.544   3.884   8.209
11761WAT     H235526   4.458   4.005   8.278
11762WAT      O35527   6.002   1.740   0.056
11762WAT     H135528   5.929   1.688   0.011
11762WAT     H235529   6.025   1.697   0.143
11763WAT      O35530   3.371   3.304   0.062
11763WAT     H135531   3.395   3.211   0.091
11763WAT     H235532   3.281   3.328   0.099
11764WAT      O35533   8.870   5.706   7.024
11764WAT     H135534   8.820   5.781   6.982
11764WAT     H235535   8.871   5.628   6.962
11765WAT      O35536   2.926   7.705   5.175
11765WAT     H135537   3.002   7.766   5.197
11765WAT     H235538   2.840   7.757   5.175
11766WAT      O35539   9.563   0.591   2.525
11766WAT     H135540   9.479   0.625   2.482
11766WAT     H235541   9.586   0.501   2.488
11767WAT      O35542   0.515   4.052   1.798
11767WAT     H135543   0.525   4.128   1.734
11767WAT     H235544   0.582   4.061   1.872
11768WAT      O35545   3.017   8.277   1.716
11768WAT     H135546   3.062   8.266   1.628
11768WAT     H235547   3.044   8.202   1.777
11769WAT      O35548   3.734   6.443   3.838
11769WAT     H135549   3.825   6.483   3.832
11769WAT     H235550   3.669   6.498   3.787
11770WAT      O35551   6.242   4.081   0.677
11770WAT     H135552   6.183   4.127   0.744
11770WAT     H235553   6.257   4.143   0.600
11771WAT      O35554   7.002   5.281   9.715
11771WAT     H135555   7.042   5.267   9.624
11771WAT     H235556   6.958   5.197   9.746
11772WAT      O35557   3.582   7.185   8.824
11772WAT     H135558   3.600   7.181   8.726
11772WAT     H235559   3.665   7.162   8.874
11773WAT      O35560   2.063   6.549   6.531
11773WAT     H135561   2.119   6.631   6.520
11773WAT     H235562   2.107   6.471   6.486
11774WAT      O35563   1.946   8.617   8.159
11774WAT     H135564   2.028   8.587   8.209
11774WAT     H235565   1.909   8.540   8.106
11775WAT      O35566   5.387   3.074   0.664
11775WAT     H135567   5.456   3.054   0.733
11775WAT     H235568   5.429   3.073   0.574
11776WAT      O35569   5.356   2.806   0.808
11776WAT     H135570   5.268   2.800   0.855
11776WAT     H235571   5.413   2.875   0.852
11777WAT      O35572   5.932   7.791   7.920
11777WAT     H135573   5.871   7.751   7.989
11777WAT     H235574   5.966   7.879   7.953
11778WAT      O35575   1.948   0.564   0.311
11778WAT     H135576   2.013   0.617   0.366
11778WAT     H235577   1.998   0.508   0.245
11779WAT      O35578   2.746   3.317   1.370
11779WAT     H135579   2.841   3.304   1.340
11779WAT     H235580   2.740   3.300   1.469
11780WAT      O35581   5.428   7.162   3.406
11780WAT     H135582   5.419   7.261   3.405
11780WAT     H235583   5.442   7.131   3.500
11781WAT      O35584   1.736   1.810   4.332
11781WAT     H135585   1.740   1.720   4.375
11781WAT     H235586   1.824   1.856   4.343
11782WAT      O35587   6.430   0.208   7.124
11782WAT     H135588   6.381   0.285   7.083
11782WAT     H235589   6.515   0.192   7.074
11783WAT      O35590   8.669   4.723   6.521
11783WAT     H135591   8.619   4.771   6.449
11783WAT     H235592   8.654   4.769   6.608
11784WAT      O35593   2.562   4.810   1.213
11784WAT     H135594   2.573   4.853   1.123
11784WAT     H235595   2.499   4.864   1.268
11785WAT      O35596   3.907   6.902   8.483
11785WAT     H135597   3.959   6.925   8.401
11785WAT     H235598   3.926   6.968   8.555
11786WAT      O35599   5.899   4.311   8.437
11786WAT     H135600   5.836   4.252   8.487
11786WAT     H235601   5.899   4.286   8.340
11787WAT      O35602   7.652   8.881   7.081
11787WAT     H135603   7.651   8.786   7.051
11787WAT     H235604   7.660   8.886   7.180
11788WAT      O35605   8.820   3.770   0.644
11788WAT     H135606   8.911   3.737   0.618
11788WAT     H235607   8.769   3.696   0.687
11789WAT      O35608   0.789   2.126   5.959
11789WAT     H135609   0.883   2.138   5.990
11789WAT     H235610   0.767   2.194   5.889
11790WAT      O35611   1.371   6.050   1.514
11790WAT     H135612   1.397   6.146   1.508
11790WAT     H235613   1.440   5.999   1.565
11791WAT      O35614   7.723   7.175   5.619
11791WAT     H135615   7.765   7.112   5.684
11791WAT     H235616   7.633   7.141   5.593
11792WAT      O35617   3.498   2.649   1.759
11792WAT     H135618   3.463   2.742   1.757
11792WAT     H235619   3.476   2.602   1.674
11793WAT      O35620   9.081   1.071   6.916
11793WAT     H135621   9.166   1.051   6.964
11793WAT     H235622   9.003   1.050   6.976
11794WAT      O35623   8.034   4.928   2.670
11794WAT     H135624   8.125   4.889   2.657
11794WAT     H235625   7.987   4.878   2.743
11795WAT      O35626   3.169   9.128   0.109
11795WAT     H135627   3.228   9.202   0.141
11795WAT     H235628   3.139   9.148   0.015
11796WAT      O35629   4.986   5.737   3.339
11796WAT     H135630   5.009   5.834   3.334
11796WAT     H235631   4.918   5.715   3.269
11797WAT      O35632   3.363   7.527   1.942
11797WAT     H135633   3.450   7.491   1.909
11797WAT     H235634   3.368   7.543   2.040
11798WAT      O35635   3.749   4.572   5.376
11798WAT     H135636   3.722   4.543   5.285
11798WAT     H235637   3.688   4.531   5.444
11799WAT      O35638   7.330   1.359   8.280
11799WAT     H135639   7.317   1.294   8.205
11799WAT     H235640   7.311   1.314   8.367
11800WAT      O35641   5.844   4.835   2.536
11800WAT     H135642   5.859   4.890   2.618
11800WAT     H235643   5.750   4.800   2.537
11801WAT      O35644   2.373   7.752   5.669
11801WAT     H135645   2.453   7.749   5.729
11801WAT     H235646   2.297   7.704   5.713
11802WAT      O35647   2.530   0.017   8.297
11802WAT     H135648   2.571   0.011   8.206
11802WAT     H235649   2.478   0.102   8.305
11803WAT      O35650   5.563   7.644   2.490
11803WAT     H135651   5.523   7.553   2.484
11803WAT     H235652   5.619   7.650   2.573
11804WAT      O35653   1.049   7.068   1.858
11804WAT     H135654   0.966   7.109   1.896
11804WAT     H235655   1.025   7.010   1.780
11805WAT      O35656   7.991   4.063   1.130
11805WAT     H135657   7.892   4.053   1.124
11805WAT     H235658   8.030   3.980   1.172
11806WAT      O35659   7.085   8.736   8.422
11806WAT     H135660   7.151   8.788   8.369
11806WAT     H235661   7.128   8.702   8.505
11807WAT      O35662   7.356   9.083   5.684
11807WAT     H135663   7.277   9.035   5.723
11807WAT     H235664   7.413   9.117   5.758
11808WAT      O35665   5.115   5.634   1.193
11808WAT     H135666   5.124   5.686   1.108
11808WAT     H235667   5.121   5.537   1.173
11809WAT      O35668   0.536   8.783   2.851
11809WAT     H135669   0.449   8.745   2.883
11809WAT     H235670   0.526   8.816   2.757
11810WAT      O35671   8.099   1.723   9.600
11810WAT     H135672   8.011   1.728   9.553
11810WAT     H235673   8.085   1.695   9.695
11811WAT      O35674   0.584   3.633   4.086
11811WAT     H135675   0.648   3.697   4.043
11811WAT     H235676   0.490   3.661   4.067
11812WAT      O35677   2.214   6.624   5.314
11812WAT     H135678   2.313   6.626   5.304
11812WAT     H235679   2.181   6.532   5.293
11813WAT      O35680   5.958   4.042   6.587
11813WAT     H135681   5.962   4.041   6.487
11813WAT     H235682   6.040   3.998   6.624
11814WAT      O35683   1.081   9.749   2.862
11814WAT     H135684   1.064   9.739   2.960
11814WAT     H235685   1.077   9.659   2.818
11815WAT      O35686   6.496   0.185   6.336
11815WAT     H135687   6.535   0.093   6.339
11815WAT     H235688   6.562   0.251   6.372
11816WAT      O35689   5.770   3.875   2.743
11816WAT     H135690   5.829   3.809   2.696
11816WAT     H235691   5.826   3.939   2.795
11817WAT      O35692   8.731   3.532   7.107
11817WAT     H135693   8.738   3.587   7.190
11817WAT     H235694   8.677   3.450   7.126
11818WAT      O35695   4.527   9.269   3.096
11818WAT     H135696   4.519   9.201   3.024
11818WAT     H235697   4.611   9.254   3.148
11819WAT      O35698   8.651   0.542   5.989
11819WAT     H135699   8.572   0.530   5.929
11819WAT     H235700   8.699   0.626   5.963
11820WAT      O35701   5.783   5.871   2.021
11820WAT     H135702   5.715   5.817   2.072
11820WAT     H235703   5.736   5.939   1.965
11821WAT      O35704   4.118   4.877   7.823
11821WAT     H135705   4.124   4.779   7.845
11821WAT     H235706   4.097   4.928   7.906
11822WAT      O35707   1.420   0.963   3.830
11822WAT     H135708   1.418   1.008   3.919
11822WAT     H235709   1.355   1.008   3.768
11823WAT      O35710   2.980   6.796   6.581
11823WAT     H135711   3.025   6.767   6.665
11823WAT     H235712   3.044   6.846   6.523
11824WAT      O35713   6.833   5.299   1.189
11824WAT     H135714   6.877   5.387   1.209
11824WAT     H235715   6.857   5.233   1.260
11825WAT      O35716   0.396   9.043   2.938
11825WAT     H135717   0.407   9.124   2.880
11825WAT     H235718   0.463   9.047   3.012
11826WAT      O35719   1.808   4.279   8.243
11826WAT     H135720   1.735   4.282   8.311
11826WAT     H235721   1.896   4.295   8.287
11827WAT      O35722   5.366   4.776   6.572
11827WAT     H135723   5.462   4.749   6.575
11827WAT     H235724   5.359   4.875   6.573
11828WAT      O35725   3.521   1.586   6.875
11828WAT     H135726   3.504   1.634   6.789
11828WAT     H235727   3.444   1.527   6.897
11829WAT      O35728   4.207   3.534   2.392
11829WAT     H135729   4.144   3.610   2.403
11829WAT     H235730   4.188   3.487   2.305
11830WAT      O35731   3.882   3.054   8.117
11830WAT     H135732   3.868   3.149   8.145
11830WAT     H235733   3.925   3.052   8.027
11831WAT      O35734   1.475   5.688   9.647
11831WAT     H135735   1.472   5.782   9.682
11831WAT     H235736   1.550   5.680   9.581
11832WAT      O35737   9.244   6.878   6.001
11832WAT     H135738   9.188   6.905   6.079
11832WAT     H235739   9.228   6.782   5.980
11833WAT      O35740   6.126   4.821   2.579
11833WAT     H135741   6.156   4.868   2.496
11833WAT     H235742   6.031   4.791   2.568
11834WAT      O35743   3.014   5.236   6.911
11834WAT     H135744   2.933   5.281   6.873
11834WAT     H235745   3.002   5.137   6.908
11835WAT      O35746   4.255   5.497   8.188
11835WAT     H135747   4.200   5.431   8.137
11835WAT     H235748   4.294   5.563   8.124
11836WAT      O35749   4.227   8.006   8.005
11836WAT     H135750   4.184   8.003   7.915
11836WAT     H235751   4.158   8.028   8.074
11837WAT      O35752   1.355   2.214   3.926
11837WAT     H135753   1.377   2.121   3.957
11837WAT     H235754   1.381   2.279   3.997
11838WAT      O35755   2.103   6.008   8.983
11838WAT     H135756   2.074   5.916   9.009
11838WAT     H235757   2.195   6.025   9.020
11839WAT      O35758   1.527   8.594   5.946
11839WAT     H135759   1.597   8.525   5.965
11839WAT     H235760   1.443   8.549   5.916
11840WAT      O35761   1.916   7.466   9.071
11840WAT     H135762   1.987   7.398   9.086
11840WAT     H235763   1.924   7.503   8.978
11841WAT      O35764   5.626   5.511   5.964
11841WAT     H135765   5.585   5.422   5.985
11841WAT     H235766   5.575   5.583   6.011
11842WAT      O35767   5.834   4.990   6.368
11842WAT     H135768   5.855   4.897   6.339
11842WAT     H235769   5.867   5.055   6.300
11843WAT      O35770   0.524   7.821   5.638
11843WAT     H135771   0.506   7.727   5.667
11843WAT     H235772   0.614   7.849   5.672
11844WAT      O35773   1.969   7.885   5.260
11844WAT     H135774   1.961   7.836   5.173
11844WAT     H235775   1.889   7.866   5.316
11845WAT      O35776   7.204   0.663   3.120
11845WAT     H135777   7.228   0.638   3.026
11845WAT     H235778   7.132   0.603   3.153
11846WAT      O35779   6.335   8.913   5.069
11846WAT     H135780   6.302   8.872   4.984
11846WAT     H235781   6.344   9.012   5.058
11847WAT      O35782   6.141   3.184   6.639
11847WAT     H135783   6.104   3.179   6.546
11847WAT     H235784   6.143   3.092   6.678
11848WAT      O35785   9.111   2.646   1.993
11848WAT     H135786   9.135   2.742   2.009
11848WAT     H235787   9.017   2.641   1.961
11849WAT      O35788   8.798   4.259   1.240
11849WAT     H135789   8.777   4.188   1.172
11849WAT     H235790   8.844   4.218   1.318
11850WAT      O35791   8.391   5.978   8.421
11850WAT     H135792   8.463   5.978   8.491
11850WAT     H235793   8.392   6.065   8.372
11851WAT      O35794   2.651   9.501   7.163
11851WAT     H135795   2.703   9.423   7.130
11851WAT     H235796   2.628   9.487   7.260
11852WAT      O35797   7.700   3.809   5.786
11852WAT     H135798   7.760   3.733   5.809
11852WAT     H235799   7.755   3.887   5.756
11853WAT      O35800   7.369   4.209   6.258
11853WAT     H135801   7.430   4.169   6.189
11853WAT     H235802   7.423   4.262   6.324
11854WAT      O35803   5.986   5.292   8.171
11854WAT     H135804   5.955   5.253   8.258
11854WAT     H235805   6.041   5.373   8.188
11855WAT      O35806   8.085   4.854   7.240
11855WAT     H135807   8.100   4.760   7.207
11855WAT     H235808   8.047   4.909   7.166
11856WAT      O35809   7.595   2.496   3.040
11856WAT     H135810   7.565   2.413   2.993
11856WAT     H235811   7.593   2.574   2.977
11857WAT      O35812   5.010   1.440   1.355
11857WAT     H135813   5.031   1.447   1.258
11857WAT     H235814   4.982   1.529   1.390
11858WAT      O35815   3.208   2.357   7.808
11858WAT     H135816   3.307   2.348   7.819
11858WAT     H235817   3.165   2.268   7.823
11859WAT      O35818   4.034   9.782   6.007
11859WAT     H135819   4.099   9.854   6.032
11859WAT     H235820   4.070   9.732   5.928
11860WAT      O35821   0.097   7.378   4.728
11860WAT     H135822   0.073   7.337   4.641
11860WAT     H235823   0.014   7.397   4.780
11861WAT      O35824   8.169   7.304   2.994
11861WAT     H135825   8.199   7.322   2.901
11861WAT     H235826   8.184   7.207   3.015
11862WAT      O35827   4.474   6.314   8.917
11862WAT     H135828   4.483   6.324   9.017
11862WAT     H235829   4.532   6.239   8.887
11863WAT      O35830   6.440   9.716   2.013
11863WAT     H135831   6.484   9.778   2.078
11863WAT     H235832   6.448   9.622   2.044
11864WAT      O35833   8.834   4.239   2.077
11864WAT     H135834   8.782   4.272   1.999
11864WAT     H235835   8.778   4.175   2.130
11865WAT      O35836   7.316   4.017   9.483
11865WAT     H135837   7.394   4.027   9.421
11865WAT     H235838   7.300   4.104   9.530
11866WAT      O35839   1.722   2.191   5.085
11866WAT     H135840   1.693   2.180   5.180
11866WAT     H235841   1.806   2.138   5.069
11867WAT      O35842   1.695   2.950   7.312
11867WAT     H135843   1.727   2.986   7.400
11867WAT     H235844   1.678   3.026   7.249
11868WAT      O35845   6.150   1.138   7.315
11868WAT     H135846   6.174   1.074   7.242
11868WAT     H235847   6.232   1.187   7.345
11869WAT      O35848   8.841   8.562   5.318
11869WAT     H135849   8.878   8.624   5.249
11869WAT     H235850   8.896   8.478   5.320
11870WAT      O35851   4.619   2.296   5.278
11870WAT     H135852   4.685   2.371   5.268
11870WAT     H235853   4.603   2.253   5.189
11871WAT      O35854   6.722   2.090   4.255
11871WAT     H135855   6.683   2.059   4.168
11871WAT     H235856   6.814   2.126   4.240
11872WAT      O35857   5.597   7.324   0.325
11872WAT     H135858   5.535   7.402   0.316
11872WAT     H235859   5.669   7.329   0.255
11873WAT      O35860   6.384   8.796   6.026
11873WAT     H135861   6.467   8.846   5.998
11873WAT     H235862   6.374   8.714   5.970
11874WAT      O35863   1.867   5.253   8.220
11874WAT     H135864   1.892   5.175   8.164
11874WAT     H235865   1.949   5.294   8.260
11875WAT      O35866   5.135   3.533   4.940
11875WAT     H135867   5.104   3.438   4.950
11875WAT     H235868   5.117   3.563   4.846
11876WAT      O35869   9.261   5.634   3.984
11876WAT     H135870   9.316   5.553   4.006
11876WAT     H235871   9.167   5.619   4.014
11877WAT      O35872   5.012   9.525   3.003
11877WAT     H135873   5.036   9.588   3.077
11877WAT     H235874   5.048   9.561   2.916
11878WAT      O35875   2.648   2.895   6.368
11878WAT     H135876   2.747   2.877   6.372
11878WAT     H235877   2.599   2.817   6.406
11879WAT      O35878   1.395   5.611   4.742
11879WAT     H135879   1.326   5.662   4.690
11879WAT     H235880   1.441   5.546   4.681
11880WAT      O35881   2.157   8.721   5.025
11880WAT     H135882   2.195   8.768   5.104
11880WAT     H235883   2.064   8.754   5.008
11881WAT      O35884   7.791   4.419   3.673
11881WAT     H135885   7.827   4.390   3.585
11881WAT     H235886   7.751   4.510   3.664
11882WAT      O35887   3.722   8.373   6.032
11882WAT     H135888   3.741   8.458   6.081
11882WAT     H235889   3.623   8.363   6.021
11883WAT      O35890   5.409   3.164   8.047
11883WAT     H135891   5.458   3.143   7.963
11883WAT     H235892   5.311   3.149   8.033
11884WAT      O35893   1.597   1.174   4.873
11884WAT     H135894   1.569   1.265   4.841
11884WAT     H235895   1.645   1.126   4.800
11885WAT      O35896   1.130   8.085   9.412
11885WAT     H135897   1.229   8.095   9.418
11885WAT     H235898   1.098   8.025   9.486
11886WAT      O35899   7.778   1.280   0.409
11886WAT     H135900   7.726   1.356   0.448
11886WAT     H235901   7.852   1.254   0.471
11887WAT      O35902   7.254   9.046   0.112
11887WAT     H135903   7.302   9.124   0.153
11887WAT     H235904   7.199   9.001   0.182
11888WAT      O35905   4.764   7.284   4.547
11888WAT     H135906   4.689   7.232   4.588
11888WAT     H235907   4.827   7.221   4.502
11889WAT      O35908   3.184   6.588   0.017
11889WAT     H135909   3.148   6.657   0.081
11889WAT     H235910   3.136   6.595  -0.070
11890WAT      O35911   8.524   1.337   9.188
11890WAT     H135912   8.618   1.316   9.160
11890WAT     H235913   8.481   1.395   9.119
11891WAT      O35914   6.050   0.542   4.805
11891WAT     H135915   6.018   0.599   4.880
11891WAT     H235916   6.080   0.599   4.730
11892WAT      O35917   9.408   7.889   2.454
11892WAT     H135918   9.506   7.873   2.462
11892WAT     H235919   9.370   7.830   2.382
11893WAT      O35920   6.461   5.414   1.752
11893WAT     H135921   6.528   5.403   1.826
11893WAT     H235922   6.498   5.476   1.682
11894WAT      O35923   3.906   4.316   2.859
11894WAT     H135924   3.979   4.317   2.928
11894WAT     H235925   3.918   4.237   2.799
11895WAT      O35926   5.737   8.636   3.190
11895WAT     H135927   5.686   8.676   3.114
11895WAT     H235928   5.674   8.599   3.258
11896WAT      O35929   0.617   8.370   6.166
11896WAT     H135930   0.656   8.428   6.237
11896WAT     H235931   0.687   8.350   6.097
11897WAT      O35932   5.332   0.724   1.567
11897WAT     H135933   5.328   0.709   1.468
11897WAT     H235934   5.262   0.790   1.594
11898WAT      O35935   7.053   1.617   7.182
11898WAT     H135936   6.953   1.623   7.188
11898WAT     H235937   7.088   1.564   7.258
11899WAT      O35938   5.188   3.424   9.867
11899WAT     H135939   5.253   3.466   9.804
11899WAT     H235940   5.237   3.389   9.947
11900WAT      O35941   8.772   9.025   7.220
11900WAT     H135942   8.711   8.956   7.260
11900WAT     H235943   8.733   9.116   7.233
11901WAT      O35944   8.174   5.091   7.365
11901WAT     H135945   8.150   5.010   7.312
11901WAT     H235946   8.091   5.143   7.385
11902WAT      O35947   7.766   3.836   1.433
11902WAT     H135948   7.779   3.788   1.520
11902WAT     H235949   7.785   3.933   1.446
11903WAT      O35950   6.303   3.886   0.117
11903WAT     H135951   6.381   3.839   0.076
11903WAT     H235952   6.223   3.826   0.116
11904WAT      O35953   5.641   3.543   8.327
11904WAT     H135954   5.547   3.532   8.295
11904WAT     H235955   5.639   3.570   8.424
11905WAT      O35956   3.740   9.590   4.980
11905WAT     H135957   3.784   9.661   4.925
11905WAT     H235958   3.727   9.508   4.924
11906WAT      O35959   4.458   3.014   8.092
11906WAT     H135960   4.554   3.028   8.067
11906WAT     H235961   4.404   3.093   8.064
11907WAT      O35962   2.540   6.574   8.472
11907WAT     H135963   2.480   6.498   8.447
11907WAT     H235964   2.509   6.658   8.427
11908WAT      O35965   5.042   8.803   0.011
11908WAT     H135966   5.001   8.717   0.040
11908WAT     H235967   4.990   8.839  -0.067
11909WAT      O35968   8.314   9.633   3.287
11909WAT     H135969   8.377   9.568   3.243
11909WAT     H235970   8.297   9.709   3.225
11910WAT      O35971   6.338   0.521   4.187
11910WAT     H135972   6.241   0.511   4.210
11910WAT     H235973   6.386   0.436   4.210
11911WAT      O35974   5.824   9.044   7.800
11911WAT     H135975   5.770   8.961   7.790
11911WAT     H235976   5.912   9.023   7.841
11912WAT      O35977   5.159   3.482   1.452
11912WAT     H135978   5.203   3.564   1.416
11912WAT     H235979   5.060   3.498   1.459
11913WAT      O35980   3.060   0.694   3.775
11913WAT     H135981   3.141   0.737   3.737
11913WAT     H235982   3.060   0.596   3.754
11914WAT      O35983   2.059   7.940   2.202
11914WAT     H135984   2.011   7.919   2.287
11914WAT     H235985   2.006   8.007   2.150
11915WAT      O35986   0.079   1.504   1.434
11915WAT     H135987   0.006   1.529   1.371
11915WAT     H235988   0.154   1.461   1.384
11916WAT      O35989   3.585   7.750   1.732
11916WAT     H135990   3.670   7.797   1.711
11916WAT     H235991   3.517   7.817   1.763
11917WAT      O35992   7.091   6.526   3.504
11917WAT     H135993   7.089   6.469   3.421
11917WAT     H235994   7.157   6.600   3.491
11918WAT      O35995   8.928   7.677   6.214
11918WAT     H135996   8.937   7.675   6.314
11918WAT     H235997   8.900   7.769   6.186
11919WAT      O35998   3.594   1.315   3.440
11919WAT     H135999   3.689   1.338   3.460
11919WAT     H236000   3.571   1.344   3.348
11920WAT      O36001   7.560   3.535   4.418
11920WAT     H136002   7.567   3.451   4.364
11920WAT     H236003   7.497   3.521   4.494
11921WAT      O36004   2.915   6.426   9.098
11921WAT     H136005   2.915   6.521   9.066
11921WAT     H236006   2.962   6.369   9.030
11922WAT      O36007   1.780   8.202   8.915
11922WAT     H136008   1.878   8.220   8.912
11922WAT     H236009   1.747   8.178   8.823
11923WAT      O36010   4.900   9.732   5.210
11923WAT     H136011   4.930   9.658   5.271
11923WAT     H236012   4.877   9.813   5.264
11924WAT      O36013   0.528   8.469   9.220
11924WAT     H136014   0.564   8.482   9.127
11924WAT     H236015   0.598   8.429   9.278
11925WAT      O36016   4.766   2.748   1.479
11925WAT     H136017   4.847   2.794   1.442
11925WAT     H236018   4.683   2.792   1.444
11926WAT      O36019   0.603   8.145   5.085
11926WAT     H136020   0.683   8.204   5.083
11926WAT     H236021   0.526   8.194   5.126
11927WAT      O36022   2.969   9.771   9.438
11927WAT     H136023   2.902   9.726   9.497
11927WAT     H236024   3.021   9.838   9.492
11928WAT      O36025   9.183   1.084   9.798
11928WAT     H136026   9.214   1.040   9.714
11928WAT     H236027   9.167   1.015   9.868
11929WAT      O36028   9.033   7.175   4.593
11929WAT     H136029   9.129   7.200   4.583
11929WAT     H236030   8.978   7.224   4.526
11930WAT      O36031   6.898   0.497   2.569
11930WAT     H136032   6.982   0.467   2.524
11930WAT     H236033   6.893   0.456   2.661
11931WAT      O36034   3.489   5.966   8.091
11931WAT     H136035   3.418   5.928   8.150
11931WAT     H236036   3.579   5.939   8.126
11932WAT      O36037   6.549   1.572   0.537
11932WAT     H136038   6.618   1.530   0.595
11932WAT     H236039   6.464   1.583   0.589
11933WAT      O36040   8.084   7.933   4.281
11933WAT     H136041   8.165   7.966   4.233
11933WAT     H236042   8.091   7.834   4.293
11934WAT      O36043   3.621   8.748   5.958
11934WAT     H136044   3.695   8.701   6.006
11934WAT     H236045   3.572   8.807   6.022
11935WAT      O36046   5.220   6.274   0.028
11935WAT     H136047   5.204   6.366  -0.009
11935WAT     H236048   5.292   6.229  -0.024
11936WAT      O36049   7.501   7.811   1.839
11936WAT     H136050   7.500   7.721   1.882
11936WAT     H236051   7.443   7.810   1.757
11937WAT      O36052   9.206   3.816   6.470
11937WAT     H136053   9.166   3.900   6.432
11937WAT     H236054   9.171   3.803   6.563
11938WAT      O36055   0.307   8.176   9.740
11938WAT     H136056   0.338   8.154   9.832
11938WAT     H236057   0.257   8.098   9.702
11939WAT      O36058   5.813   2.651   6.841
11939WAT     H136059   5.781   2.630   6.934
11939WAT     H236060   5.778   2.581   6.778
11940WAT      O36061   2.002   1.243   8.273
11940WAT     H136062   2.053   1.290   8.201
11940WAT     H236063   1.915   1.290   8.289
11941WAT      O36064   6.698   7.227   4.496
11941WAT     H136065   6.767   7.172   4.449
11941WAT     H236066   6.627   7.255   4.432
11942WAT      O36067   9.164   1.721   2.038
11942WAT     H136068   9.204   1.806   2.003
11942WAT     H236069   9.066   1.720   2.018
11943WAT      O36070   0.752   8.016   9.547
11943WAT     H136071   0.681   7.947   9.533
11943WAT     H236072   0.749   8.048   9.641
11944WAT      O36073   7.839   1.369   2.413
11944WAT     H136074   7.806   1.275   2.424
11944WAT     H236075   7.808   1.405   2.325
11945WAT      O36076   3.268   8.718   6.064
11945WAT     H136077   3.303   8.683   5.978
11945WAT     H236078   3.199   8.655   6.100
11946WAT      O36079   6.658   3.924   7.780
11946WAT     H136080   6.626   3.830   7.789
11946WAT     H236081   6.589   3.987   7.817
11947WAT      O36082   0.677   4.624   5.781
11947WAT     H136083   0.636   4.666   5.700
11947WAT     H236084   0.611   4.623   5.855
11948WAT      O36085   7.778   8.999   2.106
11948WAT     H136086   7.722   8.968   2.029
11948WAT     H236087   7.848   8.930   2.125
11949WAT      O36088   6.964   1.349   1.279
11949WAT     H136089   7.024   1.362   1.200
11949WAT     H236090   6.869   1.344   1.248
11950WAT      O36091   5.849   4.147   1.364
11950WAT     H136092   5.799   4.233   1.356
11950WAT     H236093   5.930   4.161   1.421
11951WAT      O36094   9.060   2.809   0.612
11951WAT     H136095   9.141   2.867   0.601
11951WAT     H236096   8.979   2.867   0.624
11952WAT      O36097   4.269   7.768   3.533
11952WAT     H136098   4.238   7.804   3.445
11952WAT     H236099   4.319   7.840   3.582
11953WAT      O36100   9.613   6.449   8.547
11953WAT     H136101   9.621   6.507   8.466
11953WAT     H236102   9.517   6.422   8.559
11954WAT      O36103   0.533   7.717   9.273
11954WAT     H136104   0.630   7.698   9.290
11954WAT     H236105   0.489   7.637   9.233
11955WAT      O36106   7.132   3.788   5.357
11955WAT     H136107   7.136   3.861   5.425
11955WAT     H236108   7.223   3.774   5.318
11956WAT      O36109   6.556   6.278   5.587
11956WAT     H136110   6.471   6.330   5.583
11956WAT     H236111   6.562   6.230   5.674
11957WAT      O36112   2.188   9.378   7.739
11957WAT     H136113   2.234   9.297   7.703
11957WAT     H236114   2.245   9.459   7.724
11958WAT      O36115   8.763   6.641   5.039
11958WAT     H136116   8.672   6.617   5.007
11958WAT     H236117   8.812   6.689   4.966
11959WAT      O36118   3.579   6.232   9.416
11959WAT     H136119   3.591   6.140   9.379
11959WAT     H236120   3.553   6.294   9.342
11960WAT      O36121   0.589   5.681   8.701
11960WAT     H136122   0.641   5.595   8.700
11960WAT     H236123   0.575   5.713   8.607
11961WAT      O36124   0.762   8.418   3.665
11961WAT     H136125   0.697   8.471   3.721
11961WAT     H236126   0.800   8.478   3.594
11962WAT      O36127   1.562   1.164   8.976
11962WAT     H136128   1.516   1.075   8.976
11962WAT     H236129   1.510   1.228   9.034
11963WAT      O36130   9.260   8.972   1.904
11963WAT     H136131   9.297   9.065   1.915
11963WAT     H236132   9.336   8.907   1.900
11964WAT      O36133   3.720   1.977   5.312
11964WAT     H136134   3.767   2.021   5.388
11964WAT     H236135   3.640   1.929   5.346
11965WAT      O36136   1.406   3.707   0.756
11965WAT     H136137   1.496   3.676   0.789
11965WAT     H236138   1.414   3.799   0.719
11966WAT      O36139   7.140   9.149   3.214
11966WAT     H136140   7.224   9.149   3.159
11966WAT     H236141   7.146   9.221   3.283
11967WAT      O36142   0.352   9.486   3.707
11967WAT     H136143   0.376   9.436   3.624
11967WAT     H236144   0.428   9.482   3.772
11968WAT      O36145   9.270   8.575   1.005
11968WAT     H136146   9.281   8.510   1.080
11968WAT     H236147   9.174   8.578   0.977
11969WAT      O36148   0.308   6.399   3.351
11969WAT     H136149   0.341   6.329   3.288
11969WAT     H236150   0.301   6.361   3.443
11970WAT      O36151   4.633   9.615   7.680
11970WAT     H136152   4.610   9.529   7.725
11970WAT     H236153   4.619   9.606   7.581
11971WAT      O36154   9.431   6.221   5.655
11971WAT     H136155   9.472   6.300   5.699
11971WAT     H236156   9.489   6.141   5.669
11972WAT      O36157   3.261   8.144   0.683
11972WAT     H136158   3.277   8.094   0.768
11972WAT     H236159   3.343   8.196   0.659
11973WAT      O36160   9.861   2.554   9.569
11973WAT     H136161   9.771   2.590   9.595
11973WAT     H236162   9.850   2.467   9.520
11974WAT      O36163   3.200   3.534   4.957
11974WAT     H136164   3.231   3.526   5.052
11974WAT     H236165   3.125   3.470   4.941
11975WAT      O36166   7.763   4.383   2.213
11975WAT     H136167   7.836   4.428   2.264
11975WAT     H236168   7.721   4.312   2.270
11976WAT      O36169   4.083   2.904   5.223
11976WAT     H136170   4.130   2.820   5.195
11976WAT     H236171   4.114   2.980   5.165
11977WAT      O36172   5.500   6.586   7.140
11977WAT     H136173   5.554   6.563   7.222
11977WAT     H236174   5.562   6.599   7.063
11978WAT      O36175   8.128   0.492   1.000
11978WAT     H136176   8.176   0.576   1.026
11978WAT     H236177   8.035   0.514   0.971
11979WAT      O36178   3.521   3.105   1.371
11979WAT     H136179   3.560   3.076   1.283
11979WAT     H236180   3.469   3.189   1.358
11980WAT      O36181   0.927   7.746   3.773
11980WAT     H136182   0.880   7.825   3.814
11980WAT     H236183   0.920   7.668   3.835
11981WAT      O36184   5.314   8.722   1.616
11981WAT     H136185   5.408   8.691   1.622
11981WAT     H236186   5.283   8.718   1.520
11982WAT      O36187   4.760   0.095   2.431
11982WAT     H136188   4.810   0.129   2.511
11982WAT     H236189   4.664   0.122   2.438
11983WAT      O36190   0.673   4.888   4.971
11983WAT     H136191   0.699   4.976   4.931
11983WAT     H236192   0.689   4.890   5.070
11984WAT      O36193   8.115   4.243   9.675
11984WAT     H136194   8.046   4.263   9.605
11984WAT     H236195   8.180   4.318   9.679
11985WAT      O36196   6.776   9.752   4.205
11985WAT     H136197   6.785   9.815   4.282
11985WAT     H236198   6.679   9.742   4.181
11986WAT      O36199   5.839   7.016   6.578
11986WAT     H136200   5.858   6.918   6.569
11986WAT     H236201   5.901   7.056   6.645
11987WAT      O36202   0.859   8.263   5.412
11987WAT     H136203   0.939   8.253   5.471
11987WAT     H236204   0.800   8.183   5.422
11988WAT      O36205   1.200   4.911   3.851
11988WAT     H136206   1.163   5.004   3.859
11988WAT     H236207   1.231   4.896   3.757
11989WAT      O36208   8.090   3.127   9.672
11989WAT     H136209   8.086   3.087   9.580
11989WAT     H236210   8.092   3.227   9.664
11990WAT      O36211   5.867   7.219   9.246
11990WAT     H136212   5.961   7.252   9.235
11990WAT     H236213   5.828   7.199   9.157
11991WAT      O36214   5.893   5.947   2.253
11991WAT     H136215   5.862   5.911   2.166
11991WAT     H236216   5.888   6.047   2.252
11992WAT      O36217   7.461   1.182   8.950
11992WAT     H136218   7.478   1.100   8.896
11992WAT     H236219   7.483   1.263   8.896
11993WAT      O36220   8.251   3.913   3.930
11993WAT     H136221   8.311   3.885   3.854
11993WAT     H236222   8.217   4.006   3.913
11994WAT      O36223   8.897   8.181   6.509
11994WAT     H136224   8.809   8.160   6.552
11994WAT     H236225   8.883   8.250   6.437
11995WAT      O36226   7.521   6.892   9.439
11995WAT     H136227   7.592   6.923   9.503
11995WAT     H236228   7.511   6.959   9.365
11996WAT      O36229   3.886   1.134   5.471
11996WAT     H136230   3.898   1.230   5.496
11996WAT     H236231   3.789   1.112   5.472
11997WAT      O36232   6.340   7.944   6.039
11997WAT     H136233   6.330   7.998   5.956
11997WAT     H236234   6.281   7.863   6.033
11998WAT      O36235   5.064   2.165   4.723
11998WAT     H136236   5.059   2.105   4.642
11998WAT     H236237   5.003   2.243   4.711
11999WAT      O36238   9.866   4.546   0.845
11999WAT     H136239   9.880   4.611   0.920
11999WAT     H236240   9.954   4.523   0.804
12000WAT      O36241   1.171   9.673   6.254
12000WAT     H136242   1.258   9.639   6.289
12000WAT     H236243   1.113   9.701   6.331
12001WAT      O36244   3.475   0.413   1.490
12001WAT     H136245   3.541   0.409   1.415
12001WAT     H236246   3.522   0.435   1.575
12002WAT      O36247   0.513   8.326   5.329
12002WAT     H136248   0.474   8.371   5.410
12002WAT     H236249   0.473   8.366   5.247
12003WAT      O36250   5.710   7.657   4.233
12003WAT     H136251   5.729   7.743   4.280
12003WAT     H236252   5.771   7.586   4.266
12004WAT      O36253   5.546   3.593   6.126
12004WAT     H136254   5.503   3.503   6.117
12004WAT     H236255   5.508   3.655   6.057
12005WAT      O36256   5.192   5.201   9.212
12005WAT     H136257   5.217   5.209   9.309
12005WAT     H236258   5.273   5.216   9.156
12006WAT      O36259   4.461   2.471   2.754
12006WAT     H136260   4.510   2.390   2.788
12006WAT     H236261   4.390   2.497   2.819
12007WAT      O36262   4.278   0.069   6.241
12007WAT     H136263   4.377   0.060   6.247
12007WAT     H236264   4.253   0.116   6.156
12008WAT      O36265   2.726   5.298   9.130
12008WAT     H136266   2.703   5.366   9.060
12008WAT     H236267   2.825   5.285   9.133
12009WAT      O36268   8.323   9.805   5.845
12009WAT     H136269   8.343   9.765   5.935
12009WAT     H236270   8.295   9.900   5.856
12010WAT      O36271   8.288   0.239   1.756
12010WAT     H136272   8.215   0.202   1.697
12010WAT     H236273   8.367   0.179   1.753
12011WAT      O36274   7.685   8.712   0.050
12011WAT     H136275   7.614   8.707   0.121
12011WAT     H236276   7.643   8.707  -0.040
12012WAT      O36277   5.923   1.370   0.211
12012WAT     H136278   5.953   1.350   0.118
12012WAT     H236279   5.837   1.421   0.208
12013WAT      O36280   9.430   4.614   4.721
12013WAT     H136281   9.405   4.524   4.755
12013WAT     H236282   9.481   4.605   4.636
12014WAT      O36283   1.672   0.631   5.231
12014WAT     H136284   1.591   0.647   5.175
12014WAT     H236285   1.685   0.532   5.243
12015WAT      O36286   6.006   6.851   1.729
12015WAT     H136287   6.015   6.772   1.790
12015WAT     H236288   6.069   6.923   1.757
12016WAT      O36289   8.690   1.505   7.381
12016WAT     H136290   8.681   1.553   7.293
12016WAT     H236291   8.764   1.438   7.375
12017WAT      O36292   1.254   1.303   8.306
12017WAT     H136293   1.267   1.258   8.395
12017WAT     H236294   1.306   1.254   8.236
12018WAT      O36295   8.547   7.962   4.764
12018WAT     H136296   8.589   7.945   4.853
12018WAT     H236297   8.466   7.905   4.754
12019WAT      O36298   2.360   7.411   4.254
12019WAT     H136299   2.386   7.354   4.332
12019WAT     H236300   2.345   7.353   4.174
12020WAT      O36301   8.029   2.252   9.860
12020WAT     H136302   7.995   2.265   9.953
12020WAT     H236303   7.990   2.168   9.822
12021WAT      O36304   2.681   5.315   5.849
12021WAT     H136305   2.708   5.227   5.888
12021WAT     H236306   2.583   5.330   5.865
12022WAT      O36307   4.443   0.500   5.999
12022WAT     H136308   4.344   0.501   6.007
12022WAT     H236309   4.473   0.416   5.953
12023WAT      O36310   8.246   8.699   5.547
12023WAT     H136311   8.315   8.699   5.620
12023WAT     H236312   8.167   8.753   5.576
12024WAT      O36313   9.590   0.236   6.719
12024WAT     H136314   9.684   0.247   6.688
12024WAT     H236315   9.532   0.210   6.642
12025WAT      O36316   9.742   6.526   1.954
12025WAT     H136317   9.755   6.621   1.925
12025WAT     H236318   9.767   6.465   1.879
12026WAT      O36319   3.415   3.097   0.973
12026WAT     H136320   3.428   3.196   0.967
12026WAT     H236321   3.318   3.075   0.958
12027WAT      O36322   5.266   4.215   0.526
12027WAT     H136323   5.255   4.149   0.452
12027WAT     H236324   5.185   4.274   0.530
12028WAT      O36325   1.745   5.475   5.428
12028WAT     H136326   1.781   5.441   5.341
12028WAT     H236327   1.808   5.543   5.466
12029WAT      O36328   8.148   5.928   6.593
12029WAT     H136329   8.094   5.865   6.539
12029WAT     H236330   8.210   5.979   6.533
12030WAT      O36331   3.594   6.623   2.132
12030WAT     H136332   3.621   6.719   2.137
12030WAT     H236333   3.657   6.574   2.073
12031WAT      O36334   3.758   8.334   5.400
12031WAT     H136335   3.746   8.241   5.365
12031WAT     H236336   3.795   8.330   5.493
12032WAT      O36337   6.220   2.785   1.144
12032WAT     H136338   6.231   2.872   1.193
12032WAT     H236339   6.134   2.787   1.092
12033WAT      O36340   6.840   9.252   5.208
12033WAT     H136341   6.864   9.346   5.182
12033WAT     H236342   6.903   9.188   5.164
12034WAT      O36343   1.387   3.986   5.014
12034WAT     H136344   1.340   4.043   4.947
12034WAT     H236345   1.403   4.039   5.097
12035WAT      O36346   2.422   7.091   8.397
12035WAT     H136347   2.496   7.081   8.464
12035WAT     H236348   2.382   7.182   8.405
12036WAT      O36349   5.304   7.687   5.400
12036WAT     H136350   5.232   7.619   5.413
12036WAT     H236351   5.385   7.660   5.451
12037WAT      O36352   7.023   0.795   5.728
12037WAT     H136353   7.020   0.720   5.661
12037WAT     H236354   7.118   0.823   5.743
12038WAT      O36355   9.385   9.319   8.358
12038WAT     H136356   9.344   9.238   8.401
12038WAT     H236357   9.460   9.290   8.298
12039WAT      O36358   0.717   3.123   0.737
12039WAT     H136359   0.650   3.160   0.802
12039WAT     H236360   0.672   3.059   0.676
12040WAT      O36361   9.581   6.166   0.577
12040WAT     H136362   9.517   6.109   0.526
12040WAT     H236363   9.531   6.224   0.641
12041WAT      O36364   6.879   7.730   8.266
12041WAT     H136365   6.894   7.675   8.348
12041WAT     H236366   6.967   7.764   8.232
12042WAT      O36367   1.802   0.640   6.705
12042WAT     H136368   1.881   0.614   6.760
12042WAT     H236369   1.724   0.583   6.731
12043WAT      O36370   4.809   2.670   1.757
12043WAT     H136371   4.760   2.735   1.815
12043WAT     H236372   4.779   2.680   1.662
12044WAT      O36373   0.616   7.090   4.678
12044WAT     H136374   0.603   6.991   4.685
12044WAT     H236375   0.619   7.130   4.769
12045WAT      O36376   8.594   9.424   5.375
12045WAT     H136377   8.628   9.481   5.300
12045WAT     H236378   8.612   9.327   5.353
12046WAT      O36379   6.407   9.829   6.855
12046WAT     H136380   6.393   9.911   6.798
12046WAT     H236381   6.477   9.848   6.923
12047WAT      O36382   0.953   7.928   9.220
12047WAT     H136383   0.996   7.963   9.303
12047WAT     H236384   0.963   7.994   9.146
12048WAT      O36385   4.391   9.286   0.838
12048WAT     H136386   4.385   9.366   0.897
12048WAT     H236387   4.319   9.291   0.768
12049WAT      O36388   6.005   6.832   7.743
12049WAT     H136389   5.943   6.758   7.767
12049WAT     H236390   6.089   6.823   7.798
12050WAT      O36391   1.432   7.378   2.136
12050WAT     H136392   1.392   7.457   2.089
12050WAT     H236393   1.531   7.391   2.144
12051WAT      O36394   1.754   6.044   0.492
12051WAT     H136395   1.731   6.037   0.589
12051WAT     H236396   1.711   6.126   0.453
12052WAT      O36397   0.200   3.093   2.542
12052WAT     H136398   0.181   3.166   2.477
12052WAT     H236399   0.141   3.014   2.523
12053WAT      O36400   1.677   4.705   1.107
12053WAT     H136401   1.578   4.707   1.116
12053WAT     H236402   1.718   4.771   1.171
12054WAT      O36403   8.638   8.109   8.088
12054WAT     H136404   8.697   8.109   8.008
12054WAT     H236405   8.547   8.075   8.063
12055WAT      O36406   9.584   9.158   8.569
12055WAT     H136407   9.567   9.211   8.653
12055WAT     H236408   9.501   9.158   8.514
12056WAT      O36409   1.949   1.380   4.917
12056WAT     H136410   2.016   1.307   4.930
12056WAT     H236411   1.925   1.420   5.006
12057WAT      O36412   5.796   7.082   7.067
12057WAT     H136413   5.748   6.994   7.063
12057WAT     H236414   5.764   7.133   7.147
12058WAT      O36415   5.070   3.323   6.368
12058WAT     H136416   5.127   3.257   6.416
12058WAT     H236417   4.991   3.277   6.328
12059WAT      O36418   5.857   3.678   0.320
12059WAT     H136419   5.785   3.731   0.275
12059WAT     H236420   5.845   3.682   0.419
12060WAT      O36421   3.480   8.571   2.478
12060WAT     H136422   3.392   8.586   2.433
12060WAT     H236423   3.540   8.517   2.418
12061WAT      O36424   7.677   0.737   3.398
12061WAT     H136425   7.696   0.775   3.489
12061WAT     H236426   7.584   0.762   3.371
12062WAT      O36427   9.139   3.267   6.519
12062WAT     H136428   9.201   3.191   6.499
12062WAT     H236429   9.056   3.232   6.562
12063WAT      O36430   7.154   4.521   0.801
12063WAT     H136431   7.099   4.449   0.759
12063WAT     H236432   7.203   4.572   0.730
12064WAT      O36433   6.512   2.491   8.533
12064WAT     H136434   6.582   2.437   8.581
12064WAT     H236435   6.498   2.577   8.581
12065WAT      O36436   3.761   4.540   8.263
12065WAT     H136437   3.841   4.594   8.234
12065WAT     H236438   3.772   4.446   8.231
12066WAT      O36439   1.941   8.963   8.727
12066WAT     H136440   2.017   9.026   8.718
12066WAT     H236441   1.932   8.909   8.644
12067WAT      O36442   5.686   3.167   1.946
12067WAT     H136443   5.617   3.220   1.898
12067WAT     H236444   5.699   3.204   2.038
12068WAT      O36445   1.472   0.793   5.047
12068WAT     H136446   1.377   0.769   5.031
12068WAT     H236447   1.480   0.842   5.134
12069WAT      O36448   4.691   0.895   8.025
12069WAT     H136449   4.789   0.903   8.044
12069WAT     H236450   4.678   0.838   7.944
12070WAT      O36451   1.365   2.345   8.977
12070WAT     H136452   1.352   2.435   8.934
12070WAT     H236453   1.395   2.357   9.072
12071WAT      O36454   9.884   4.651   1.436
12071WAT     H136455   9.881   4.552   1.424
12071WAT     H236456   9.976   4.679   1.465
12072WAT      O36457   6.787   3.763   7.339
12072WAT     H136458   6.879   3.795   7.316
12072WAT     H236459   6.724   3.840   7.339
12073WAT      O36460   6.027   6.893   8.853
12073WAT     H136461   6.008   6.870   8.757
12073WAT     H236462   6.099   6.833   8.888
12074WAT      O36463   4.668   1.190   8.174
12074WAT     H136464   4.683   1.262   8.243
12074WAT     H236465   4.640   1.106   8.219
12075WAT      O36466   3.589   2.963   7.308
12075WAT     H136467   3.685   2.936   7.315
12075WAT     H236468   3.554   2.986   7.399
12076WAT      O36469   5.389   4.927   5.893
12076WAT     H136470   5.488   4.917   5.883
12076WAT     H236471   5.366   4.941   5.989
12077WAT      O36472   1.170   7.984   0.764
12077WAT     H136473   1.263   8.021   0.765
12077WAT     H236474   1.114   8.035   0.699
12078WAT      O36475   5.562   1.882   4.665
12078WAT     H136476   5.615   1.836   4.594
12078WAT     H236477   5.554   1.822   4.744
12079WAT      O36478   5.169   8.109   2.549
12079WAT     H136479   5.216   8.176   2.607
12079WAT     H236480   5.073   8.136   2.538
12080WAT      O36481   4.775   9.793   6.482
12080WAT     H136482   4.723   9.877   6.497
12080WAT     H236483   4.718   9.726   6.435
12081WAT      O36484   7.426   7.073   3.490
12081WAT     H136485   7.495   7.140   3.462
12081WAT     H236486   7.419   7.072   3.590
12082WAT      O36487   5.598   7.014   6.274
12082WAT     H136488   5.553   6.925   6.283
12082WAT     H236489   5.697   7.003   6.283
12083WAT      O36490   0.049   5.032   8.769
12083WAT     H136491   0.119   4.991   8.711
12083WAT     H236492   0.059   4.998   8.863
12084WAT      O36493   9.721   1.329   1.330
12084WAT     H136494   9.741   1.238   1.367
12084WAT     H236495   9.652   1.374   1.386
12085WAT      O36496   8.546   9.467   1.724
12085WAT     H136497   8.558   9.428   1.632
12085WAT     H236498   8.456   9.443   1.759
12086WAT      O36499   2.334   3.481   8.524
12086WAT     H136500   2.329   3.440   8.433
12086WAT     H236501   2.408   3.438   8.576
12087WAT      O36502   3.915   3.002   0.617
12087WAT     H136503   3.858   3.070   0.573
12087WAT     H236504   3.911   3.014   0.716
12088WAT      O36505   9.373   6.931   6.648
12088WAT     H136506   9.317   7.010   6.672
12088WAT     H236507   9.469   6.960   6.643
12089WAT      O36508   5.386   9.134   1.310
12089WAT     H136509   5.290   9.106   1.310
12089WAT     H236510   5.444   9.056   1.287
12090WAT      O36511   2.829   2.190   4.934
12090WAT     H136512   2.798   2.137   4.855
12090WAT     H236513   2.784   2.155   5.016
12091WAT      O36514   8.469   7.842   6.055
12091WAT     H136515   8.406   7.837   6.132
12091WAT     H236516   8.489   7.750   6.022
12092WAT      O36517   4.753   4.730   7.018
12092WAT     H136518   4.780   4.754   6.925
12092WAT     H236519   4.655   4.747   7.030
12093WAT      O36520   3.285   9.708   7.539
12093WAT     H136521   3.315   9.703   7.634
12093WAT     H236522   3.295   9.618   7.496
12094WAT      O36523   6.671   8.721   8.094
12094WAT     H136524   6.721   8.738   8.009
12094WAT     H236525   6.735   8.694   8.166
12095WAT      O36526   7.336   0.956   9.726
12095WAT     H136527   7.289   0.930   9.810
12095WAT     H236528   7.327   0.882   9.659
12096WAT      O36529   5.878   4.160   5.258
12096WAT     H136530   5.926   4.094   5.200
12096WAT     H236531   5.866   4.246   5.209
12097WAT      O36532   5.100   8.541   4.207
12097WAT     H136533   5.058   8.607   4.143
12097WAT     H236534   5.037   8.464   4.221
12098WAT      O36535   0.438   0.292   0.463
12098WAT     H136536   0.391   0.216   0.417
12098WAT     H236537   0.499   0.338   0.399
12099WAT      O36538   4.441   1.151   0.813
12099WAT     H136539   4.510   1.183   0.748
12099WAT     H236540   4.486   1.117   0.895
12100WAT      O36541   1.724   2.528   9.199
12100WAT     H136542   1.666   2.561   9.124
12100WAT     H236543   1.819   2.523   9.168
12101WAT      O36544   5.629   7.621   3.990
12101WAT     H136545   5.682   7.653   4.068
12101WAT     H236546   5.593   7.530   4.010
12102WAT      O36547   9.714   2.680   3.467
12102WAT     H136548   9.617   2.671   3.442
12102WAT     H236549   9.738   2.608   3.532
12103WAT      O36550   6.890   1.707   8.153
12103WAT     H136551   6.840   1.707   8.240
12103WAT     H236552   6.870   1.622   8.103
12104WAT      O36553   7.537   5.824   1.396
12104WAT     H136554   7.602   5.817   1.321
12104WAT     H236555   7.584   5.805   1.482
12105WAT      O36556   1.483   1.731   7.924
12105WAT     H136557   1.543   1.776   7.990
12105WAT     H236558   1.534   1.662   7.874
12106WAT      O36559   4.187   7.685   3.156
12106WAT     H136560   4.151   7.629   3.080
12106WAT     H236561   4.110   7.728   3.204
12107WAT      O36562   8.347   1.514   5.086
12107WAT     H136563   8.261   1.489   5.132
12107WAT     H236564   8.398   1.578   5.144
12108WAT      O36565   2.440   2.588   0.283
12108WAT     H136566   2.342   2.598   0.299
12108WAT     H236567   2.460   2.609   0.187
12109WAT      O36568   4.159   1.927   4.487
12109WAT     H136569   4.080   1.906   4.545
12109WAT     H236570   4.204   2.011   4.519
12110WAT      O36571   4.625   5.281   1.700
12110WAT     H136572   4.545   5.333   1.730
12110WAT     H236573   4.698   5.288   1.768
12111WAT      O36574   7.714   6.555   6.739
12111WAT     H136575   7.744   6.639   6.784
12111WAT     H236576   7.788   6.487   6.743
12112WAT      O36577   0.053   9.316   8.801
12112WAT     H136578  -0.019   9.382   8.823
12112WAT     H236579   0.124   9.318   8.871
12113WAT      O36580   8.317   8.035   1.996
12113WAT     H136581   8.410   7.997   2.003
12113WAT     H236582   8.322   8.134   1.982
12114WAT      O36583   5.046   1.221   3.873
12114WAT     H136584   5.064   1.219   3.774
12114WAT     H236585   4.957   1.261   3.889
12115WAT      O36586   4.275   2.822   0.742
12115WAT     H136587   4.301   2.910   0.782
12115WAT     H236588   4.217   2.837   0.662
12116WAT      O36589   8.739   4.602   2.075
12116WAT     H136590   8.664   4.536   2.086
12116WAT     H236591   8.710   4.675   2.014
12117WAT      O36592   9.654   4.492   2.602
12117WAT     H136593   9.589   4.542   2.545
12117WAT     H236594   9.633   4.394   2.599
12118WAT      O36595   2.464   9.568   1.712
12118WAT     H136596   2.377   9.617   1.702
12118WAT     H236597   2.512   9.601   1.793
12119WAT      O36598   1.823   2.957   4.537
12119WAT     H136599   1.848   2.979   4.443
12119WAT     H236600   1.754   3.021   4.569
12120WAT      O36601   4.757   8.648   5.616
12120WAT     H136602   4.822   8.718   5.645
12120WAT     H236603   4.724   8.669   5.524
12121WAT      O36604   6.019   9.784   2.448
12121WAT     H136605   6.045   9.795   2.544
12121WAT     H236606   5.945   9.847   2.426
12122WAT      O36607   4.085   1.861   7.983
12122WAT     H136608   4.138   1.926   7.929
12122WAT     H236609   4.053   1.787   7.925
12123WAT      O36610   8.035   6.563   6.474
12123WAT     H136611   7.955   6.601   6.426
12123WAT     H236612   8.084   6.637   6.520
12124WAT      O36613   7.565   6.501   5.592
12124WAT     H136614   7.515   6.424   5.552
12124WAT     H236615   7.551   6.501   5.691
12125WAT      O36616   4.274   7.220   8.345
12125WAT     H136617   4.294   7.162   8.424
12125WAT     H236618   4.205   7.176   8.288
12126WAT      O36619   5.171   8.335   1.364
12126WAT     H136620   5.116   8.411   1.397
12126WAT     H236621   5.153   8.321   1.266
12127WAT      O36622   0.671   8.540   2.362
12127WAT     H136623   0.673   8.509   2.267
12127WAT     H236624   0.625   8.473   2.419
12128WAT      O36625   7.802   6.799   5.026
12128WAT     H136626   7.785   6.874   4.962
12128WAT     H236627   7.769   6.825   5.116
12129WAT      O36628   1.296   5.261   4.564
12129WAT     H136629   1.240   5.235   4.485
12129WAT     H236630   1.381   5.210   4.562
12130WAT      O36631   9.440   7.434   9.521
12130WAT     H136632   9.346   7.458   9.543
12130WAT     H236633   9.459   7.340   9.552
12131WAT      O36634   8.310   5.768   7.582
12131WAT     H136635   8.311   5.753   7.681
12131WAT     H236636   8.270   5.688   7.537
12132WAT      O36637   1.146   7.237   5.876
12132WAT     H136638   1.143   7.152   5.929
12132WAT     H236639   1.229   7.238   5.820
12133WAT      O36640   4.782   6.381   1.478
12133WAT     H136641   4.824   6.307   1.426
12133WAT     H236642   4.816   6.380   1.572
12134WAT      O36643   3.716   6.404   7.094
12134WAT     H136644   3.618   6.385   7.081
12134WAT     H236645   3.765   6.387   7.009
12135WAT      O36646   0.653   8.065   9.856
12135WAT     H136647   0.571   8.009   9.865
12135WAT     H236648   0.689   8.087   9.946
12136WAT      O36649   9.064   8.812   1.778
12136WAT     H136650   9.020   8.878   1.717
12136WAT     H236651   9.126   8.860   1.840
12137WAT      O36652   8.803   6.788   4.243
12137WAT     H136653   8.718   6.815   4.197
12137WAT     H236654   8.781   6.749   4.333
12138WAT      O36655   7.564   5.269   9.446
12138WAT     H136656   7.579   5.259   9.544
12138WAT     H236657   7.652   5.277   9.399
12139WAT      O36658   3.587   0.660   5.976
12139WAT     H136659   3.589   0.675   5.877
12139WAT     H236660   3.610   0.564   5.996
12140WAT      O36661   5.281   4.853   7.527
12140WAT     H136662   5.295   4.787   7.453
12140WAT     H236663   5.361   4.911   7.536
12141WAT      O36664   6.394   5.195   3.052
12141WAT     H136665   6.349   5.273   3.008
12141WAT     H236666   6.361   5.111   3.010
12142WAT      O36667   0.590   0.730   9.239
12142WAT     H136668   0.504   0.779   9.225
12142WAT     H236669   0.572   0.641   9.281
12143WAT      O36670   0.383   2.624   8.683
12143WAT     H136671   0.307   2.618   8.620
12143WAT     H236672   0.351   2.656   8.772
12144WAT      O36673   7.931   6.855   0.022
12144WAT     H136674   7.921   6.783  -0.046
12144WAT     H236675   7.945   6.814   0.112
12145WAT      O36676   9.472   4.892   2.311
12145WAT     H136677   9.433   4.977   2.275
12145WAT     H236678   9.411   4.855   2.380
12146WAT      O36679   5.836   2.745   2.032
12146WAT     H136680   5.807   2.656   2.069
12146WAT     H236681   5.826   2.744   1.933
12147WAT      O36682   3.131   6.992   3.105
12147WAT     H136683   3.106   6.923   3.173
12147WAT     H236684   3.230   7.007   3.107
12148WAT      O36685   2.065   7.865   9.700
12148WAT     H136686   1.968   7.878   9.724
12148WAT     H236687   2.085   7.912   9.614
12149WAT      O36688   3.106   5.319   9.824
12149WAT     H136689   3.166   5.383   9.872
12149WAT     H236690   3.117   5.228   9.864
12150WAT      O36691   3.209   7.738   9.718
12150WAT     H136692   3.242   7.817   9.770
12150WAT     H236693   3.287   7.683   9.688
12151WAT      O36694   7.252   3.588   5.161
12151WAT     H136695   7.330   3.650   5.161
12151WAT     H236696   7.267   3.515   5.228
12152WAT      O36697   6.329   6.280   9.088
12152WAT     H136698   6.343   6.310   9.183
12152WAT     H236699   6.406   6.223   9.060
12153WAT      O36700   5.955   6.467   4.815
12153WAT     H136701   5.911   6.387   4.775
12153WAT     H236702   5.894   6.546   4.806
12154WAT      O36703   2.483   6.890   2.902
12154WAT     H136704   2.494   6.801   2.859
12154WAT     H236705   2.516   6.962   2.840
12155WAT      O36706   5.356   7.700   6.218
12155WAT     H136707   5.393   7.788   6.248
12155WAT     H236708   5.287   7.668   6.283
12156WAT      O36709   9.552   0.937   6.306
12156WAT     H136710   9.608   0.860   6.335
12156WAT     H236711   9.542   1.001   6.383
12157WAT      O36712   0.672   6.904   2.488
12157WAT     H136713   0.747   6.879   2.550
12157WAT     H236714   0.600   6.951   2.540
12158WAT      O36715   1.694   5.378   8.033
12158WAT     H136716   1.763   5.346   8.097
12158WAT     H236717   1.654   5.300   7.984
12159WAT      O36718   1.561   1.310   1.957
12159WAT     H136719   1.655   1.338   1.976
12159WAT     H236720   1.546   1.308   1.858
12160WAT      O36721   0.091   9.104   0.635
12160WAT     H136722   0.176   9.057   0.612
12160WAT     H236723   0.074   9.096   0.734
12161WAT      O36724   3.266   7.548   1.425
12161WAT     H136725   3.353   7.552   1.474
12161WAT     H236726   3.229   7.455   1.430
12162WAT      O36727   8.662   8.123   7.614
12162WAT     H136728   8.573   8.167   7.623
12162WAT     H236729   8.650   8.023   7.621
12163WAT      O36730   1.861   1.799   3.517
12163WAT     H136731   1.845   1.820   3.421
12163WAT     H236732   1.774   1.782   3.562
12164WAT      O36733   8.154   0.652   0.329
12164WAT     H136734   8.246   0.622   0.305
12164WAT     H236735   8.155   0.751   0.346
12165WAT      O36736   9.341   2.104   0.145
12165WAT     H136737   9.329   2.037   0.219
12165WAT     H236738   9.326   2.196   0.181
12166WAT      O36739   3.567   6.883   7.877
12166WAT     H136740   3.567   6.788   7.846
12166WAT     H236741   3.605   6.887   7.970
12167WAT      O36742   5.834   1.486   8.790
12167WAT     H136743   5.772   1.481   8.712
12167WAT     H236744   5.925   1.516   8.759
12168WAT      O36745   3.348   1.146   6.475
12168WAT     H136746   3.328   1.180   6.567
12168WAT     H236747   3.408   1.209   6.428
12169WAT      O36748   0.520   8.981   7.067
12169WAT     H136749   0.578   8.901   7.053
12169WAT     H236750   0.494   8.987   7.164
12170WAT      O36751   3.396   4.245   2.869
12170WAT     H136752   3.323   4.305   2.836
12170WAT     H236753   3.446   4.290   2.943
12171WAT      O36754   6.489   2.289   2.616
12171WAT     H136755   6.451   2.237   2.540
12171WAT     H236756   6.419   2.349   2.655
12172WAT      O36757   6.320   8.678   0.480
12172WAT     H136758   6.403   8.704   0.529
12172WAT     H236759   6.326   8.581   0.454
12173WAT      O36760   0.618   2.497   9.729
12173WAT     H136761   0.712   2.484   9.697
12173WAT     H236762   0.560   2.526   9.652
12174WAT      O36763   7.080   5.105   3.017
12174WAT     H136764   7.017   5.028   3.009
12174WAT     H236765   7.166   5.074   3.059
12175WAT      O36766   3.282   4.307   5.556
12175WAT     H136767   3.205   4.360   5.521
12175WAT     H236768   3.260   4.272   5.647
12176WAT      O36769   5.766   8.242   7.726
12176WAT     H136770   5.681   8.245   7.674
12176WAT     H236771   5.832   8.183   7.679
12177WAT      O36772   1.660   4.684   5.307
12177WAT     H136773   1.673   4.716   5.400
12177WAT     H236774   1.563   4.692   5.282
12178WAT      O36775   8.060   1.908   7.917
12178WAT     H136776   7.984   1.845   7.929
12178WAT     H236777   8.026   2.002   7.915
12179WAT      O36778   2.803   7.583   4.235
12179WAT     H136779   2.780   7.626   4.322
12179WAT     H236780   2.867   7.508   4.251
12180WAT      O36781   0.561   1.956   2.979
12180WAT     H136782   0.656   1.949   3.008
12180WAT     H236783   0.527   2.048   2.996
12181WAT      O36784   7.561   7.064   8.710
12181WAT     H136785   7.523   7.026   8.795
12181WAT     H236786   7.567   7.163   8.718
12182WAT      O36787   9.531   7.587   9.736
12182WAT     H136788   9.472   7.598   9.816
12182WAT     H236789   9.483   7.536   9.665
12183WAT      O36790   9.726   1.388   5.164
12183WAT     H136791   9.649   1.367   5.224
12183WAT     H236792   9.799   1.429   5.218
12184WAT      O36793   7.887   5.448   5.167
12184WAT     H136794   7.886   5.532   5.220
12184WAT     H236795   7.946   5.460   5.087
12185WAT      O36796   5.051   9.752   6.501
12185WAT     H136797   4.953   9.758   6.479
12185WAT     H236798   5.103   9.738   6.418
12186WAT      O36799   4.893   2.236   8.067
12186WAT     H136800   4.928   2.181   7.991
12186WAT     H236801   4.896   2.183   8.151
12187WAT      O36802   6.396   4.274   7.344
12187WAT     H136803   6.326   4.213   7.381
12187WAT     H236804   6.483   4.256   7.390
12188WAT      O36805   2.599   4.325   6.045
12188WAT     H136806   2.659   4.402   6.024
12188WAT     H236807   2.514   4.334   5.993
12189WAT      O36808   3.193   1.819   4.307
12189WAT     H136809   3.117   1.775   4.260
12189WAT     H236810   3.271   1.827   4.244
12190WAT      O36811   8.667   6.252   0.284
12190WAT     H136812   8.722   6.239   0.366
12190WAT     H236813   8.622   6.165   0.260
12191WAT      O36814   0.229   5.568   1.821
12191WAT     H136815   0.136   5.591   1.792
12191WAT     H236816   0.229   5.476   1.860
12192WAT      O36817   0.816   2.754   4.457
12192WAT     H136818   0.839   2.709   4.371
12192WAT     H236819   0.786   2.848   4.439
12193WAT      O36820   8.297   5.635   1.402
12193WAT     H136821   8.263   5.629   1.496
12193WAT     H236822   8.387   5.678   1.402
12194WAT      O36823   1.720   8.527   4.784
12194WAT     H136824   1.766   8.478   4.857
12194WAT     H236825   1.743   8.485   4.696
12195WAT      O36826   4.089   8.834   3.932
12195WAT     H136827   4.143   8.853   4.014
12195WAT     H236828   4.048   8.743   3.939
12196WAT      O36829   8.481   7.236   9.719
12196WAT     H136830   8.557   7.170   9.714
12196WAT     H236831   8.399   7.190   9.753
12197WAT      O36832   8.168   9.763   0.909
12197WAT     H136833   8.254   9.714   0.922
12197WAT     H236834   8.182   9.839   0.845
12198WAT      O36835   7.757   3.856   0.657
12198WAT     H136836   7.733   3.901   0.571
12198WAT     H236837   7.837   3.900   0.697
12199WAT      O36838   3.833   5.901   3.114
12199WAT     H136839   3.820   5.871   3.019
12199WAT     H236840   3.803   5.996   3.122
12200WAT      O36841   7.723   3.473   7.480
12200WAT     H136842   7.641   3.504   7.430
12200WAT     H236843   7.769   3.552   7.520
12201WAT      O36844   9.534   3.295   2.106
12201WAT     H136845   9.477   3.272   2.186
12201WAT     H236846   9.476   3.333   2.034
12202WAT      O36847   6.436   1.532   8.133
12202WAT     H136848   6.468   1.450   8.087
12202WAT     H236849   6.449   1.522   8.232
12203WAT      O36850   0.070   6.924   7.347
12203WAT     H136851   0.012   6.881   7.417
12203WAT     H236852   0.022   6.928   7.260
12204WAT      O36853   2.324   4.244   3.328
12204WAT     H136854   2.365   4.311   3.390
12204WAT     H236855   2.389   4.169   3.313
12205WAT      O36856   9.804   2.926   5.802
12205WAT     H136857   9.800   2.898   5.898
12205WAT     H236858   9.900   2.931   5.773
12206WAT      O36859   5.872   1.973   8.682
12206WAT     H136860   5.842   2.067   8.668
12206WAT     H236861   5.849   1.944   8.774
12207WAT      O36862   8.464   2.947   7.015
12207WAT     H136863   8.526   2.935   6.937
12207WAT     H236864   8.449   3.045   7.031
12208WAT      O36865   5.313   3.796   1.820
12208WAT     H136866   5.243   3.836   1.879
12208WAT     H236867   5.349   3.713   1.862
12209WAT      O36868   4.032   8.492   8.634
12209WAT     H136869   4.041   8.518   8.730
12209WAT     H236870   4.001   8.397   8.628
12210WAT      O36871   3.545   6.235   4.187
12210WAT     H136872   3.596   6.315   4.219
12210WAT     H236873   3.603   6.154   4.195
12211WAT      O36874   9.556   4.163   5.567
12211WAT     H136875   9.631   4.122   5.619
12211WAT     H236876   9.593   4.223   5.497
12212WAT      O36877   5.423   6.698   9.755
12212WAT     H136878   5.417   6.672   9.659
12212WAT     H236879   5.471   6.627   9.806
12213WAT      O36880   4.645   8.229   3.659
12213WAT     H136881   4.616   8.159   3.725
12213WAT     H236882   4.647   8.318   3.704
12214WAT      O36883   3.387   6.009   2.076
12214WAT     H136884   3.347   5.942   2.013
12214WAT     H236885   3.479   6.033   2.046
12215WAT      O36886   6.218   7.185   0.105
12215WAT     H136887   6.247   7.091   0.122
12215WAT     H236888   6.181   7.193   0.012
12216WAT      O36889   6.418   2.661   9.394
12216WAT     H136890   6.330   2.652   9.347
12216WAT     H236891   6.424   2.750   9.438
12217WAT      O36892   3.154   8.208   5.908
12217WAT     H136893   3.156   8.275   5.834
12217WAT     H236894   3.123   8.252   5.992
12218WAT      O36895   2.869   0.271   8.216
12218WAT     H136896   2.778   0.312   8.210
12218WAT     H236897   2.921   0.292   8.134
12219WAT      O36898   0.565   6.496   8.329
12219WAT     H136899   0.585   6.445   8.413
12219WAT     H236900   0.616   6.455   8.253
12220WAT      O36901   3.701   8.163   4.773
12220WAT     H136902   3.800   8.178   4.767
12220WAT     H236903   3.660   8.173   4.683
12221WAT      O36904   4.045   1.557   4.546
12221WAT     H136905   4.095   1.627   4.598
12221WAT     H236906   4.105   1.480   4.528
12222WAT      O36907   7.502   4.743   2.011
12222WAT     H136908   7.402   4.750   2.017
12222WAT     H236909   7.530   4.749   1.915
12223WAT      O36910   3.440   3.182   2.019
12223WAT     H136911   3.375   3.107   2.007
12223WAT     H236912   3.512   3.154   2.083
12224WAT      O36913   5.510   4.994   3.381
12224WAT     H136914   5.511   5.056   3.459
12224WAT     H236915   5.521   5.046   3.296
12225WAT      O36916   3.517   4.535   8.150
12225WAT     H136917   3.428   4.522   8.194
12225WAT     H236918   3.590   4.527   8.217
12226WAT      O36919   7.200   6.035   8.299
12226WAT     H136920   7.264   5.974   8.346
12226WAT     H236921   7.107   6.001   8.310
12227WAT      O36922   9.890   7.065   5.295
12227WAT     H136923   9.876   7.163   5.310
12227WAT     H236924   9.801   7.019   5.298
12228WAT      O36925   6.783   7.287   3.295
12228WAT     H136926   6.831   7.204   3.324
12228WAT     H236927   6.684   7.268   3.293
12229WAT      O36928   7.992   4.653   9.296
12229WAT     H136929   7.927   4.624   9.366
12229WAT     H236930   7.949   4.647   9.206
12230WAT      O36931   7.223   0.931   7.102
12230WAT     H136932   7.268   1.019   7.086
12230WAT     H236933   7.291   0.864   7.132
12231WAT      O36934   6.527   4.848   4.750
12231WAT     H136935   6.539   4.754   4.782
12231WAT     H236936   6.596   4.907   4.792
12232WAT      O36937   9.522   3.918   4.522
12232WAT     H136938   9.459   3.956   4.591
12232WAT     H236939   9.508   3.820   4.515
12233WAT      O36940   3.123   5.404   5.935
12233WAT     H136941   3.046   5.414   5.872
12233WAT     H236942   3.154   5.494   5.965
12234WAT      O36943   7.437   5.245   5.501
12234WAT     H136944   7.398   5.328   5.542
12234WAT     H236945   7.439   5.255   5.401
12235WAT      O36946   6.114   3.838   0.737
12235WAT     H136947   6.145   3.748   0.767
12235WAT     H236948   6.194   3.892   0.709
12236WAT      O36949   3.754   7.376   2.512
12236WAT     H136950   3.791   7.302   2.456
12236WAT     H236951   3.828   7.424   2.558
12237WAT      O36952   0.030   0.619   8.456
12237WAT     H136953   0.021   0.712   8.419
12237WAT     H236954  -0.042   0.561   8.419
12238WAT      O36955   6.031   3.482   8.726
12238WAT     H136956   6.017   3.545   8.802
12238WAT     H236957   5.996   3.391   8.751
12239WAT      O36958   4.557   6.966   1.173
12239WAT     H136959   4.635   6.995   1.227
12239WAT     H236960   4.497   7.044   1.156
12240WAT      O36961   4.028   5.224   3.625
12240WAT     H136962   4.073   5.170   3.697
12240WAT     H236963   3.996   5.163   3.553
12241WAT      O36964   4.618   9.287   0.697
12241WAT     H136965   4.533   9.295   0.749
12241WAT     H236966   4.674   9.214   0.736
12242WAT      O36967   7.040   1.699   3.739
12242WAT     H136968   7.077   1.626   3.797
12242WAT     H236969   7.028   1.664   3.646
12243WAT      O36970   3.192   1.704   1.403
12243WAT     H136971   3.104   1.705   1.449
12243WAT     H236972   3.187   1.644   1.323
12244WAT      O36973   4.695   0.449   0.580
12244WAT     H136974   4.616   0.412   0.531
12244WAT     H236975   4.759   0.375   0.600
12245WAT      O36976   8.254   9.322   2.165
12245WAT     H136977   8.174   9.354   2.215
12245WAT     H236978   8.336   9.371   2.197
12246WAT      O36979   8.840   6.029   8.720
12246WAT     H136980   8.762   6.022   8.658
12246WAT     H236981   8.811   6.068   8.807
12247WAT      O36982   1.982   5.926   0.099
12247WAT     H136983   2.047   5.890   0.166
12247WAT     H236984   1.896   5.950   0.145
12248WAT      O36985   3.746   1.390   4.196
12248WAT     H136986   3.736   1.382   4.096
12248WAT     H236987   3.661   1.363   4.240
12249WAT      O36988   1.706   3.854   0.524
12249WAT     H136989   1.784   3.909   0.553
12249WAT     H236990   1.678   3.793   0.599
12250WAT      O36991   6.465   2.663   1.116
12250WAT     H136992   6.450   2.593   1.185
12250WAT     H236993   6.390   2.729   1.118
12251WAT      O36994   0.179   3.671   6.683
12251WAT     H136995   0.107   3.652   6.749
12251WAT     H236996   0.228   3.587   6.662
12252WAT      O36997   4.381   1.157   3.602
12252WAT     H136998   4.481   1.163   3.610
12252WAT     H236999   4.339   1.229   3.656
12253WAT      O37000   1.839   0.200   9.582
12253WAT     H137001   1.913   0.136   9.604
12253WAT     H237002   1.806   0.243   9.666
12254WAT      O37003   5.712   2.674   0.981
12254WAT     H137004   5.734   2.710   0.890
12254WAT     H237005   5.614   2.653   0.986
12255WAT      O37006   4.600   6.113   7.724
12255WAT     H137007   4.608   6.181   7.797
12255WAT     H237008   4.659   6.140   7.647
12256WAT      O37009   6.330   1.827   2.285
12256WAT     H137010   6.231   1.823   2.274
12256WAT     H237011   6.360   1.757   2.349
12257WAT      O37012   5.215   9.478   3.795
12257WAT     H137013   5.282   9.489   3.869
12257WAT     H237014   5.124   9.462   3.834
12258WAT      O37015   8.978   3.262   8.361
12258WAT     H137016   9.031   3.223   8.436
12258WAT     H237017   8.981   3.200   8.282
12259WAT      O37018   3.264   2.306   8.601
12259WAT     H137019   3.282   2.225   8.657
12259WAT     H237020   3.326   2.306   8.522
12260WAT      O37021   7.698   5.737   7.559
12260WAT     H137022   7.625   5.743   7.491
12260WAT     H237023   7.736   5.828   7.575
12261WAT      O37024   3.893   9.599   7.026
12261WAT     H137025   3.803   9.606   6.985
12261WAT     H237026   3.953   9.544   6.968
12262WAT      O37027   2.484   3.731   8.563
12262WAT     H137028   2.461   3.791   8.486
12262WAT     H237029   2.431   3.647   8.556
12263WAT      O37030   3.804   6.547   1.005
12263WAT     H137031   3.747   6.609   1.060
12263WAT     H237032   3.873   6.504   1.064
12264WAT      O37033   9.258   0.104   8.218
12264WAT     H137034   9.261   0.175   8.147
12264WAT     H237035   9.244   0.147   8.307
12265WAT      O37036   3.018   4.851   4.726
12265WAT     H137037   3.088   4.878   4.660
12265WAT     H237038   3.058   4.787   4.792
12266WAT      O37039   4.286   3.160   1.623
12266WAT     H137040   4.262   3.225   1.695
12266WAT     H237041   4.369   3.191   1.576
12267WAT      O37042   4.258   3.506   9.747
12267WAT     H137043   4.314   3.432   9.785
12267WAT     H237044   4.316   3.580   9.715
12268WAT      O37045   8.442   8.364   3.870
12268WAT     H137046   8.487   8.449   3.896
12268WAT     H237047   8.469   8.339   3.777
12269WAT      O37048   9.054   0.195   0.227
12269WAT     H137049   8.965   0.234   0.205
12269WAT     H237050   9.042   0.115   0.286
12270WAT      O37051   7.102   7.636   5.155
12270WAT     H137052   7.068   7.725   5.125
12270WAT     H237053   7.099   7.631   5.255
12271WAT      O37054   7.277   7.765   6.734
12271WAT     H137055   7.213   7.808   6.798
12271WAT     H237056   7.256   7.796   6.641
12272WAT      O37057   3.913   1.178   0.498
12272WAT     H137058   4.012   1.171   0.505
12272WAT     H237059   3.888   1.268   0.463
12273WAT      O37060   6.555   2.061   9.140
12273WAT     H137061   6.504   2.147   9.125
12273WAT     H237062   6.492   1.984   9.134
12274WAT      O37063   0.272   0.441   1.126
12274WAT     H137064   0.235   0.502   1.056
12274WAT     H237065   0.350   0.391   1.090
12275WAT      O37066   0.127   0.337   4.639
12275WAT     H137067   0.055   0.324   4.707
12275WAT     H237068   0.153   0.434   4.636
12276WAT      O37069   7.547   4.007   4.964
12276WAT     H137070   7.459   4.010   4.917
12276WAT     H237071   7.539   4.048   5.054
12277WAT      O37072   1.481   0.675   8.326
12277WAT     H137073   1.488   0.671   8.227
12277WAT     H237074   1.421   0.750   8.353
12278WAT      O37075   2.354   1.823   5.320
12278WAT     H137076   2.311   1.791   5.405
12278WAT     H237077   2.332   1.919   5.306
12279WAT      O37078   2.880   9.810   6.932
12279WAT     H137079   2.910   9.715   6.935
12279WAT     H237080   2.957   9.869   6.911
12280WAT      O37081   9.518   9.290   3.534
12280WAT     H137082   9.546   9.385   3.518
12280WAT     H237083   9.596   9.229   3.522
12281WAT      O37084   0.799   8.725   3.286
12281WAT     H137085   0.740   8.790   3.238
12281WAT     H237086   0.829   8.654   3.222
12282WAT      O37087   3.570   9.248   4.863
12282WAT     H137088   3.554   9.157   4.826
12282WAT     H237089   3.500   9.269   4.932
12283WAT      O37090   5.665   5.673   2.339
12283WAT     H137091   5.592   5.728   2.380
12283WAT     H237092   5.645   5.658   2.242
12284WAT      O37093   8.264   3.184   7.757
12284WAT     H137094   8.235   3.089   7.747
12284WAT     H237095   8.187   3.245   7.737
12285WAT      O37096   3.651   4.531   8.738
12285WAT     H137097   3.714   4.479   8.681
12285WAT     H237098   3.575   4.563   8.682
12286WAT      O37099   8.408   5.849   6.122
12286WAT     H137100   8.337   5.919   6.134
12286WAT     H237101   8.498   5.892   6.123
12287WAT      O37102   7.908   2.236   1.145
12287WAT     H137103   7.835   2.293   1.108
12287WAT     H237104   7.979   2.294   1.184
12288WAT      O37105   3.419   3.078   3.178
12288WAT     H137106   3.450   2.988   3.210
12288WAT     H237107   3.382   3.130   3.255
12289WAT      O37108   4.281   6.077   7.803
12289WAT     H137109   4.273   6.140   7.880
12289WAT     H237110   4.298   6.129   7.719
12290WAT      O37111   2.808   8.235   7.709
12290WAT     H137112   2.908   8.242   7.716
12290WAT     H237113   2.766   8.278   7.789
12291WAT      O37114   9.672   7.167   6.201
12291WAT     H137115   9.580   7.184   6.237
12291WAT     H237116   9.740   7.191   6.270
12292WAT      O37117   7.280   6.333   1.635
12292WAT     H137118   7.293   6.431   1.652
12292WAT     H237119   7.350   6.281   1.685
12293WAT      O37120   6.823   3.122   7.813
12293WAT     H137121   6.895   3.065   7.852
12293WAT     H237122   6.834   3.216   7.846
12294WAT      O37123   8.756   2.353   6.098
12294WAT     H137124   8.803   2.294   6.033
12294WAT     H237125   8.810   2.435   6.115
12295WAT      O37126   5.892   4.408   5.082
12295WAT     H137127   5.809   4.411   5.026
12295WAT     H237128   5.915   4.500   5.113
12296WAT      O37129   2.403   4.690   8.689
12296WAT     H137130   2.327   4.744   8.725
12296WAT     H237131   2.432   4.623   8.758
12297WAT      O37132   7.307   6.530   0.215
12297WAT     H137133   7.269   6.440   0.235
12297WAT     H237134   7.389   6.545   0.270
12298WAT      O37135   7.920   5.517   7.568
12298WAT     H137136   7.881   5.608   7.553
12298WAT     H237137   7.964   5.513   7.657
12299WAT      O37138   2.463   2.630   8.105
12299WAT     H137139   2.527   2.706   8.095
12299WAT     H237140   2.394   2.653   8.174
12300WAT      O37141   3.153   5.606   5.662
12300WAT     H137142   3.227   5.615   5.728
12300WAT     H237143   3.071   5.573   5.709
12301WAT      O37144   7.840   2.658   5.890
12301WAT     H137145   7.825   2.757   5.880
12301WAT     H237146   7.762   2.618   5.938
12302WAT      O37147   3.527   4.682  -0.001
12302WAT     H137148   3.538   4.773  -0.040
12302WAT     H237149   3.481   4.689   0.087
12303WAT      O37150   9.622   1.529   3.747
12303WAT     H137151   9.580   1.616   3.771
12303WAT     H237152   9.618   1.467   3.825
12304WAT      O37153   8.469   5.589   3.124
12304WAT     H137154   8.438   5.500   3.157
12304WAT     H237155   8.538   5.577   3.053
12305WAT      O37156   2.930   6.674   2.851
12305WAT     H137157   2.951   6.762   2.808
12305WAT     H237158   2.891   6.689   2.942
12306WAT      O37159   9.746   3.733   0.074
12306WAT     H137160   9.667   3.672   0.063
12306WAT     H237161   9.826   3.678   0.099
12307WAT      O37162   7.187   8.494   7.059
12307WAT     H137163   7.270   8.508   7.005
12307WAT     H237164   7.200   8.531   7.151
12308WAT      O37165   9.741   9.396   7.274
12308WAT     H137166   9.732   9.327   7.203
12308WAT     H237167   9.680   9.473   7.255
12309WAT      O37168   6.000   4.871   9.563
12309WAT     H137169   6.092   4.859   9.600
12309WAT     H237170   5.962   4.782   9.538
12310WAT      O37171   1.748   2.074   8.567
12310WAT     H137172   1.789   2.140   8.630
12310WAT     H237173   1.735   1.987   8.614
12311WAT      O37174   9.663   2.245   6.959
12311WAT     H137175   9.721   2.292   7.026
12311WAT     H237176   9.684   2.280   6.868
12312WAT      O37177   6.937   4.917   3.803
12312WAT     H137178   6.858   4.881   3.853
12312WAT     H237179   7.020   4.871   3.834
12313WAT      O37180   0.509   0.490   7.406
12313WAT     H137181   0.446   0.426   7.362
12313WAT     H237182   0.527   0.566   7.344
12314WAT      O37183   4.461   0.829   9.194
12314WAT     H137184   4.407   0.913   9.193
12314WAT     H237185   4.541   0.840   9.135
12315WAT      O37186   3.417   3.240   0.474
12315WAT     H137187   3.361   3.220   0.554
12315WAT     H237188   3.457   3.155   0.439
12316WAT      O37189   2.938   6.976   0.916
12316WAT     H137190   2.929   6.877   0.930
12316WAT     H237191   2.850   7.020   0.937
12317WAT      O37192   3.299   8.780   4.287
12317WAT     H137193   3.293   8.879   4.283
12317WAT     H237194   3.215   8.739   4.252
12318WAT      O37195   1.993   6.429   1.286
12318WAT     H137196   2.081   6.471   1.265
12318WAT     H237197   1.980   6.348   1.228
12319WAT      O37198   1.138   2.830   4.887
12319WAT     H137199   1.065   2.829   4.819
12319WAT     H237200   1.216   2.882   4.851
12320WAT      O37201   0.823   7.666   9.088
12320WAT     H137202   0.799   7.759   9.059
12320WAT     H237203   0.784   7.600   9.024
12321WAT      O37204   9.886   7.142   4.029
12321WAT     H137205   9.914   7.132   3.934
12321WAT     H237206   9.788   7.162   4.033
12322WAT      O37207   0.949   0.554   5.613
12322WAT     H137208   0.868   0.598   5.574
12322WAT     H237209   0.966   0.591   5.705
12323WAT      O37210   1.740   3.971   3.889
12323WAT     H137211   1.833   3.962   3.853
12323WAT     H237212   1.744   3.997   3.986
12324WAT      O37213   1.983   2.926   4.942
12324WAT     H137214   2.038   3.010   4.949
12324WAT     H237215   2.009   2.876   4.860
12325WAT      O37216   0.659   2.369   0.899
12325WAT     H137217   0.725   2.419   0.844
12325WAT     H237218   0.699   2.346   0.988
12326WAT      O37219   7.500   1.856   1.975
12326WAT     H137220   7.411   1.902   1.980
12326WAT     H237221   7.542   1.875   1.886
12327WAT      O37222   5.853   6.709   1.244
12327WAT     H137223   5.859   6.735   1.340
12327WAT     H237224   5.935   6.658   1.218
12328WAT      O37225   5.938   0.871   5.281
12328WAT     H137226   5.943   0.872   5.181
12328WAT     H237227   5.966   0.781   5.315
12329WAT      O37228   7.863   3.379   2.398
12329WAT     H137229   7.926   3.453   2.421
12329WAT     H237230   7.907   3.291   2.419
12330WAT      O37231   1.326   6.928   2.219
12330WAT     H137232   1.325   6.955   2.123
12330WAT     H237233   1.233   6.905   2.248
12331WAT      O37234   7.774   0.413   0.077
12331WAT     H137235   7.795   0.363  -0.007
12331WAT     H237236   7.727   0.352   0.141
12332WAT      O37237   6.199   6.992   2.564
12332WAT     H137238   6.138   6.916   2.543
12332WAT     H237239   6.229   7.035   2.479
12333WAT      O37240   1.942   7.990   6.738
12333WAT     H137241   1.886   8.072   6.729
12333WAT     H237242   1.894   7.923   6.794
12334WAT      O37243   5.772   6.280   4.667
12334WAT     H137244   5.717   6.246   4.743
12334WAT     H237245   5.794   6.205   4.605
12335WAT      O37246   0.088   4.009   2.365
12335WAT     H137247   0.100   3.935   2.299
12335WAT     H237248   0.029   3.978   2.440
12336WAT      O37249   2.358   0.998   5.977
12336WAT     H137250   2.353   0.941   5.894
12336WAT     H237251   2.402   0.947   6.050
12337WAT      O37252   3.909   3.896   0.273
12337WAT     H137253   4.005   3.878   0.295
12337WAT     H237254   3.860   3.926   0.355
12338WAT      O37255   8.554   5.449   5.346
12338WAT     H137256   8.539   5.435   5.443
12338WAT     H237257   8.648   5.423   5.322
12339WAT      O37258   5.948   4.661   2.882
12339WAT     H137259   5.881   4.630   2.950
12339WAT     H237260   5.937   4.759   2.867
12340WAT      O37261   3.411   2.564   4.929
12340WAT     H137262   3.426   2.662   4.912
12340WAT     H237263   3.453   2.539   5.016
12341WAT      O37264   5.385   1.755   3.147
12341WAT     H137265   5.351   1.739   3.240
12341WAT     H237266   5.319   1.722   3.080
12342WAT      O37267   8.810   1.439   1.326
12342WAT     H137268   8.846   1.521   1.371
12342WAT     H237269   8.751   1.465   1.250
12343WAT      O37270   2.932   4.740   5.140
12343WAT     H137271   2.995   4.674   5.180
12343WAT     H237272   2.925   4.820   5.200
12344WAT      O37273   9.727   0.064   2.070
12344WAT     H137274   9.672   0.144   2.046
12344WAT     H237275   9.730   0.001   1.993
12345WAT      O37276   1.030   6.041   7.316
12345WAT     H137277   1.053   6.054   7.220
12345WAT     H237278   1.093   5.974   7.357
12346WAT      O37279   8.593   5.805   0.396
12346WAT     H137280   8.574   5.744   0.320
12346WAT     H237281   8.675   5.775   0.444
12347WAT      O37282   3.729   3.867   5.365
12347WAT     H137283   3.779   3.812   5.298
12347WAT     H237284   3.756   3.963   5.356
12348WAT      O37285   9.034   8.427   6.607
12348WAT     H137286   9.044   8.396   6.513
12348WAT     H237287   8.971   8.505   6.610
12349WAT      O37288   1.780   4.237   1.033
12349WAT     H137289   1.820   4.253   1.123
12349WAT     H237290   1.846   4.190   0.975
12350WAT      O37291   6.648   1.457   0.827
12350WAT     H137292   6.676   1.362   0.813
12350WAT     H237293   6.584   1.461   0.904
12351WAT      O37294   4.529   9.841   2.645
12351WAT     H137295   4.618   9.796   2.648
12351WAT     H237296   4.516   9.884   2.556
12352WAT      O37297   0.771   2.819   0.209
12352WAT     H137298   0.687   2.869   0.191
12352WAT     H237299   0.749   2.728   0.244
12353WAT      O37300   4.407   0.603   4.877
12353WAT     H137301   4.312   0.598   4.846
12353WAT     H237302   4.413   0.666   4.955
12354WAT      O37303   9.052   4.249   5.714
12354WAT     H137304   9.080   4.335   5.671
12354WAT     H237305   9.040   4.264   5.812
12355WAT      O37306   1.018   0.135   4.562
12355WAT     H137307   1.038   0.193   4.641
12355WAT     H237308   0.958   0.060   4.590
12356WAT      O37309   8.735   0.704   3.365
12356WAT     H137310   8.748   0.791   3.412
12356WAT     H237311   8.650   0.707   3.311
12357WAT      O37312   7.858   4.704   7.665
12357WAT     H137313   7.881   4.702   7.762
12357WAT     H237314   7.895   4.622   7.620
12358WAT      O37315   5.575   3.250   5.714
12358WAT     H137316   5.614   3.163   5.743
12358WAT     H237317   5.569   3.253   5.614
12359WAT      O37318   6.063   1.554   1.941
12359WAT     H137319   6.102   1.527   1.852
12359WAT     H237320   6.137   1.585   2.001
12360WAT      O37321   0.315   9.350   0.161
12360WAT     H137322   0.383   9.332   0.089
12360WAT     H237323   0.333   9.290   0.239
12361WAT      O37324   7.995   4.491   7.559
12361WAT     H137325   8.090   4.514   7.535
12361WAT     H237326   7.994   4.425   7.633
12362WAT      O37327   5.494   5.148   3.000
12362WAT     H137328   5.452   5.061   2.975
12362WAT     H237329   5.459   5.178   3.088
12363WAT      O37330   6.845   6.261   5.739
12363WAT     H137331   6.754   6.270   5.699
12363WAT     H237332   6.914   6.287   5.670
12364WAT      O37333   7.851   2.430   9.749
12364WAT     H137334   7.928   2.368   9.767
12364WAT     H237335   7.792   2.392   9.679
12365WAT      O37336   6.105   4.803   5.468
12365WAT     H137337   6.062   4.888   5.497
12365WAT     H237338   6.174   4.775   5.536
12366WAT      O37339   7.636   2.253   2.436
12366WAT     H137340   7.691   2.172   2.415
12366WAT     H237341   7.600   2.291   2.351
12367WAT      O37342   9.128   4.082   4.063
12367WAT     H137343   9.129   4.039   3.973
12367WAT     H237344   9.208   4.052   4.115
12368WAT      O37345   1.170   5.156   1.889
12368WAT     H137346   1.175   5.059   1.913
12368WAT     H237347   1.198   5.168   1.793
12369WAT      O37348   0.287   0.077   0.947
12369WAT     H137349   0.207   0.043   0.898
12369WAT     H237350   0.308   0.170   0.916
12370WAT      O37351   7.298   7.852   0.570
12370WAT     H137352   7.334   7.946   0.569
12370WAT     H237353   7.202   7.853   0.596
12371WAT      O37354   4.800   9.651   4.171
12371WAT     H137355   4.887   9.678   4.129
12371WAT     H237356   4.765   9.726   4.227
12372WAT      O37357   6.163   6.150   1.325
12372WAT     H137358   6.144   6.067   1.273
12372WAT     H237359   6.137   6.230   1.272
12373WAT      O37360   1.375   1.070   4.077
12373WAT     H137361   1.356   0.985   4.126
12373WAT     H237362   1.294   1.128   4.079
12374WAT      O37363   5.780   4.526   1.485
12374WAT     H137364   5.686   4.554   1.506
12374WAT     H237365   5.807   4.451   1.546
12375WAT      O37366   2.421   5.834   3.652
12375WAT     H137367   2.421   5.881   3.740
12375WAT     H237368   2.328   5.808   3.627
12376WAT      O37369   4.358   5.026   2.085
12376WAT     H137370   4.396   5.042   1.994
12376WAT     H237371   4.307   5.107   2.115
12377WAT      O37372   7.275   9.838   6.704
12377WAT     H137373   7.261   9.935   6.722
12377WAT     H237374   7.362   9.825   6.657
12378WAT      O37375   1.952   7.195   2.308
12378WAT     H137376   1.940   7.103   2.343
12378WAT     H237377   1.996   7.192   2.218
12379WAT      O37378   2.884   4.789   2.722
12379WAT     H137379   2.797   4.815   2.681
12379WAT     H237380   2.874   4.784   2.821
12380WAT      O37381   8.482   9.107   2.909
12380WAT     H137382   8.535   9.027   2.882
12380WAT     H237383   8.485   9.117   3.009
12381WAT      O37384   8.938   3.434   6.059
12381WAT     H137385   8.842   3.461   6.051
12381WAT     H237386   8.967   3.439   6.155
12382WAT      O37387   0.270   4.254   1.832
12382WAT     H137388   0.203   4.309   1.782
12382WAT     H237389   0.358   4.256   1.785
12383WAT      O37390   8.437   6.664   3.969
12383WAT     H137391   8.360   6.725   3.949
12383WAT     H237392   8.500   6.663   3.891
12384WAT      O37393   4.020   3.254   2.486
12384WAT     H137394   4.113   3.232   2.515
12384WAT     H237395   4.012   3.354   2.476
12385WAT      O37396   9.547   5.213   2.554
12385WAT     H137397   9.502   5.284   2.500
12385WAT     H237398   9.620   5.253   2.608
12386WAT      O37399   5.819   7.676   0.388
12386WAT     H137400   5.754   7.653   0.461
12386WAT     H237401   5.861   7.764   0.408
12387WAT      O37402   2.620   3.960   2.333
12387WAT     H137403   2.615   3.984   2.430
12387WAT     H237404   2.706   3.912   2.315
12388WAT      O37405   7.875   4.401   0.213
12388WAT     H137406   7.781   4.427   0.191
12388WAT     H237407   7.904   4.327   0.151
12389WAT      O37408   4.069   5.208   0.144
12389WAT     H137409   4.036   5.290   0.099
12389WAT     H237410   4.005   5.133   0.127
12390WAT      O37411   2.924   4.509   1.878
12390WAT     H137412   2.904   4.429   1.822
12390WAT     H237413   2.981   4.573   1.826
12391WAT      O37414   8.074   1.508   1.403
12391WAT     H137415   8.069   1.607   1.409
12391WAT     H237416   7.986   1.469   1.431
12392WAT      O37417   6.106   5.565   3.927
12392WAT     H137418   6.135   5.634   3.860
12392WAT     H237419   6.180   5.500   3.941
12393WAT      O37420   7.827   8.969   9.781
12393WAT     H137421   7.919   8.929   9.779
12393WAT     H237422   7.808   9.011   9.692
12394WAT      O37423   9.455   0.943   7.471
12394WAT     H137424   9.358   0.923   7.485
12394WAT     H237425   9.480   1.024   7.524
12395WAT      O37426   9.293   3.720   8.183
12395WAT     H137427   9.257   3.693   8.273
12395WAT     H237428   9.270   3.816   8.167
12396WAT      O37429   8.220   4.638   2.886
12396WAT     H137430   8.155   4.646   2.962
12396WAT     H237431   8.300   4.586   2.915
12397WAT      O37432   8.515   2.922   1.015
12397WAT     H137433   8.438   2.858   1.011
12397WAT     H237434   8.589   2.882   1.068
12398WAT      O37435   7.824   3.717   1.677
12398WAT     H137436   7.777   3.639   1.635
12398WAT     H237437   7.843   3.697   1.773
12399WAT      O37438   3.077   4.600   2.580
12399WAT     H137439   3.016   4.646   2.645
12399WAT     H237440   3.124   4.669   2.524
12400WAT      O37441   6.789   0.685   6.031
12400WAT     H137442   6.844   0.767   6.011
12400WAT     H237443   6.693   0.705   6.014
12401WAT      O37444   1.417   4.584   2.177
12401WAT     H137445   1.405   4.664   2.117
12401WAT     H237446   1.473   4.516   2.130
12402WAT      O37447   8.991   9.606   0.561
12402WAT     H137448   8.978   9.511   0.530
12402WAT     H237449   8.965   9.613   0.657
12403WAT      O37450   5.455   4.203   6.438
12403WAT     H137451   5.553   4.222   6.425
12403WAT     H237452   5.423   4.251   6.519
12404WAT      O37453   9.325   4.754   8.386
12404WAT     H137454   9.312   4.713   8.477
12404WAT     H237455   9.363   4.846   8.397
12405WAT      O37456   3.714   6.595   9.357
12405WAT     H137457   3.776   6.550   9.422
12405WAT     H237458   3.676   6.677   9.399
12406WAT      O37459   0.414   0.828   8.338
12406WAT     H137460   0.321   0.792   8.350
12406WAT     H237461   0.461   0.776   8.267
12407WAT      O37462   0.833   4.968   5.869
12407WAT     H137463   0.888   4.945   5.789
12407WAT     H237464   0.872   5.049   5.915
12408WAT      O37465   4.887   4.010   6.383
12408WAT     H137466   4.918   4.090   6.434
12408WAT     H237467   4.791   3.991   6.405
12409WAT      O37468   0.341   5.487   9.446
12409WAT     H137469   0.280   5.451   9.517
12409WAT     H237470   0.435   5.488   9.480
12410WAT      O37471   6.569   3.830   1.894
12410WAT     H137472   6.594   3.733   1.891
12410WAT     H237473   6.520   3.855   1.811
12411WAT      O37474   2.786   0.009   0.884
12411WAT     H137475   2.693   0.011   0.847
12411WAT     H237476   2.840   0.082   0.840
12412WAT      O37477   5.432   2.845   2.687
12412WAT     H137478   5.335   2.825   2.699
12412WAT     H237479   5.461   2.813   2.597
12413WAT      O37480   0.831   7.428   9.211
12413WAT     H137481   0.824   7.526   9.191
12413WAT     H237482   0.895   7.386   9.148
12414WAT      O37483   1.060   8.217   3.914
12414WAT     H137484   1.155   8.230   3.884
12414WAT     H237485   1.038   8.286   3.983
12415WAT      O37486   1.429   2.749   2.386
12415WAT     H137487   1.357   2.730   2.454
12415WAT     H237488   1.477   2.665   2.364
12416WAT      O37489   5.700   0.768   6.007
12416WAT     H137490   5.765   0.710   5.959
12416WAT     H237491   5.668   0.721   6.089
12417WAT      O37492   8.074   3.006   1.192
12417WAT     H137493   8.146   3.037   1.130
12417WAT     H237494   8.013   2.943   1.144
12418WAT      O37495   6.807   6.124   1.159
12418WAT     H137496   6.897   6.154   1.128
12418WAT     H237497   6.747   6.113   1.080
12419WAT      O37498   1.737   0.932   3.191
12419WAT     H137499   1.798   0.990   3.246
12419WAT     H237500   1.772   0.925   3.098
12420WAT      O37501   1.492   6.446   0.823
12420WAT     H137502   1.463   6.453   0.918
12420WAT     H237503   1.487   6.537   0.780
12421WAT      O37504   7.529   9.151   5.041
12421WAT     H137505   7.590   9.196   4.976
12421WAT     H237506   7.449   9.209   5.056
12422WAT      O37507   2.596   2.608   2.614
12422WAT     H137508   2.573   2.530   2.672
12422WAT     H237509   2.691   2.636   2.632
12423WAT      O37510   4.499   5.118   0.925
12423WAT     H137511   4.517   5.019   0.922
12423WAT     H237512   4.542   5.157   1.006
12424WAT      O37513   3.162   4.658   8.616
12424WAT     H137514   3.088   4.591   8.621
12424WAT     H237515   3.143   4.723   8.542
12425WAT      O37516   9.705   5.439   3.337
12425WAT     H137517   9.649   5.391   3.270
12425WAT     H237518   9.707   5.537   3.315
12426WAT      O37519   0.334   5.496   5.839
12426WAT     H137520   0.299   5.413   5.795
12426WAT     H237521   0.313   5.493   5.937
12427WAT      O37522   2.642   4.263   8.269
12427WAT     H137523   2.675   4.340   8.214
12427WAT     H237524   2.585   4.204   8.213
12428WAT      O37525   1.193   8.629   0.400
12428WAT     H137526   1.132   8.675   0.334
12428WAT     H237527   1.138   8.573   0.462
12429WAT      O37528   3.583   1.735   9.634
12429WAT     H137529   3.619   1.672   9.565
12429WAT     H237530   3.658   1.792   9.668
12430WAT      O37531   1.775   3.354   0.022
12430WAT     H137532   1.770   3.450   0.050
12430WAT     H237533   1.865   3.335  -0.017
12431WAT      O37534   0.038   3.109   1.620
12431WAT     H137535  -0.051   3.134   1.581
12431WAT     H237536   0.053   3.160   1.705
12432WAT      O37537   3.936   4.564   3.473
12432WAT     H137538   4.014   4.578   3.413
12432WAT     H237539   3.922   4.466   3.487
12433WAT      O37540   6.881   0.479   5.775
12433WAT     H137541   6.971   0.479   5.819
12433WAT     H237542   6.810   0.464   5.843
12434WAT      O37543   3.263   4.166   4.283
12434WAT     H137544   3.309   4.235   4.339
12434WAT     H237545   3.263   4.196   4.188
12435WAT      O37546   4.975   2.558   0.378
12435WAT     H137547   4.978   2.573   0.476
12435WAT     H237548   4.884   2.580   0.343
12436WAT      O37549   2.495   4.484   2.789
12436WAT     H137550   2.573   4.451   2.842
12436WAT     H237551   2.412   4.440   2.822
12437WAT      O37552   5.922   3.585   5.948
12437WAT     H137553   5.888   3.634   6.028
12437WAT     H237554   5.901   3.638   5.865
12438WAT      O37555   0.125   8.760   3.519
12438WAT     H137556   0.036   8.760   3.564
12438WAT     H237557   0.121   8.702   3.437
12439WAT      O37558   9.766   6.536   0.582
12439WAT     H137559   9.807   6.562   0.670
12439WAT     H237560   9.824   6.468   0.538
12440WAT      O37561   2.241   2.637   8.303
12440WAT     H137562   2.163   2.684   8.345
12440WAT     H237563   2.209   2.555   8.256
12441WAT      O37564   2.042   6.473   2.442
12441WAT     H137565   2.051   6.567   2.473
12441WAT     H237566   1.960   6.432   2.482
12442WAT      O37567   3.264   0.676   6.618
12442WAT     H137568   3.298   0.690   6.525
12442WAT     H237569   3.170   0.709   6.624
12443WAT      O37570   9.078   9.611   1.309
12443WAT     H137571   9.103   9.560   1.392
12443WAT     H237572   8.981   9.597   1.290
12444WAT      O37573   8.741   3.463   9.025
12444WAT     H137574   8.698   3.383   8.984
12444WAT     H237575   8.800   3.508   8.958
12445WAT      O37576   7.410   0.054   8.029
12445WAT     H137577   7.342   0.089   7.964
12445WAT     H237578   7.430   0.125   8.097
12446WAT      O37579   5.274   4.668   3.557
12446WAT     H137580   5.274   4.758   3.600
12446WAT     H237581   5.368   4.642   3.535
12447WAT      O37582   8.105   7.045   7.356
12447WAT     H137583   8.137   7.033   7.450
12447WAT     H237584   8.006   7.053   7.355
12448WAT      O37585   3.867   0.370   2.218
12448WAT     H137586   3.899   0.328   2.133
12448WAT     H237587   3.810   0.305   2.268
12449WAT      O37588   9.681   1.450   6.250
12449WAT     H137589   9.749   1.521   6.269
12449WAT     H237590   9.725   1.374   6.203
12450WAT      O37591   7.501   4.311   5.419
12450WAT     H137592   7.417   4.365   5.422
12450WAT     H237593   7.544   4.322   5.329
12451WAT      O37594   4.504   9.114   3.375
12451WAT     H137595   4.567   9.080   3.445
12451WAT     H237596   4.497   9.046   3.301
12452WAT      O37597   2.303   7.406   8.813
12452WAT     H137598   2.333   7.389   8.906
12452WAT     H237599   2.382   7.425   8.755
12453WAT      O37600   8.718   1.549   6.801
12453WAT     H137601   8.630   1.583   6.765
12453WAT     H237602   8.793   1.602   6.761
12454WAT      O37603   7.268   8.880   7.182
12454WAT     H137604   7.195   8.947   7.171
12454WAT     H237605   7.348   8.925   7.222
12455WAT      O37606   8.586   0.987   1.828
12455WAT     H137607   8.497   0.965   1.788
12455WAT     H237608   8.657   0.983   1.757
12456WAT      O37609   7.642   0.929   9.765
12456WAT     H137610   7.631   0.831   9.746
12456WAT     H237611   7.552   0.970   9.782
12457WAT      O37612   3.122   0.439   3.650
12457WAT     H137613   3.057   0.363   3.650
12457WAT     H237614   3.215   0.404   3.647
12458WAT      O37615   4.627   7.873   2.362
12458WAT     H137616   4.580   7.796   2.318
12458WAT     H237617   4.611   7.869   2.461
12459WAT      O37618   2.401   8.723   5.427
12459WAT     H137619   2.336   8.776   5.373
12459WAT     H237620   2.418   8.769   5.514
12460WAT      O37621   1.050   6.791   7.770
12460WAT     H137622   1.086   6.702   7.797
12460WAT     H237623   1.084   6.813   7.678
12461WAT      O37624   5.852   9.575   2.377
12461WAT     H137625   5.939   9.611   2.408
12461WAT     H237626   5.811   9.637   2.311
12462WAT      O37627   5.675   2.596   4.760
12462WAT     H137628   5.640   2.566   4.671
12462WAT     H237629   5.680   2.695   4.763
12463WAT      O37630   3.263   4.824   2.466
12463WAT     H137631   3.303   4.879   2.393
12463WAT     H237632   3.334   4.768   2.508
12464WAT      O37633   4.254   8.112   9.155
12464WAT     H137634   4.326   8.162   9.105
12464WAT     H237635   4.248   8.019   9.119
12465WAT      O37636   0.290   3.420   6.687
12465WAT     H137637   0.295   3.324   6.658
12465WAT     H237638   0.254   3.424   6.780
12466WAT      O37639   8.229   6.054   6.143
12466WAT     H137640   8.211   6.130   6.081
12466WAT     H237641   8.154   5.988   6.138
12467WAT      O37642   0.171   3.105   2.828
12467WAT     H137643   0.107   3.047   2.877
12467WAT     H237644   0.161   3.090   2.729
12468WAT      O37645   2.284   4.047   5.248
12468WAT     H137646   2.346   4.078   5.319
12468WAT     H237647   2.239   3.962   5.276
12469WAT      O37648   8.373   9.535   4.363
12469WAT     H137649   8.412   9.464   4.421
12469WAT     H237650   8.328   9.604   4.419
12470WAT      O37651   0.370   6.538   5.630
12470WAT     H137652   0.364   6.595   5.711
12470WAT     H237653   0.433   6.579   5.564
12471WAT      O37654   7.063   2.701   1.630
12471WAT     H137655   7.151   2.746   1.611
12471WAT     H237656   7.045   2.632   1.560
12472WAT      O37657   4.138   2.067   2.292
12472WAT     H137658   4.040   2.079   2.307
12472WAT     H237659   4.188   2.095   2.374
12473WAT      O37660   6.842   9.621   5.800
12473WAT     H137661   6.823   9.704   5.748
12473WAT     H237662   6.940   9.615   5.820
12474WAT      O37663   4.228   8.243   1.090
12474WAT     H137664   4.254   8.321   1.032
12474WAT     H237665   4.293   8.235   1.166
12475WAT      O37666   5.542   5.432   8.209
12475WAT     H137667   5.617   5.414   8.144
12475WAT     H237668   5.527   5.350   8.265
12476WAT      O37669   9.375   2.622   1.207
12476WAT     H137670   9.403   2.636   1.112
12476WAT     H237671   9.404   2.531   1.236
12477WAT      O37672   8.035   0.297   7.244
12477WAT     H137673   7.981   0.375   7.212
12477WAT     H237674   8.000   0.213   7.202
12478WAT      O37675   5.657   7.822   9.005
12478WAT     H137676   5.740   7.807   9.059
12478WAT     H237677   5.641   7.920   8.995
12479WAT      O37678   8.988   0.186   3.609
12479WAT     H137679   8.928   0.209   3.686
12479WAT     H237680   9.080   0.169   3.643
12480WAT      O37681   4.771   1.032   1.789
12480WAT     H137682   4.841   1.103   1.782
12480WAT     H237683   4.730   1.033   1.880
12481WAT      O37684   1.089   7.605   9.108
12481WAT     H137685   1.108   7.615   9.010
12481WAT     H237686   1.006   7.657   9.131
12482WAT      O37687   0.706   6.799   2.245
12482WAT     H137688   0.686   6.848   2.330
12482WAT     H237689   0.620   6.784   2.195
12483WAT      O37690   0.936   1.467   2.393
12483WAT     H137691   0.920   1.369   2.385
12483WAT     H237692   0.975   1.487   2.483
12484WAT      O37693   3.869   2.945   4.242
12484WAT     H137694   3.844   2.848   4.238
12484WAT     H237695   3.796   3.000   4.201
12485WAT      O37696   1.708   0.337   5.282
12485WAT     H137697   1.614   0.309   5.266
12485WAT     H237698   1.721   0.360   5.378
12486WAT      O37699   3.699   5.209   1.091
12486WAT     H137700   3.766   5.135   1.088
12486WAT     H237701   3.628   5.188   1.158
12487WAT      O37702   5.775   7.803   4.626
12487WAT     H137703   5.706   7.736   4.651
12487WAT     H237704   5.777   7.815   4.527
12488WAT      O37705   8.191   2.098   0.274
12488WAT     H137706   8.223   2.030   0.208
12488WAT     H237707   8.263   2.166   0.288
12489WAT      O37708   0.501   2.046   9.671
12489WAT     H137709   0.501   2.122   9.736
12489WAT     H237710   0.595   2.020   9.650
12490WAT      O37711   1.794   5.408   2.200
12490WAT     H137712   1.721   5.403   2.269
12490WAT     H237713   1.838   5.319   2.191
12491WAT      O37714   2.954   6.508   3.523
12491WAT     H137715   2.898   6.436   3.482
12491WAT     H237716   3.040   6.469   3.555
12492WAT      O37717   8.254   5.466   4.758
12492WAT     H137718   8.190   5.415   4.701
12492WAT     H237719   8.319   5.514   4.700
12493WAT      O37720   2.426   7.655   4.374
12493WAT     H137721   2.467   7.636   4.463
12493WAT     H237722   2.422   7.571   4.320
12494WAT      O37723   2.745   4.218   1.232
12494WAT     H137724   2.801   4.297   1.256
12494WAT     H237725   2.716   4.224   1.137
12495WAT      O37726   8.932   4.257   0.223
12495WAT     H137727   9.011   4.263   0.163
12495WAT     H237728   8.942   4.322   0.298
12496WAT      O37729   0.222   3.216   5.832
12496WAT     H137730   0.220   3.130   5.782
12496WAT     H237731   0.210   3.292   5.768
12497WAT      O37732   4.032   8.530   9.711
12497WAT     H137733   4.049   8.623   9.678
12497WAT     H237734   4.114   8.495   9.756
12498WAT      O37735   4.033   3.497   7.536
12498WAT     H137736   4.038   3.596   7.550
12498WAT     H237737   4.019   3.451   7.623
12499WAT      O37738   6.294   1.046   6.428
12499WAT     H137739   6.279   1.144   6.432
12499WAT     H237740   6.227   1.004   6.367
12500WAT      O37741   0.111   8.254   6.007
12500WAT     H137742   0.060   8.171   6.031
12500WAT     H237743   0.197   8.255   6.059
12501WAT      O37744   0.531   5.934   2.648
12501WAT     H137745   0.502   6.006   2.584
12501WAT     H237746   0.501   5.958   2.740
12502WAT      O37747   0.934   7.073   0.593
12502WAT     H137748   0.930   7.167   0.628
12502WAT     H237749   1.021   7.032   0.621
12503WAT      O37750   2.260   8.525   0.719
12503WAT     H137751   2.264   8.467   0.638
12503WAT     H237752   2.168   8.522   0.758
12504WAT      O37753   1.132   0.465   4.191
12504WAT     H137754   1.099   0.411   4.114
12504WAT     H237755   1.098   0.425   4.276
12505WAT      O37756   2.498   9.507   3.899
12505WAT     H137757   2.488   9.456   3.985
12505WAT     H237758   2.546   9.449   3.833
12506WAT      O37759   6.427   6.330   0.737
12506WAT     H137760   6.337   6.318   0.696
12506WAT     H237761   6.484   6.250   0.715
12507WAT      O37762   3.316   1.881   2.386
12507WAT     H137763   3.227   1.836   2.398
12507WAT     H237764   3.385   1.812   2.362
12508WAT      O37765   2.205   1.141   0.108
12508WAT     H137766   2.305   1.143   0.105
12508WAT     H237767   2.169   1.230   0.078
12509WAT      O37768   9.090   6.230   1.964
12509WAT     H137769   9.170   6.253   1.909
12509WAT     H237770   9.103   6.141   2.006
12510WAT      O37771   0.103   1.889   7.296
12510WAT     H137772   0.012   1.915   7.266
12510WAT     H237773   0.171   1.928   7.234
12511WAT      O37774   8.210   9.061   3.914
12511WAT     H137775   8.251   8.985   3.964
12511WAT     H237776   8.210   9.143   3.971
12512WAT      O37777   8.918   7.024   1.211
12512WAT     H137778   9.004   7.034   1.261
12512WAT     H237779   8.845   6.999   1.274
12513WAT      O37780   9.222   5.879   9.462
12513WAT     H137781   9.183   5.912   9.376
12513WAT     H237782   9.149   5.868   9.529
12514WAT      O37783   7.899   2.178   8.223
12514WAT     H137784   7.868   2.268   8.251
12514WAT     H237785   7.835   2.140   8.156
12515WAT      O37786   1.968   8.725   6.424
12515WAT     H137787   1.886   8.768   6.385
12515WAT     H237788   2.011   8.789   6.488
12516WAT      O37789   7.609   9.367   7.597
12516WAT     H137790   7.660   9.336   7.516
12516WAT     H237791   7.601   9.466   7.594
12517WAT      O37792   1.411   0.292   2.266
12517WAT     H137793   1.362   0.295   2.352
12517WAT     H237794   1.508   0.311   2.282
12518WAT      O37795   6.183   0.269   4.485
12518WAT     H137796   6.140   0.296   4.399
12518WAT     H237797   6.203   0.171   4.484
12519WAT      O37798   1.941   2.943   1.852
12519WAT     H137799   1.856   2.976   1.894
12519WAT     H237800   2.019   2.982   1.902
12520WAT      O37801   9.528   2.777   3.026
12520WAT     H137802   9.488   2.731   2.946
12520WAT     H237803   9.570   2.708   3.086
12521WAT      O37804   2.777   2.486   9.459
12521WAT     H137805   2.772   2.467   9.557
12521WAT     H237806   2.862   2.534   9.438
12522WAT      O37807   3.938   4.841   3.917
12522WAT     H137808   4.024   4.889   3.932
12522WAT     H237809   3.954   4.766   3.852
12523WAT      O37810   5.571   6.835   3.736
12523WAT     H137811   5.574   6.777   3.655
12523WAT     H237812   5.505   6.799   3.801
12524WAT      O37813   6.841   8.885   5.776
12524WAT     H137814   6.843   8.985   5.773
12524WAT     H237815   6.868   8.855   5.868
12525WAT      O37816   8.476   6.200   5.446
12525WAT     H137817   8.450   6.284   5.397
12525WAT     H237818   8.494   6.127   5.380
12526WAT      O37819   9.781   3.621   2.406
12526WAT     H137820   9.853   3.558   2.434
12526WAT     H237821   9.726   3.579   2.334
12527WAT      O37822   6.608   6.136   0.192
12527WAT     H137823   6.599   6.225   0.147
12527WAT     H237824   6.572   6.065   0.132
12528WAT      O37825   1.616   3.207   0.171
12528WAT     H137826   1.699   3.243   0.129
12528WAT     H237827   1.590   3.264   0.249
12529WAT      O37828   0.892   5.624   8.814
12529WAT     H137829   0.894   5.655   8.909
12529WAT     H237830   0.930   5.696   8.755
12530WAT      O37831   6.871   8.218   4.345
12530WAT     H137832   6.908   8.136   4.301
12530WAT     H237833   6.772   8.221   4.333
12531WAT      O37834   2.788   4.219   6.574
12531WAT     H137835   2.860   4.277   6.612
12531WAT     H237836   2.731   4.274   6.512
12532WAT      O37837   3.916   8.843   0.543
12532WAT     H137838   3.906   8.883   0.634
12532WAT     H237839   3.929   8.744   0.552
12533WAT      O37840   2.212   4.676   1.828
12533WAT     H137841   2.188   4.660   1.732
12533WAT     H237842   2.171   4.606   1.885
12534WAT      O37843   6.074   0.529   7.799
12534WAT     H137844   6.173   0.542   7.792
12534WAT     H237845   6.055   0.445   7.850
12535WAT      O37846   9.615   6.450   3.206
12535WAT     H137847   9.663   6.362   3.198
12535WAT     H237848   9.531   6.448   3.153
12536WAT      O37849   6.841   4.150   8.998
12536WAT     H137850   6.910   4.200   8.946
12536WAT     H237851   6.761   4.134   8.941
12537WAT      O37852   5.374   3.092   2.989
12537WAT     H137853   5.332   3.144   2.914
12537WAT     H237854   5.325   3.112   3.074
12538WAT      O37855   0.485   5.156   0.960
12538WAT     H137856   0.496   5.191   0.867
12538WAT     H237857   0.574   5.131   0.997
12539WAT      O37858   3.430   3.123   4.835
12539WAT     H137859   3.446   3.200   4.773
12539WAT     H237860   3.361   3.148   4.903
12540WAT      O37861   9.878   9.472   3.240
12540WAT     H137862   9.801   9.536   3.236
12540WAT     H237863   9.936   9.485   3.159
12541WAT      O37864   6.545   0.844   5.236
12541WAT     H137865   6.587   0.772   5.292
12541WAT     H237866   6.477   0.804   5.175
12542WAT      O37867   8.122   7.216   6.795
12542WAT     H137868   8.195   7.191   6.858
12542WAT     H237869   8.126   7.314   6.777
12543WAT      O37870   6.532   5.287   8.957
12543WAT     H137871   6.528   5.268   8.859
12543WAT     H237872   6.606   5.235   8.998
12544WAT      O37873   5.414   5.504   7.740
12544WAT     H137874   5.492   5.496   7.802
12544WAT     H237875   5.339   5.448   7.775
12545WAT      O37876   5.653   7.090   8.723
12545WAT     H137877   5.648   6.991   8.710
12545WAT     H237878   5.576   7.121   8.778
12546WAT      O37879   7.623   9.276   5.359
12546WAT     H137880   7.659   9.277   5.265
12546WAT     H237881   7.693   9.239   5.420
12547WAT      O37882   6.259   4.152   4.214
12547WAT     H137883   6.315   4.207   4.277
12547WAT     H237884   6.215   4.212   4.148
12548WAT      O37885   3.003   1.444   8.876
12548WAT     H137886   2.968   1.502   8.802
12548WAT     H237887   3.050   1.500   8.943
12549WAT      O37888   2.561   9.084   7.545
12549WAT     H137889   2.484   9.081   7.609
12549WAT     H237890   2.529   9.112   7.455
12550WAT      O37891   5.086   8.083   9.871
12550WAT     H137892   5.100   7.986   9.888
12550WAT     H237893   4.999   8.097   9.825
12551WAT      O37894   5.932   1.369   4.759
12551WAT     H137895   6.009   1.393   4.818
12551WAT     H237896   5.943   1.276   4.726
12552WAT      O37897   7.984   5.309   7.066
12552WAT     H137898   8.043   5.369   7.120
12552WAT     H237899   7.965   5.351   6.977
12553WAT      O37900   5.075   1.506   0.814
12553WAT     H137901   5.048   1.414   0.842
12553WAT     H237902   5.025   1.531   0.730
12554WAT      O37903   3.061   4.370   0.983
12554WAT     H137904   2.986   4.429   1.014
12554WAT     H237905   3.109   4.333   1.062
12555WAT      O37906   9.244   9.478   3.660
12555WAT     H137907   9.295   9.496   3.744
12555WAT     H237908   9.146   9.470   3.682
12556WAT      O37909   0.439   4.717   5.069
12556WAT     H137910   0.497   4.742   5.146
12556WAT     H237911   0.419   4.619   5.073
12557WAT      O37912   3.318   0.946   9.393
12557WAT     H137913   3.287   1.041   9.394
12557WAT     H237914   3.385   0.931   9.466
12558WAT      O37915   1.793   1.017   0.007
12558WAT     H137916   1.755   0.998  -0.084
12558WAT     H237917   1.890   0.992   0.008
12559WAT      O37918   7.335   1.881   3.281
12559WAT     H137919   7.398   1.862   3.356
12559WAT     H237920   7.265   1.809   3.277
12560WAT      O37921   9.857   1.572   4.477
12560WAT     H137922   9.925   1.644   4.474
12560WAT     H237923   9.897   1.486   4.446
12561WAT      O37924   7.424   5.984   0.212
12561WAT     H137925   7.338   5.995   0.162
12561WAT     H237926   7.448   6.070   0.257
12562WAT      O37927   0.680   4.505   0.622
12562WAT     H137928   0.640   4.425   0.666
12562WAT     H237929   0.745   4.475   0.551
12563WAT      O37930   5.810   1.519   1.293
12563WAT     H137931   5.796   1.573   1.376
12563WAT     H237932   5.747   1.442   1.292
12564WAT      O37933   1.036   1.851   1.726
12564WAT     H137934   1.004   1.933   1.679
12564WAT     H237935   0.972   1.826   1.798
12565WAT      O37936   3.325   6.600   1.761
12565WAT     H137937   3.232   6.635   1.754
12565WAT     H237938   3.381   6.665   1.813
12566WAT      O37939   1.838   6.319   2.566
12566WAT     H137940   1.810   6.231   2.603
12566WAT     H237941   1.760   6.363   2.521
12567WAT      O37942   6.855   3.767   5.590
12567WAT     H137943   6.864   3.721   5.678
12567WAT     H237944   6.758   3.782   5.569
12568WAT      O37945   0.170   4.975   5.288
12568WAT     H137946   0.257   4.946   5.330
12568WAT     H237947   0.141   4.907   5.221
12569WAT      O37948   4.355   6.442   1.443
12569WAT     H137949   4.273   6.497   1.455
12569WAT     H237950   4.342   6.352   1.485
12570WAT      O37951   1.287   4.905   1.338
12570WAT     H137952   1.298   4.948   1.249
12570WAT     H237953   1.284   4.805   1.328
12571WAT      O37954   6.170   6.897   9.802
12571WAT     H137955   6.224   6.925   9.723
12571WAT     H237956   6.081   6.863   9.771
12572WAT      O37957   3.198   1.960   5.532
12572WAT     H137958   3.133   2.021   5.577
12572WAT     H237959   3.148   1.887   5.484
12573WAT      O37960   9.717   8.489   4.049
12573WAT     H137961   9.627   8.509   4.010
12573WAT     H237962   9.787   8.540   3.999
12574WAT      O37963   8.932   2.311   8.201
12574WAT     H137964   8.962   2.361   8.282
12574WAT     H237965   8.833   2.295   8.206
12575WAT      O37966   1.989   6.712   2.742
12575WAT     H137967   2.053   6.637   2.757
12575WAT     H237968   1.904   6.676   2.704
12576WAT      O37969   9.267   9.384   7.217
12576WAT     H137970   9.246   9.417   7.125
12576WAT     H237971   9.184   9.386   7.272
12577WAT      O37972   3.411   1.492   8.873
12577WAT     H137973   3.425   1.430   8.796
12577WAT     H237974   3.469   1.464   8.949
12578WAT      O37975   0.975   6.502   7.176
12578WAT     H137976   0.927   6.586   7.200
12578WAT     H237977   0.953   6.476   7.082
12579WAT      O37978   8.230   3.875   8.679
12579WAT     H137979   8.230   3.911   8.586
12579WAT     H237980   8.317   3.832   8.699
12580WAT      O37981   9.864   8.509   2.123
12580WAT     H137982   9.883   8.411   2.128
12580WAT     H237983   9.950   8.560   2.115
12581WAT      O37984   1.198   0.010   8.220
12581WAT     H137985   1.175  -0.087   8.232
12581WAT     H237986   1.250   0.021   8.135
12582WAT      O37987   6.093   6.223   2.242
12582WAT     H137988   6.101   6.206   2.341
12582WAT     H237989   6.173   6.274   2.210
12583WAT      O37990   6.611   0.140   1.974
12583WAT     H137991   6.620   0.223   2.029
12583WAT     H237992   6.568   0.162   1.887
12584WAT      O37993   2.104   1.598   9.438
12584WAT     H137994   2.074   1.627   9.347
12584WAT     H237995   2.201   1.571   9.434
12585WAT      O37996   6.602   6.607   9.100
12585WAT     H137997   6.585   6.550   9.020
12585WAT     H237998   6.587   6.552   9.183
12586WAT      O37999   1.151   6.042   5.203
12586WAT     H138000   1.088   6.117   5.181
12586WAT     H238001   1.125   5.960   5.153
12587WAT      O38002   5.690   0.954   3.150
12587WAT     H138003   5.712   1.050   3.136
12587WAT     H238004   5.598   0.946   3.189
12588WAT      O38005   4.475   0.822   6.926
12588WAT     H138006   4.440   0.809   6.833
12588WAT     H238007   4.526   0.907   6.931
12589WAT      O38008   3.186   0.246   8.593
12589WAT     H138009   3.249   0.229   8.517
12589WAT     H238010   3.092   0.237   8.560
12590WAT      O38011   6.054   8.812   7.653
12590WAT     H138012   6.145   8.812   7.611
12590WAT     H238013   6.055   8.870   7.735
12591WAT      O38014   6.483   9.164   5.887
12591WAT     H138015   6.543   9.095   5.927
12591WAT     H238016   6.395   9.124   5.863
12592WAT      O38017   2.282   2.581   3.346
12592WAT     H138018   2.198   2.529   3.328
12592WAT     H238019   2.298   2.586   3.444
12593WAT      O38020   3.771   4.179   5.921
12593WAT     H138021   3.812   4.191   6.011
12593WAT     H238022   3.675   4.155   5.931
12594WAT      O38023   1.970   3.271   9.741
12594WAT     H138024   2.068   3.278   9.728
12594WAT     H238025   1.951   3.209   9.817
12595WAT      O38026   7.546   0.405   7.845
12595WAT     H138027   7.641   0.419   7.818
12595WAT     H238028   7.527   0.458   7.928
12596WAT      O38029   3.106   2.322   9.777
12596WAT     H138030   3.200   2.302   9.749
12596WAT     H238031   3.050   2.240   9.766
12597WAT      O38032   8.875   0.527   1.465
12597WAT     H138033   8.836   0.442   1.430
12597WAT     H238034   8.972   0.532   1.441
12598WAT      O38035   0.275   2.022   7.159
12598WAT     H138036   0.246   2.039   7.064
12598WAT     H238037   0.312   2.107   7.198
12599WAT      O38038   7.053   2.207   8.860
12599WAT     H138039   7.003   2.285   8.898
12599WAT     H238040   7.089   2.232   8.770
12600WAT      O38041   1.192   7.000   0.660
12600WAT     H138042   1.253   7.053   0.601
12600WAT     H238043   1.168   7.054   0.741
12601WAT      O38044   3.875   0.947   2.942
12601WAT     H138045   3.788   0.930   2.896
12601WAT     H238046   3.890   0.878   3.013
12602WAT      O38047   6.871   0.720   3.331
12602WAT     H138048   6.912   0.715   3.422
12602WAT     H238049   6.922   0.786   3.275
12603WAT      O38050   9.447   6.182   7.611
12603WAT     H138051   9.507   6.248   7.566
12603WAT     H238052   9.374   6.231   7.659
12604WAT      O38053   3.246   1.163   5.256
12604WAT     H138054   3.238   1.187   5.353
12604WAT     H238055   3.300   1.232   5.209
12605WAT      O38056   6.934   0.498   0.829
12605WAT     H138057   7.006   0.559   0.862
12605WAT     H238058   6.950   0.477   0.732
12606WAT      O38059   6.355   3.018   9.221
12606WAT     H138060   6.343   3.113   9.249
12606WAT     H238061   6.327   2.958   9.296
12607WAT      O38062   9.161   3.535   1.425
12607WAT     H138063   9.219   3.456   1.444
12607WAT     H238064   9.183   3.609   1.489
12608WAT      O38065   5.280   1.739   4.202
12608WAT     H138066   5.374   1.772   4.214
12608WAT     H238067   5.255   1.683   4.281
12609WAT      O38068   0.697   9.310   8.457
12609WAT     H138069   0.749   9.337   8.539
12609WAT     H238070   0.673   9.391   8.405
12610WAT      O38071   1.012   8.706   2.296
12610WAT     H138072   0.963   8.789   2.323
12610WAT     H238073   1.037   8.654   2.377
12611WAT      O38074   0.788   8.292   2.829
12611WAT     H138075   0.800   8.381   2.872
12611WAT     H238076   0.690   8.274   2.818
12612WAT      O38077   0.983   2.913   2.425
12612WAT     H138078   0.953   3.009   2.423
12612WAT     H238079   0.904   2.854   2.414
12613WAT      O38080   9.608   2.641   5.128
12613WAT     H138081   9.630   2.645   5.225
12613WAT     H238082   9.513   2.671   5.113
12614WAT      O38083   4.608   1.607   4.817
12614WAT     H138084   4.685   1.670   4.818
12614WAT     H238085   4.570   1.601   4.725
12615WAT      O38086   6.684   4.036   1.993
12615WAT     H138087   6.639   3.955   1.956
12615WAT     H238088   6.716   4.016   2.086
12616WAT      O38089   7.463   1.259   7.871
12616WAT     H138090   7.423   1.216   7.951
12616WAT     H238091   7.508   1.190   7.815
12617WAT      O38092   7.906   6.278   7.250
12617WAT     H138093   7.944   6.187   7.262
12617WAT     H238094   7.980   6.345   7.241
12618WAT      O38095   0.572   4.380   4.603
12618WAT     H138096   0.655   4.431   4.627
12618WAT     H238097   0.492   4.432   4.630
12619WAT      O38098   2.096   9.069   3.421
12619WAT     H138099   2.045   8.987   3.394
12619WAT     H238100   2.193   9.046   3.431
12620WAT      O38101   7.507   1.958   5.774
12620WAT     H138102   7.440   1.970   5.700
12620WAT     H238103   7.598   1.980   5.741
12621WAT      O38104   5.080   9.357   0.777
12621WAT     H138105   5.068   9.384   0.682
12621WAT     H238106   5.167   9.308   0.787
12622WAT      O38107   5.762   1.599   6.317
12622WAT     H138108   5.709   1.543   6.253
12622WAT     H238109   5.766   1.555   6.406
12623WAT      O38110   6.425   4.883   5.651
12623WAT     H138111   6.392   4.794   5.682
12623WAT     H238112   6.349   4.946   5.643
12624WAT      O38113   2.064   4.125   9.195
12624WAT     H138114   1.967   4.125   9.174
12624WAT     H238115   2.077   4.114   9.294
12625WAT      O38116   8.407   6.730   2.596
12625WAT     H138117   8.325   6.724   2.540
12625WAT     H238118   8.462   6.647   2.584
12626WAT      O38119   5.179   3.935   8.366
12626WAT     H138120   5.103   3.921   8.429
12626WAT     H238121   5.193   4.033   8.352
12627WAT      O38122   8.044   2.254   8.931
12627WAT     H138123   8.089   2.319   8.992
12627WAT     H238124   8.098   2.243   8.848
12628WAT      O38125   7.675   7.494   1.394
12628WAT     H138126   7.756   7.461   1.442
12628WAT     H238127   7.594   7.445   1.425
12629WAT      O38128   7.591   1.441   8.850
12629WAT     H138129   7.552   1.474   8.765
12629WAT     H238130   7.551   1.491   8.927
12630WAT      O38131   3.339   1.354   5.063
12630WAT     H138132   3.318   1.448   5.092
12630WAT     H238133   3.302   1.340   4.971
12631WAT      O38134   1.393   9.613   1.593
12631WAT     H138135   1.473   9.574   1.638
12631WAT     H238136   1.420   9.694   1.541
12632WAT      O38137   5.448   5.551   0.964
12632WAT     H138138   5.392   5.468   0.970
12632WAT     H238139   5.446   5.599   1.052
12633WAT      O38140   4.470   1.143   1.196
12633WAT     H138141   4.548   1.144   1.134
12633WAT     H238142   4.464   1.055   1.241
12634WAT      O38143   4.298   1.211   2.379
12634WAT     H138144   4.351   1.139   2.424
12634WAT     H238145   4.222   1.238   2.438
12635WAT      O38146   7.685   7.384   3.157
12635WAT     H138147   7.626   7.459   3.187
12635WAT     H238148   7.780   7.415   3.153
12636WAT      O38149   9.831   8.956   6.534
12636WAT     H138150   9.891   8.876   6.538
12636WAT     H238151   9.786   8.959   6.444
12637WAT      O38152   6.018   3.437   2.201
12637WAT     H138153   6.114   3.415   2.222
12637WAT     H238154   6.011   3.465   2.105
12638WAT      O38155   0.322   0.073   8.943
12638WAT     H138156   0.312  -0.025   8.929
12638WAT     H238157   0.239   0.109   8.985
12639WAT      O38158   2.245   4.043   0.159
12639WAT     H138159   2.218   3.987   0.237
12639WAT     H238160   2.190   4.127   0.158
12640WAT      O38161   2.779   8.853   4.965
12640WAT     H138162   2.809   8.939   4.923
12640WAT     H238163   2.838   8.779   4.934
12641WAT      O38164   0.868   0.969   8.304
12641WAT     H138165   0.917   1.030   8.241
12641WAT     H238166   0.836   0.889   8.254
12642WAT      O38167   5.912   6.842   2.339
12642WAT     H138168   5.813   6.824   2.331
12642WAT     H238169   5.926   6.925   2.393
12643WAT      O38170   7.680   7.586   4.092
12643WAT     H138171   7.627   7.628   4.166
12643WAT     H238172   7.761   7.543   4.129
12644WAT      O38173   7.843   3.254   4.286
12644WAT     H138174   7.752   3.289   4.266
12644WAT     H238175   7.837   3.159   4.316
12645WAT      O38176   2.310   5.071   5.312
12645WAT     H138177   2.265   5.052   5.399
12645WAT     H238178   2.372   4.996   5.288
12646WAT      O38179   8.370   5.801   0.801
12646WAT     H138180   8.455   5.770   0.843
12646WAT     H238181   8.391   5.852   0.717
12647WAT      O38182   7.654   5.376   4.792
12647WAT     H138183   7.649   5.276   4.789
12647WAT     H238184   7.690   5.410   4.705
12648WAT      O38185   0.868   1.485   6.351
12648WAT     H138186   0.800   1.554   6.327
12648WAT     H238187   0.919   1.458   6.269
12649WAT      O38188   5.076   7.660   0.264
12649WAT     H138189   5.158   7.611   0.234
12649WAT     H238190   5.051   7.629   0.356
12650WAT      O38191   5.227   8.859   6.871
12650WAT     H138192   5.280   8.900   6.945
12650WAT     H238193   5.280   8.785   6.829
12651WAT      O38194   9.496   4.836   9.838
12651WAT     H138195   9.468   4.740   9.844
12651WAT     H238196   9.432   4.886   9.779
12652WAT      O38197   8.125   2.456   0.939
12652WAT     H138198   8.036   2.500   0.929
12652WAT     H238199   8.174   2.459   0.851
12653WAT      O38200   0.341   0.125   3.348
12653WAT     H138201   0.365   0.173   3.264
12653WAT     H238202   0.408   0.053   3.365
12654WAT      O38203   8.255   9.497   2.758
12654WAT     H138204   8.283   9.484   2.663
12654WAT     H238205   8.319   9.447   2.818
12655WAT      O38206   5.833   5.769   5.929
12655WAT     H138207   5.777   5.811   5.858
12655WAT     H238208   5.777   5.708   5.985
12656WAT      O38209   9.562   3.002   8.117
12656WAT     H138210   9.597   2.955   8.198
12656WAT     H238211   9.586   2.948   8.035
12657WAT      O38212   3.507   6.071   3.491
12657WAT     H138213   3.502   5.987   3.438
12657WAT     H238214   3.603   6.098   3.503
12658WAT      O38215   2.152   8.623   1.178
12658WAT     H138216   2.105   8.671   1.104
12658WAT     H238217   2.085   8.587   1.243
12659WAT      O38218   1.459   1.591   0.028
12659WAT     H138219   1.520   1.616   0.104
12659WAT     H238220   1.480   1.497  -0.000
12660WAT      O38221   7.378   8.515   8.941
12660WAT     H138222   7.337   8.434   8.983
12660WAT     H238223   7.365   8.511   8.842
12661WAT      O38224   8.931   8.828   9.389
12661WAT     H138225   8.869   8.754   9.364
12661WAT     H238226   8.882   8.894   9.447
12662WAT      O38227   3.493   8.369   6.332
12662WAT     H138228   3.434   8.395   6.256
12662WAT     H238229   3.519   8.273   6.324
12663WAT      O38230   3.639   4.078   2.309
12663WAT     H138231   3.701   4.107   2.236
12663WAT     H238232   3.550   4.123   2.298
12664WAT      O38233   9.527   1.945   0.372
12664WAT     H138234   9.587   1.885   0.425
12664WAT     H238235   9.545   2.040   0.397
12665WAT      O38236   0.797   2.973   1.249
12665WAT     H138237   0.725   3.040   1.235
12665WAT     H238238   0.833   2.943   1.160
12666WAT      O38239   7.853   7.038   5.432
12666WAT     H138240   7.792   7.092   5.491
12666WAT     H238241   7.879   6.954   5.480
12667WAT      O38242   1.112   0.008   5.107
12667WAT     H138243   1.040   0.073   5.082
12667WAT     H238244   1.198   0.058   5.122
12668WAT      O38245   1.918   1.374   7.349
12668WAT     H138246   1.936   1.471   7.331
12668WAT     H238247   1.868   1.335   7.272
12669WAT      O38248   7.134   4.638   8.303
12669WAT     H138249   7.101   4.554   8.345
12669WAT     H238250   7.079   4.715   8.336
12670WAT      O38251   9.629   8.914   9.786
12670WAT     H138252   9.579   8.995   9.756
12670WAT     H238253   9.694   8.939   9.858
12671WAT      O38254   6.219   7.731   2.654
12671WAT     H138255   6.192   7.698   2.563
12671WAT     H238256   6.139   7.771   2.700
12672WAT      O38257   6.890   9.500   4.269
12672WAT     H138258   6.848   9.470   4.355
12672WAT     H238259   6.897   9.600   4.268
12673WAT      O38260   8.101   4.455   2.739
12673WAT     H138261   8.003   4.452   2.754
12673WAT     H238262   8.138   4.539   2.778
12674WAT      O38263   4.756   6.483   9.681
12674WAT     H138264   4.837   6.424   9.671
12674WAT     H238265   4.695   6.444   9.750
12675WAT      O38266   8.729   3.891   6.484
12675WAT     H138267   8.669   3.890   6.563
12675WAT     H238268   8.773   3.980   6.477
12676WAT      O38269   0.554   5.289   7.451
12676WAT     H138270   0.586   5.346   7.375
12676WAT     H238271   0.470   5.242   7.425
12677WAT      O38272   2.493   6.753   0.344
12677WAT     H138273   2.529   6.740   0.252
12677WAT     H238274   2.497   6.666   0.394
12678WAT      O38275   8.158   4.562   8.682
12678WAT     H138276   8.149   4.520   8.772
12678WAT     H238277   8.130   4.658   8.686
12679WAT      O38278   9.400   2.313   6.820
12679WAT     H138279   9.414   2.412   6.810
12679WAT     H238280   9.471   2.275   6.879
12680WAT      O38281   5.376   1.355   7.060
12680WAT     H138282   5.276   1.365   7.054
12680WAT     H238283   5.402   1.334   7.154
12681WAT      O38284   0.197   3.863   4.698
12681WAT     H138285   0.193   3.952   4.743
12681WAT     H238286   0.248   3.798   4.755
12682WAT      O38287   3.064   1.698   3.981
12682WAT     H138288   3.028   1.668   4.069
12682WAT     H238289   3.120   1.625   3.941
12683WAT      O38290   7.176   6.856   0.873
12683WAT     H138291   7.201   6.924   0.942
12683WAT     H238292   7.158   6.903   0.786
12684WAT      O38293   3.402   4.567   4.109
12684WAT     H138294   3.482   4.507   4.113
12684WAT     H238295   3.416   4.637   4.038
12685WAT      O38296   7.642   1.797   8.291
12685WAT     H138297   7.595   1.780   8.204
12685WAT     H238298   7.679   1.710   8.326
12686WAT      O38299   2.016   4.261   3.813
12686WAT     H138300   2.090   4.231   3.753
12686WAT     H238301   1.977   4.183   3.860
12687WAT      O38302   6.315   8.386   7.345
12687WAT     H138303   6.281   8.427   7.260
12687WAT     H238304   6.414   8.375   7.339
12688WAT      O38305   5.756   0.809   4.099
12688WAT     H138306   5.820   0.870   4.145
12688WAT     H238307   5.668   0.811   4.147
12689WAT      O38308   1.415   0.222   5.285
12689WAT     H138309   1.440   0.156   5.355
12689WAT     H238310   1.416   0.178   5.195
12690WAT      O38311   0.107   2.017   2.634
12690WAT     H138312   0.047   2.016   2.555
12690WAT     H238313   0.104   2.107   2.677
12691WAT      O38314   5.295   6.553   4.835
12691WAT     H138315   5.344   6.639   4.846
12691WAT     H238316   5.202   6.571   4.803
12692WAT      O38317   4.620   4.595   8.255
12692WAT     H138318   4.550   4.608   8.185
12692WAT     H238319   4.709   4.586   8.212
12693WAT      O38320   6.622   6.780   0.085
12693WAT     H138321   6.698   6.768   0.021
12693WAT     H238322   6.624   6.873   0.123
12694WAT      O38323   8.181   9.766   5.506
12694WAT     H138324   8.259   9.726   5.458
12694WAT     H238325   8.202   9.859   5.534
12695WAT      O38326   9.325   7.830   4.426
12695WAT     H138327   9.387   7.760   4.460
12695WAT     H238328   9.374   7.917   4.419
12696WAT      O38329   1.579   4.361   7.952
12696WAT     H138330   1.678   4.373   7.950
12696WAT     H238331   1.536   4.429   7.892
12697WAT      O38332   3.049   0.127   1.635
12697WAT     H138333   3.130   0.162   1.588
12697WAT     H238334   2.967   0.157   1.587
12698WAT      O38335   9.247   8.312   8.223
12698WAT     H138336   9.251   8.406   8.190
12698WAT     H238337   9.224   8.251   8.147
12699WAT      O38338   4.020   7.810   9.483
12699WAT     H138339   3.932   7.825   9.437
12699WAT     H238340   4.088   7.874   9.448
12700WAT      O38341   2.074   1.639   3.502
12700WAT     H138342   1.992   1.696   3.503
12700WAT     H238343   2.153   1.693   3.526
12701WAT      O38344   3.078   6.519   7.437
12701WAT     H138345   3.049   6.500   7.530
12701WAT     H238346   3.113   6.612   7.430
12702WAT      O38347   9.089   8.048   3.737
12702WAT     H138348   9.019   8.101   3.784
12702WAT     H238349   9.077   7.951   3.759
12703WAT      O38350   6.613   4.773   2.986
12703WAT     H138351   6.651   4.680   2.988
12703WAT     H238352   6.606   4.804   2.892
12704WAT      O38353   7.438   3.649   8.734
12704WAT     H138354   7.409   3.713   8.805
12704WAT     H238355   7.504   3.584   8.774
12705WAT      O38356   1.448   8.451   0.373
12705WAT     H138357   1.406   8.540   0.389
12705WAT     H238358   1.389   8.397   0.313
12706WAT      O38359   5.708   4.304   1.652
12706WAT     H138360   5.641   4.265   1.589
12706WAT     H238361   5.683   4.281   1.746
12707WAT      O38362   8.927   4.083   1.738
12707WAT     H138363   8.996   4.013   1.720
12707WAT     H238364   8.902   4.083   1.835
12708WAT      O38365   7.910   6.416   5.872
12708WAT     H138366   7.891   6.473   5.952
12708WAT     H238367   7.903   6.472   5.790
12709WAT      O38368   3.633   9.460   8.948
12709WAT     H138369   3.576   9.427   9.023
12709WAT     H238370   3.616   9.404   8.866
12710WAT      O38371   9.473   1.927   4.820
12710WAT     H138372   9.559   1.883   4.796
12710WAT     H238373   9.492   2.020   4.854
12711WAT      O38374   1.633   7.983   6.613
12711WAT     H138375   1.656   8.018   6.704
12711WAT     H238376   1.572   8.048   6.567
12712WAT      O38377   6.786   5.859   1.395
12712WAT     H138378   6.854   5.790   1.420
12712WAT     H238379   6.737   5.889   1.478
12713WAT      O38380   1.915   6.641   6.771
12713WAT     H138381   1.823   6.674   6.751
12713WAT     H238382   1.981   6.682   6.708
12714WAT      O38383   8.844   8.552   9.348
12714WAT     H138384   8.923   8.523   9.293
12714WAT     H238385   8.842   8.500   9.433
12715WAT      O38386   8.862   0.560   3.130
12715WAT     H138387   8.801   0.571   3.208
12715WAT     H238388   8.903   0.648   3.107
12716WAT      O38389   3.989   8.342   3.320
12716WAT     H138390   3.966   8.336   3.418
12716WAT     H238391   3.936   8.416   3.278
12717WAT      O38392   0.567   7.337   4.902
12717WAT     H138393   0.646   7.276   4.911
12717WAT     H238394   0.574   7.411   4.968
12718WAT      O38395   4.779   7.024   9.400
12718WAT     H138396   4.840   7.029   9.320
12718WAT     H238397   4.735   7.113   9.412
12719WAT      O38398   8.813   2.616   4.318
12719WAT     H138399   8.883   2.571   4.373
12719WAT     H238400   8.725   2.569   4.331
12720WAT      O38401   9.308   0.860   9.188
12720WAT     H138402   9.374   0.900   9.251
12720WAT     H238403   9.249   0.796   9.238
12721WAT      O38404   8.462   4.017   2.178
12721WAT     H138405   8.510   4.090   2.228
12721WAT     H238406   8.365   4.041   2.168
12722WAT      O38407   2.888   5.109   0.673
12722WAT     H138408   2.946   5.129   0.752
12722WAT     H238409   2.801   5.157   0.682
12723WAT      O38410   8.770   0.480   1.722
12723WAT     H138411   8.847   0.512   1.778
12723WAT     H238412   8.773   0.526   1.633
12724WAT      O38413   3.306   4.177   1.453
12724WAT     H138414   3.361   4.182   1.536
12724WAT     H238415   3.367   4.162   1.374
12725WAT      O38416   5.611   4.278   9.644
12725WAT     H138417   5.684   4.342   9.670
12725WAT     H238418   5.647   4.185   9.645
12726WAT      O38419   9.615   7.217   3.959
12726WAT     H138420   9.547   7.186   3.892
12726WAT     H238421   9.629   7.315   3.948
12727WAT      O38422   6.575   1.440   9.249
12727WAT     H138423   6.664   1.485   9.235
12727WAT     H238424   6.521   1.494   9.313
12728WAT      O38425   3.431   1.476   2.236
12728WAT     H138426   3.512   1.503   2.288
12728WAT     H238427   3.447   1.494   2.139
12729WAT      O38428   7.711   3.500   3.835
12729WAT     H138429   7.659   3.515   3.751
12729WAT     H238430   7.680   3.563   3.906
12730WAT      O38431   1.142   2.733   1.698
12730WAT     H138432   1.045   2.731   1.723
12730WAT     H238433   1.156   2.803   1.627
12731WAT      O38434   8.629   6.217   0.964
12731WAT     H138435   8.690   6.290   0.936
12731WAT     H238436   8.645   6.135   0.908
12732WAT      O38437   3.802   5.927   8.585
12732WAT     H138438   3.901   5.915   8.590
12732WAT     H238439   3.763   5.861   8.520
12733WAT      O38440   5.755   7.856   3.799
12733WAT     H138441   5.802   7.941   3.821
12733WAT     H238442   5.777   7.787   3.868
12734WAT      O38443   1.442   4.980   6.405
12734WAT     H138444   1.452   5.066   6.355
12734WAT     H238445   1.418   4.907   6.341
12735WAT      O38446   4.706   6.012   3.166
12735WAT     H138447   4.696   5.938   3.099
12735WAT     H238448   4.630   6.009   3.231
12736WAT      O38449   0.712   6.735   6.055
12736WAT     H138450   0.810   6.753   6.049
12736WAT     H238451   0.693   6.681   6.137
12737WAT      O38452   1.578   7.059   0.137
12737WAT     H138453   1.530   6.986   0.184
12737WAT     H238454   1.674   7.033   0.123
12738WAT      O38455   7.397   9.242   7.682
12738WAT     H138456   7.372   9.276   7.772
12738WAT     H238457   7.479   9.289   7.650
12739WAT      O38458   7.259   8.937   6.310
12739WAT     H138459   7.303   8.861   6.262
12739WAT     H238460   7.212   8.903   6.391
12740WAT      O38461   1.457   3.440   9.334
12740WAT     H138462   1.536   3.482   9.290
12740WAT     H238463   1.378   3.500   9.325
12741WAT      O38464   9.816   6.616   7.678
12741WAT     H138465   9.784   6.602   7.772
12741WAT     H238466   9.799   6.533   7.625
12742WAT      O38467   4.166   2.200   8.655
12742WAT     H138468   4.216   2.211   8.741
12742WAT     H238469   4.069   2.189   8.675
12743WAT      O38470   4.135   4.724   9.153
12743WAT     H138471   4.133   4.806   9.210
12743WAT     H238472   4.230   4.705   9.126
12744WAT      O38473   9.659   1.680   5.364
12744WAT     H138474   9.601   1.606   5.331
12744WAT     H238475   9.606   1.741   5.422
12745WAT      O38476   4.015   1.671   7.798
12745WAT     H138477   4.070   1.592   7.825
12745WAT     H238478   3.919   1.644   7.796
12746WAT      O38479   3.287   9.480   1.012
12746WAT     H138480   3.195   9.516   1.025
12746WAT     H238481   3.354   9.546   1.045
12747WAT      O38482   8.292   4.807   0.757
12747WAT     H138483   8.355   4.881   0.783
12747WAT     H238484   8.207   4.846   0.723
12748WAT      O38485   1.700   3.470   7.000
12748WAT     H138486   1.672   3.507   6.911
12748WAT     H238487   1.799   3.454   7.000
12749WAT      O38488   5.100   1.945   3.800
12749WAT     H138489   5.191   1.972   3.830
12749WAT     H238490   5.047   2.027   3.776
12750WAT      O38491   6.651   4.022   6.245
12750WAT     H138492   6.598   3.939   6.230
12750WAT     H238493   6.672   4.032   6.342
12751WAT      O38494   9.355   5.388   6.460
12751WAT     H138495   9.304   5.463   6.416
12751WAT     H238496   9.426   5.426   6.519
12752WAT      O38497   3.804   7.008   3.912
12752WAT     H138498   3.721   6.958   3.886
12752WAT     H238499   3.883   6.965   3.869
12753WAT      O38500   1.594   9.673   2.874
12753WAT     H138501   1.500   9.700   2.854
12753WAT     H238502   1.638   9.744   2.929
12754WAT      O38503   1.412   0.778   1.425
12754WAT     H138504   1.390   0.875   1.416
12754WAT     H238505   1.486   0.766   1.490
12755WAT      O38506   9.025   7.578   7.130
12755WAT     H138507   9.110   7.535   7.159
12755WAT     H238508   9.037   7.616   7.038
12756WAT      O38509   8.462   3.875   9.747
12756WAT     H138510   8.452   3.971   9.775
12756WAT     H238511   8.377   3.826   9.766
12757WAT      O38512   6.661   2.041   4.907
12757WAT     H138513   6.667   1.969   4.976
12757WAT     H238514   6.598   2.014   4.835
12758WAT      O38515   9.854   4.010   7.052
12758WAT     H138516   9.802   3.986   6.970
12758WAT     H238517   9.900   3.929   7.088
12759WAT      O38518   6.738   3.702   9.668
12759WAT     H138519   6.672   3.646   9.618
12759WAT     H238520   6.802   3.642   9.716
12760WAT      O38521   6.268   3.429   1.407
12760WAT     H138522   6.266   3.408   1.309
12760WAT     H238523   6.257   3.345   1.460
12761WAT      O38524   0.489   2.861   5.440
12761WAT     H138525   0.530   2.795   5.377
12761WAT     H238526   0.489   2.952   5.397
12762WAT      O38527   4.468   1.071   2.585
12762WAT     H138528   4.546   1.008   2.581
12762WAT     H238529   4.498   1.160   2.616
12763WAT      O38530   7.471   3.033   2.640
12763WAT     H138531   7.441   3.041   2.735
12763WAT     H238532   7.423   3.100   2.584
12764WAT      O38533   5.090   3.733   9.667
12764WAT     H138534   5.041   3.647   9.682
12764WAT     H238535   5.128   3.735   9.575
12765WAT      O38536   4.595   9.229   7.118
12765WAT     H138537   4.503   9.247   7.082
12765WAT     H238538   4.636   9.153   7.068
12766WAT      O38539   9.684   7.956   7.799
12766WAT     H138540   9.738   8.002   7.729
12766WAT     H238541   9.740   7.885   7.842
12767WAT      O38542   7.272   2.581   7.714
12767WAT     H138543   7.298   2.520   7.640
12767WAT     H238544   7.328   2.562   7.795
12768WAT      O38545   3.410   9.017   0.667
12768WAT     H138546   3.328   8.976   0.708
12768WAT     H238547   3.464   9.062   0.738
12769WAT      O38548   8.820   0.482   3.490
12769WAT     H138549   8.795   0.393   3.452
12769WAT     H238550   8.797   0.553   3.424
12770WAT      O38551   4.914   3.991   2.429
12770WAT     H138552   4.842   3.982   2.498
12770WAT     H238553   4.912   3.913   2.367
12771WAT      O38554   4.979   7.069   3.727
12771WAT     H138555   4.979   6.969   3.723
12771WAT     H238556   4.997   7.106   3.636
12772WAT      O38557   1.102   3.570   7.851
12772WAT     H138558   1.112   3.531   7.943
12772WAT     H238559   1.021   3.533   7.807
12773WAT      O38560   6.745   9.778   6.111
12773WAT     H138561   6.792   9.850   6.059
12773WAT     H238562   6.651   9.769   6.077
12774WAT      O38563   3.465   4.439   3.722
12774WAT     H138564   3.516   4.487   3.793
12774WAT     H238565   3.507   4.350   3.704
12775WAT      O38566   2.388   5.732   9.137
12775WAT     H138567   2.366   5.770   9.227
12775WAT     H238568   2.404   5.806   9.072
12776WAT      O38569   5.861   2.017   4.430
12776WAT     H138570   5.936   2.016   4.497
12776WAT     H238571   5.897   2.003   4.338
12777WAT      O38572   2.362   5.779   0.146
12777WAT     H138573   2.310   5.739   0.222
12777WAT     H238574   2.444   5.724   0.129
12778WAT      O38575   1.192   7.474   4.523
12778WAT     H138576   1.192   7.519   4.434
12778WAT     H238577   1.279   7.428   4.537
12779WAT      O38578   2.378   0.700   5.436
12779WAT     H138579   2.326   0.632   5.385
12779WAT     H238580   2.394   0.667   5.529
12780WAT      O38581   3.761   0.292   1.851
12780WAT     H138582   3.675   0.298   1.902
12780WAT     H238583   3.786   0.196   1.839
12781WAT      O38584   7.302   0.162   2.668
12781WAT     H138585   7.240   0.096   2.626
12781WAT     H238586   7.253   0.246   2.689
12782WAT      O38587   1.769   1.941   1.308
12782WAT     H138588   1.782   1.867   1.374
12782WAT     H238589   1.814   1.917   1.222
12783WAT      O38590   6.341   9.846   1.253
12783WAT     H138591   6.309   9.759   1.290
12783WAT     H238592   6.361   9.836   1.155
12784WAT      O38593   0.493   0.864   0.336
12784WAT     H138594   0.529   0.779   0.376
12784WAT     H238595   0.467   0.927   0.409
12785WAT      O38596   1.939   5.195   0.468
12785WAT     H138597   1.877   5.180   0.392
12785WAT     H238598   1.887   5.198   0.553
12786WAT      O38599   0.689   1.456   0.783
12786WAT     H138600   0.624   1.496   0.718
12786WAT     H238601   0.771   1.428   0.733
12787WAT      O38602   1.020   7.693   1.974
12787WAT     H138603   0.960   7.730   1.904
12787WAT     H238604   1.008   7.594   1.980
12788WAT      O38605   1.183   6.801   6.147
12788WAT     H138606   1.268   6.810   6.198
12788WAT     H238607   1.152   6.706   6.150
12789WAT      O38608   9.343   9.264   6.189
12789WAT     H138609   9.441   9.261   6.205
12789WAT     H238610   9.314   9.184   6.137
12790WAT      O38611   2.851   5.662   6.139
12790WAT     H138612   2.891   5.730   6.077
12790WAT     H238613   2.795   5.598   6.087
12791WAT      O38614   7.138   5.550   8.694
12791WAT     H138615   7.083   5.634   8.687
12791WAT     H238616   7.142   5.521   8.789
12792WAT      O38617   7.313   9.252   0.989
12792WAT     H138618   7.393   9.296   1.028
12792WAT     H238619   7.257   9.213   1.062
12793WAT      O38620   1.971   6.827   3.863
12793WAT     H138621   1.988   6.771   3.782
12793WAT     H238622   2.055   6.832   3.918
12794WAT      O38623   8.811   2.486   2.362
12794WAT     H138624   8.901   2.449   2.381
12794WAT     H238625   8.746   2.452   2.430
12795WAT      O38626   4.013   8.017   5.822
12795WAT     H138627   3.958   8.099   5.838
12795WAT     H238628   4.021   7.965   5.907
12796WAT      O38629   5.296   8.487   6.191
12796WAT     H138630   5.357   8.411   6.213
12796WAT     H238631   5.310   8.515   6.096
12797WAT      O38632   3.492   2.373   9.076
12797WAT     H138633   3.459   2.434   9.004
12797WAT     H238634   3.516   2.426   9.157
12798WAT      O38635   6.761   2.982   4.167
12798WAT     H138636   6.801   2.909   4.112
12798WAT     H238637   6.829   3.013   4.234
12799WAT      O38638   4.336   7.164   5.863
12799WAT     H138639   4.379   7.090   5.811
12799WAT     H238640   4.278   7.218   5.801
12800WAT      O38641   8.653   2.040   3.191
12800WAT     H138642   8.588   2.076   3.259
12800WAT     H238643   8.737   2.094   3.195
12801WAT      O38644   2.404   2.253   8.468
12801WAT     H138645   2.447   2.242   8.378
12801WAT     H238646   2.467   2.223   8.539
12802WAT      O38647   8.594   2.619   7.559
12802WAT     H138648   8.547   2.626   7.647
12802WAT     H238649   8.610   2.523   7.537
12803WAT      O38650   6.973   5.631   4.005
12803WAT     H138651   6.876   5.635   3.982
12803WAT     H238652   7.028   5.664   3.928
12804WAT      O38653   5.926   5.463   6.216
12804WAT     H138654   5.928   5.549   6.267
12804WAT     H238655   5.925   5.482   6.118
12805WAT      O38656   2.257   0.910   7.004
12805WAT     H138657   2.163   0.943   7.005
12805WAT     H238658   2.319   0.985   6.981
12806WAT      O38659   8.119   7.607   6.307
12806WAT     H138660   8.076   7.525   6.344
12806WAT     H238661   8.175   7.583   6.228
12807WAT      O38662   5.899   4.318   3.100
12807WAT     H138663   5.880   4.346   3.006
12807WAT     H238664   5.962   4.384   3.142
12808WAT      O38665   9.851   5.997   7.743
12808WAT     H138666   9.753   5.988   7.730
12808WAT     H238667   9.899   5.973   7.659
12809WAT      O38668   8.647   6.338   3.820
12809WAT     H138669   8.742   6.306   3.822
12809WAT     H238670   8.587   6.266   3.856
12810WAT      O38671   0.502   3.542   6.585
12810WAT     H138672   0.458   3.598   6.515
12810WAT     H238673   0.433   3.491   6.636
12811WAT      O38674   2.303   5.457   8.208
12811WAT     H138675   2.376   5.469   8.274
12811WAT     H238676   2.342   5.445   8.117
12812WAT      O38677   5.010   4.740   0.587
12812WAT     H138678   4.950   4.733   0.508
12812WAT     H238679   5.099   4.775   0.558
12813WAT      O38680   3.681   8.236   4.196
12813WAT     H138681   3.620   8.309   4.168
12813WAT     H238682   3.653   8.150   4.151
12814WAT      O38683   3.403   7.966   3.837
12814WAT     H138684   3.433   7.980   3.743
12814WAT     H238685   3.385   7.869   3.852
12815WAT      O38686   8.568   8.968   0.286
12815WAT     H138687   8.569   9.066   0.263
12815WAT     H238688   8.550   8.915   0.203
12816WAT      O38689   3.368   4.465   7.367
12816WAT     H138690   3.335   4.431   7.455
12816WAT     H238691   3.448   4.523   7.382
12817WAT      O38692   9.775   6.685   7.108
12817WAT     H138693   9.772   6.778   7.143
12817WAT     H238694   9.708   6.674   7.035
12818WAT      O38695   7.355   3.437   6.735
12818WAT     H138696   7.363   3.386   6.821
12818WAT     H238697   7.391   3.529   6.748
12819WAT      O38698   4.338   4.973   8.336
12819WAT     H138699   4.344   4.982   8.237
12819WAT     H238700   4.430   4.974   8.376
12820WAT      O38701   9.102   1.041   0.958
12820WAT     H138702   9.028   1.108   0.956
12820WAT     H238703   9.177   1.072   0.899
12821WAT      O38704   6.182   7.124   8.898
12821WAT     H138705   6.143   7.199   8.844
12821WAT     H238706   6.127   7.042   8.886
12822WAT      O38707   9.024   4.049   2.832
12822WAT     H138708   9.049   4.090   2.919
12822WAT     H238709   8.994   3.955   2.846
12823WAT      O38710   4.701   4.282   0.268
12823WAT     H138711   4.609   4.320   0.262
12823WAT     H238712   4.736   4.264   0.176
12824WAT      O38713   0.074   8.701   2.836
12824WAT     H138714   0.021   8.729   2.756
12824WAT     H238715   0.092   8.781   2.893
12825WAT      O38716   3.836   0.184   2.602
12825WAT     H138717   3.806   0.192   2.697
12825WAT     H238718   3.913   0.246   2.586
12826WAT      O38719   0.523   3.270   5.076
12826WAT     H138720   0.620   3.252   5.097
12826WAT     H238721   0.466   3.225   5.144
12827WAT      O38722   8.191   3.571   3.924
12827WAT     H138723   8.107   3.538   3.881
12827WAT     H238724   8.222   3.503   3.991
12828WAT      O38725   6.786   1.080   5.951
12828WAT     H138726   6.716   1.052   6.017
12828WAT     H238727   6.874   1.040   5.977
12829WAT      O38728   8.826   4.182   3.081
12829WAT     H138729   8.924   4.164   3.078
12829WAT     H238730   8.777   4.107   3.035
12830WAT      O38731   8.851   6.508   3.907
12830WAT     H138732   8.914   6.586   3.903
12830WAT     H238733   8.760   6.537   3.876
12831WAT      O38734   3.609   6.771   1.388
12831WAT     H138735   3.621   6.716   1.306
12831WAT     H238736   3.539   6.729   1.447
12832WAT      O38737   3.790   1.965   6.203
12832WAT     H138738   3.830   2.045   6.158
12832WAT     H238739   3.856   1.926   6.267
12833WAT      O38740   2.951   6.687   8.909
12833WAT     H138741   3.006   6.627   8.851
12833WAT     H238742   2.854   6.672   8.889
12834WAT      O38743   8.245   3.144   8.020
12834WAT     H138744   8.260   3.052   8.057
12834WAT     H238745   8.263   3.145   7.922
12835WAT      O38746   6.068   3.682   0.171
12835WAT     H138747   6.123   3.600   0.186
12835WAT     H238748   5.974   3.665   0.199
12836WAT      O38749   6.973   4.024   6.432
12836WAT     H138750   6.949   4.114   6.467
12836WAT     H238751   6.900   3.959   6.454
12837WAT      O38752   3.012   8.050   6.270
12837WAT     H138753   2.980   7.992   6.196
12837WAT     H238754   3.044   7.993   6.346
12838WAT      O38755   5.942   3.957   2.973
12838WAT     H138756   5.979   4.007   3.052
12838WAT     H238757   5.938   4.017   2.894
12839WAT      O38758   1.423   7.953   2.758
12839WAT     H138759   1.514   7.911   2.753
12839WAT     H238760   1.357   7.896   2.710
12840WAT      O38761   8.699   1.688   1.629
12840WAT     H138762   8.709   1.622   1.704
12840WAT     H238763   8.603   1.694   1.602
12841WAT      O38764   0.604   2.922   8.956
12841WAT     H138765   0.576   2.936   8.861
12841WAT     H238766   0.699   2.892   8.958
12842WAT      O38767   2.358   0.874   5.738
12842WAT     H138768   2.398   0.783   5.724
12842WAT     H238769   2.422   0.944   5.706
12843WAT      O38770   7.783   9.115   3.437
12843WAT     H138771   7.715   9.049   3.403
12843WAT     H238772   7.746   9.207   3.428
12844WAT      O38773   6.548   6.230   2.529
12844WAT     H138774   6.609   6.151   2.532
12844WAT     H238775   6.456   6.203   2.560
12845WAT      O38776   9.840   2.945   6.503
12845WAT     H138777   9.784   2.940   6.421
12845WAT     H238778   9.781   2.951   6.583
12846WAT      O38779   8.605   6.913   5.659
12846WAT     H138780   8.515   6.957   5.650
12846WAT     H238781   8.593   6.819   5.691
12847WAT      O38782   6.645   8.746   6.325
12847WAT     H138783   6.556   8.703   6.345
12847WAT     H238784   6.630   8.841   6.300
12848WAT      O38785   3.899   0.252   6.007
12848WAT     H138786   3.974   0.317   6.021
12848WAT     H238787   3.926   0.185   5.938
12849WAT      O38788   8.367   7.210   6.995
12849WAT     H138789   8.335   7.216   7.090
12849WAT     H238790   8.431   7.285   6.977
12850WAT      O38791   5.310   4.338   8.079
12850WAT     H138792   5.273   4.368   7.992
12850WAT     H238793   5.248   4.271   8.121
12851WAT      O38794   6.408   6.761   3.603
12851WAT     H138795   6.427   6.664   3.616
12851WAT     H238796   6.366   6.798   3.686
12852WAT      O38797   2.829   6.951   3.862
12852WAT     H138798   2.783   6.968   3.775
12852WAT     H238799   2.796   7.017   3.930
12853WAT      O38800   8.634   5.240   3.076
12853WAT     H138801   8.725   5.230   3.117
12853WAT     H238802   8.568   5.266   3.146
12854WAT      O38803   1.295   2.245   3.675
12854WAT     H138804   1.328   2.225   3.767
12854WAT     H238805   1.362   2.213   3.608
12855WAT      O38806   9.360   7.014   3.997
12855WAT     H138807   9.377   7.066   3.913
12855WAT     H238808   9.383   7.070   4.076
12856WAT      O38809   4.353   8.278   5.091
12856WAT     H138810   4.437   8.267   5.038
12856WAT     H238811   4.339   8.197   5.148
12857WAT      O38812   4.514   8.539   8.385
12857WAT     H138813   4.456   8.619   8.399
12857WAT     H238814   4.486   8.466   8.448
12858WAT      O38815   8.773   2.389   8.639
12858WAT     H138816   8.803   2.376   8.545
12858WAT     H238817   8.787   2.484   8.666
12859WAT      O38818   7.131   9.558   9.513
12859WAT     H138819   7.199   9.631   9.525
12859WAT     H238820   7.046   9.597   9.480
12860WAT      O38821   9.657   3.175   7.434
12860WAT     H138822   9.658   3.105   7.362
12860WAT     H238823   9.698   3.138   7.517
12861WAT      O38824   5.170   3.679   8.283
12861WAT     H138825   5.177   3.779   8.282
12861WAT     H238826   5.098   3.650   8.220
12862WAT      O38827   5.834   1.517   2.603
12862WAT     H138828   5.836   1.606   2.649
12862WAT     H238829   5.873   1.447   2.662
12863WAT      O38830   8.457   1.635   6.351
12863WAT     H138831   8.415   1.593   6.271
12863WAT     H238832   8.412   1.601   6.434
12864WAT      O38833   5.943   2.731   0.384
12864WAT     H138834   5.895   2.649   0.353
12864WAT     H238835   5.954   2.728   0.483
12865WAT      O38836   2.207   3.115   6.255
12865WAT     H138837   2.292   3.126   6.307
12865WAT     H238838   2.196   3.192   6.192
12866WAT      O38839   4.335   8.055   3.541
12866WAT     H138840   4.407   8.091   3.599
12866WAT     H238841   4.327   8.111   3.458
12867WAT      O38842   1.933   0.850   8.568
12867WAT     H138843   1.864   0.838   8.640
12867WAT     H238844   1.978   0.938   8.580
12868WAT      O38845   1.374   8.386   4.094
12868WAT     H138846   1.434   8.327   4.040
12868WAT     H238847   1.362   8.346   4.185
12869WAT      O38848   6.139   3.054   1.772
12869WAT     H138849   6.074   2.991   1.731
12869WAT     H238850   6.219   3.003   1.805
12870WAT      O38851   5.997   5.082   0.309
12870WAT     H138852   6.030   5.053   0.219
12870WAT     H238853   5.933   5.013   0.344
12871WAT      O38854   2.762   3.185   9.706
12871WAT     H138855   2.782   3.106   9.763
12871WAT     H238856   2.789   3.269   9.754
12872WAT      O38857   8.097   1.136   1.435
12872WAT     H138858   8.187   1.104   1.464
12872WAT     H238859   8.065   1.208   1.497
12873WAT      O38860   5.399   6.386   1.293
12873WAT     H138861   5.486   6.433   1.289
12873WAT     H238862   5.400   6.321   1.370
12874WAT      O38863   1.631   3.286   1.903
12874WAT     H138864   1.582   3.338   1.973
12874WAT     H238865   1.664   3.347   1.832
12875WAT      O38866   8.191   8.083   5.096
12875WAT     H138867   8.227   8.096   5.003
12875WAT     H238868   8.093   8.059   5.091
12876WAT      O38869   7.850   6.620   9.012
12876WAT     H138870   7.788   6.697   9.021
12876WAT     H238871   7.801   6.542   8.972
12877WAT      O38872   9.307   7.743   1.427
12877WAT     H138873   9.388   7.798   1.448
12877WAT     H238874   9.326   7.647   1.447
12878WAT      O38875   0.066   0.435   0.550
12878WAT     H138876   0.164   0.454   0.558
12878WAT     H238877   0.023   0.507   0.495
12879WAT      O38878   0.420   5.763   1.885
12879WAT     H138879   0.508   5.718   1.875
12879WAT     H238880   0.352   5.717   1.828
12880WAT      O38881   3.030   3.123   1.888
12880WAT     H138882   2.950   3.176   1.917
12880WAT     H238883   3.022   3.029   1.921
12881WAT      O38884   1.311   0.459   6.817
12881WAT     H138885   1.364   0.410   6.748
12881WAT     H238886   1.235   0.507   6.773
12882WAT      O38887   6.206   7.276   3.484
12882WAT     H138888   6.116   7.239   3.504
12882WAT     H238889   6.218   7.283   3.385
12883WAT      O38890   1.222   2.850   1.452
12883WAT     H138891   1.131   2.860   1.412
12883WAT     H238892   1.265   2.941   1.458
12884WAT      O38893   0.429   3.577   2.971
12884WAT     H138894   0.405   3.669   2.940
12884WAT     H238895   0.368   3.510   2.929
12885WAT      O38896   2.275   5.895   6.270
12885WAT     H138897   2.314   5.870   6.358
12885WAT     H238898   2.342   5.877   6.198
12886WAT      O38899   0.570   9.536   9.096
12886WAT     H138900   0.658   9.579   9.115
12886WAT     H238901   0.574   9.491   9.007
12887WAT      O38902   8.923   5.400   7.725
12887WAT     H138903   8.902   5.348   7.642
12887WAT     H238904   8.892   5.349   7.805
12888WAT      O38905   2.051   2.467   6.547
12888WAT     H138906   1.976   2.407   6.573
12888WAT     H238907   2.091   2.434   6.461
12889WAT      O38908   7.756   8.098   3.234
12889WAT     H138909   7.855   8.106   3.225
12889WAT     H238910   7.733   8.010   3.275
12890WAT      O38911   6.265   0.241   2.646
12890WAT     H138912   6.258   0.233   2.745
12890WAT     H238913   6.195   0.304   2.613
12891WAT      O38914   7.387   8.175   3.056
12891WAT     H138915   7.453   8.182   2.981
12891WAT     H238916   7.414   8.237   3.130
12892WAT      O38917   2.457   6.020   4.902
12892WAT     H138918   2.426   5.943   4.958
12892WAT     H238919   2.546   5.999   4.862
12893WAT      O38920   0.271   9.690   2.455
12893WAT     H138921   0.335   9.667   2.382
12893WAT     H238922   0.182   9.713   2.415
12894WAT      O38923   0.506   9.260   5.228
12894WAT     H138924   0.538   9.222   5.141
12894WAT     H238925   0.428   9.207   5.261
12895WAT      O38926   0.702   6.314   4.049
12895WAT     H138927   0.618   6.352   4.011
12895WAT     H238928   0.747   6.257   3.980
12896WAT      O38929   0.633   2.479   4.155
12896WAT     H138930   0.658   2.454   4.062
12896WAT     H238931   0.576   2.561   4.153
12897WAT      O38932   7.649   8.887   6.275
12897WAT     H138933   7.584   8.874   6.200
12897WAT     H238934   7.600   8.893   6.362
12898WAT      O38935   8.871   6.463   2.689
12898WAT     H138936   8.911   6.417   2.767
12898WAT     H238937   8.860   6.561   2.710
12899WAT      O38938   5.703   3.308   5.231
12899WAT     H138939   5.712   3.407   5.223
12899WAT     H238940   5.658   3.272   5.149
12900WAT      O38941   0.594   2.488   3.862
12900WAT     H138942   0.671   2.513   3.803
12900WAT     H238943   0.525   2.560   3.858
12901WAT      O38944   3.262   0.743   8.551
12901WAT     H138945   3.336   0.677   8.564
12901WAT     H238946   3.176   0.694   8.534
12902WAT      O38947   1.793   3.552   6.535
12902WAT     H138948   1.887   3.522   6.546
12902WAT     H238949   1.753   3.509   6.454
12903WAT      O38950   4.185   5.253   7.613
12903WAT     H138951   4.223   5.161   7.618
12903WAT     H238952   4.088   5.248   7.588
12904WAT      O38953   1.635   7.769   3.656
12904WAT     H138954   1.611   7.712   3.577
12904WAT     H238955   1.722   7.815   3.639
12905WAT      O38956   8.084   2.230   2.486
12905WAT     H138957   8.044   2.321   2.473
12905WAT     H238958   8.147   2.232   2.563
12906WAT      O38959   5.749   2.221   1.517
12906WAT     H138960   5.718   2.174   1.434
12906WAT     H238961   5.670   2.247   1.572
12907WAT      O38962   3.613   4.021   8.304
12907WAT     H138963   3.654   4.019   8.395
12907WAT     H238964   3.562   3.935   8.290
12908WAT      O38965   0.831   4.985   6.244
12908WAT     H138966   0.783   5.006   6.330
12908WAT     H238967   0.819   5.061   6.180
12909WAT      O38968   1.369   2.577   7.123
12909WAT     H138969   1.270   2.579   7.107
12909WAT     H238970   1.388   2.607   7.217
12910WAT      O38971   3.308   2.024   2.786
12910WAT     H138972   3.359   2.005   2.702
12910WAT     H238973   3.357   1.986   2.864
12911WAT      O38974   7.855   3.269   5.911
12911WAT     H138975   7.903   3.330   5.975
12911WAT     H238976   7.776   3.316   5.872
12912WAT      O38977   2.660   9.664   7.746
12912WAT     H138978   2.649   9.624   7.837
12912WAT     H238979   2.683   9.591   7.681
12913WAT      O38980   3.598   1.790   7.905
12913WAT     H138981   3.648   1.722   7.851
12913WAT     H238982   3.500   1.770   7.900
12914WAT      O38983   1.402   6.343   1.535
12914WAT     H138984   1.357   6.430   1.516
12914WAT     H238985   1.338   6.282   1.582
12915WAT      O38986   7.425   4.240   1.492
12915WAT     H138987   7.392   4.160   1.443
12915WAT     H238988   7.380   4.247   1.580
12916WAT      O38989   6.792   2.355   5.141
12916WAT     H138990   6.788   2.454   5.148
12916WAT     H238991   6.884   2.323   5.164
12917WAT      O38992   7.562   3.979   8.838
12917WAT     H138993   7.640   4.035   8.811
12917WAT     H238994   7.482   4.003   8.782
12918WAT      O38995   8.424   8.960   2.498
12918WAT     H138996   8.362   8.977   2.421
12918WAT     H238997   8.380   8.901   2.565
12919WAT      O38998   1.468   5.325   5.045
12919WAT     H138999   1.401   5.252   5.031
12919WAT     H239000   1.420   5.412   5.056
12920WAT      O39001   0.480   5.762   9.205
12920WAT     H139002   0.399   5.789   9.153
12920WAT     H239003   0.542   5.712   9.144
12921WAT      O39004   7.049   2.932   5.006
12921WAT     H139005   7.081   3.022   4.976
12921WAT     H239006   6.979   2.898   4.944
12922WAT      O39007   7.069   6.761   8.292
12922WAT     H139008   7.162   6.774   8.327
12922WAT     H239009   7.047   6.663   8.293
12923WAT      O39010   6.624   6.873   5.804
12923WAT     H139011   6.549   6.913   5.856
12923WAT     H239012   6.589   6.831   5.720
12924WAT      O39013   1.613   0.671   2.888
12924WAT     H139014   1.584   0.575   2.883
12924WAT     H239015   1.547   0.728   2.840
12925WAT      O39016   3.093   2.404   4.350
12925WAT     H139017   3.186   2.387   4.381
12925WAT     H239018   3.035   2.424   4.428
12926WAT      O39019   0.090   2.723   1.034
12926WAT     H139020   0.085   2.783   0.955
12926WAT     H239021   0.005   2.730   1.087
12927WAT      O39022   8.381   4.821   4.341
12927WAT     H139023   8.399   4.914   4.372
12927WAT     H239024   8.463   4.765   4.353
12928WAT      O39025   1.667   1.605   2.039
12928WAT     H139026   1.725   1.653   1.974
12928WAT     H239027   1.573   1.603   2.005
12929WAT      O39028   9.454   0.392   4.828
12929WAT     H139029   9.354   0.394   4.825
12929WAT     H239030   9.489   0.486   4.837
12930WAT      O39031   4.705   5.646   6.434
12930WAT     H139032   4.625   5.692   6.472
12930WAT     H239033   4.729   5.567   6.491
12931WAT      O39034   2.774   8.215   5.281
12931WAT     H139035   2.722   8.300   5.279
12931WAT     H239036   2.772   8.176   5.374
12932WAT      O39037   9.688   9.414   3.854
12932WAT     H139038   9.677   9.506   3.892
12932WAT     H239039   9.598   9.372   3.843
12933WAT      O39040   2.617   7.037   3.264
12933WAT     H139041   2.550   6.975   3.304
12933WAT     H239042   2.706   7.023   3.309
12934WAT      O39043   8.846   4.665   1.037
12934WAT     H139044   8.812   4.752   1.074
12934WAT     H239045   8.839   4.666   0.938
12935WAT      O39046   7.926   6.082   7.994
12935WAT     H139047   7.918   6.020   7.916
12935WAT     H239048   8.018   6.074   8.034
12936WAT      O39049   3.172   1.956   0.189
12936WAT     H139050   3.119   2.040   0.183
12936WAT     H239051   3.260   1.975   0.233
12937WAT      O39052   2.128   7.405   7.946
12937WAT     H139053   2.215   7.359   7.965
12937WAT     H239054   2.139   7.464   7.866
12938WAT      O39055   5.698   5.743   9.503
12938WAT     H139056   5.779   5.794   9.531
12938WAT     H239057   5.690   5.660   9.559
12939WAT      O39058   4.999   2.922   9.653
12939WAT     H139059   4.943   2.847   9.689
12939WAT     H239060   4.984   2.932   9.555
12940WAT      O39061   3.835   8.463   1.956
12940WAT     H139062   3.835   8.487   2.053
12940WAT     H239063   3.921   8.493   1.914
12941WAT      O39064   4.088   8.887   0.334
12941WAT     H139065   4.089   8.814   0.266
12941WAT     H239066   4.034   8.859   0.413
12942WAT      O39067   7.611   3.252   0.650
12942WAT     H139068   7.604   3.323   0.721
12942WAT     H239069   7.695   3.199   0.665
12943WAT      O39070   5.698   0.073   2.667
12943WAT     H139071   5.727   0.079   2.571
12943WAT     H239072   5.669  -0.020   2.687
12944WAT      O39073   5.171   5.170   3.326
12944WAT     H139074   5.143   5.076   3.310
12944WAT     H239075   5.137   5.200   3.416
12945WAT      O39076   9.813   5.575   2.343
12945WAT     H139077   9.753   5.605   2.269
12945WAT     H239078   9.791   5.626   2.426
12946WAT      O39079   9.776   6.331   1.774
12946WAT     H139080   9.687   6.333   1.728
12946WAT     H239081   9.842   6.285   1.716
12947WAT      O39082   8.615   1.973   8.876
12947WAT     H139083   8.528   2.021   8.890
12947WAT     H239084   8.689   2.040   8.867
12948WAT      O39085   6.675   7.691   6.155
12948WAT     H139086   6.746   7.626   6.182
12948WAT     H239087   6.593   7.676   6.209
12949WAT      O39088   5.553   6.126   8.249
12949WAT     H139089   5.601   6.083   8.326
12949WAT     H239090   5.484   6.189   8.284
12950WAT      O39091   4.968   9.325   4.502
12950WAT     H139092   4.904   9.392   4.538
12950WAT     H239093   5.025   9.289   4.576
12951WAT      O39094   3.947   9.783   7.222
12951WAT     H139095   3.870   9.811   7.279
12951WAT     H239096   3.912   9.737   7.140
12952WAT      O39097   4.847   9.443   7.912
12952WAT     H139098   4.772   9.410   7.854
12952WAT     H239099   4.902   9.510   7.862
12953WAT      O39100   4.057   8.445   6.034
12953WAT     H139101   4.139   8.409   6.077
12953WAT     H239102   3.991   8.371   6.019
12954WAT      O39103   9.851   5.180   6.076
12954WAT     H139104   9.937   5.213   6.114
12954WAT     H239105   9.826   5.236   5.997
12955WAT      O39106   1.016   9.563   6.001
12955WAT     H139107   1.066   9.610   6.075
12955WAT     H239108   1.077   9.496   5.958
12956WAT      O39109   5.183   1.256   0.533
12956WAT     H139110   5.106   1.313   0.506
12956WAT     H239111   5.149   1.169   0.568
12957WAT      O39112   3.645   7.693   4.419
12957WAT     H139113   3.667   7.785   4.386
12957WAT     H239114   3.720   7.631   4.395
12958WAT      O39115   5.826   7.453   3.553
12958WAT     H139116   5.826   7.508   3.636
12958WAT     H239117   5.753   7.485   3.492
12959WAT      O39118   2.996   7.883   6.653
12959WAT     H139119   2.926   7.947   6.686
12959WAT     H239120   3.071   7.879   6.720
12960WAT      O39121   4.233   0.650   2.732
12960WAT     H139122   4.288   0.642   2.815
12960WAT     H239123   4.220   0.746   2.709
12961WAT      O39124   8.261   7.620   2.956
12961WAT     H139125   8.293   7.653   2.867
12961WAT     H239126   8.328   7.556   2.994
12962WAT      O39127   6.418   1.037   5.372
12962WAT     H139128   6.318   1.039   5.376
12962WAT     H239129   6.446   0.963   5.311
12963WAT      O39130   6.719   2.333   5.839
12963WAT     H139131   6.699   2.263   5.907
12963WAT     H239132   6.817   2.351   5.837
12964WAT      O39133   3.407   7.847   4.913
12964WAT     H139134   3.310   7.871   4.923
12964WAT     H239135   3.441   7.809   4.999
12965WAT      O39136   2.226   8.639   5.663
12965WAT     H139137   2.226   8.554   5.715
12965WAT     H239138   2.210   8.618   5.566
12966WAT      O39139   3.188   6.050   0.091
12966WAT     H139140   3.155   6.142   0.070
12966WAT     H239141   3.111   5.987   0.099
12967WAT      O39142   4.601   8.453   3.824
12967WAT     H139143   4.664   8.528   3.803
12967WAT     H239144   4.581   8.452   3.921
12968WAT      O39145   7.823   0.246   6.307
12968WAT     H139146   7.881   0.264   6.227
12968WAT     H239147   7.765   0.167   6.289
12969WAT      O39148   6.176   1.933   6.919
12969WAT     H139149   6.110   1.864   6.888
12969WAT     H239150   6.266   1.891   6.925
12970WAT      O39151   9.354   5.353   4.563
12970WAT     H139152   9.421   5.340   4.490
12970WAT     H239153   9.264   5.369   4.524
12971WAT      O39154   3.260   6.313   6.013
12971WAT     H139155   3.316   6.236   6.046
12971WAT     H239156   3.164   6.296   6.037
12972WAT      O39157   4.114   4.997   5.893
12972WAT     H139158   4.023   4.963   5.916
12972WAT     H239159   4.169   4.921   5.857
12973WAT      O39160   6.043   6.171   9.873
12973WAT     H139161   6.070   6.250   9.818
12973WAT     H239162   6.053   6.194   9.970
12974WAT      O39163   2.327   6.552   8.950
12974WAT     H139164   2.263   6.492   8.997
12974WAT     H239165   2.415   6.505   8.939
12975WAT      O39166   0.005   9.530   6.774
12975WAT     H139167  -0.023   9.594   6.845
12975WAT     H239168   0.102   9.507   6.786
12976WAT      O39169   6.330   4.130   4.904
12976WAT     H139170   6.332   4.041   4.949
12976WAT     H239171   6.272   4.193   4.956
12977WAT      O39172   9.477   0.458   1.631
12977WAT     H139173   9.542   0.399   1.584
12977WAT     H239174   9.393   0.407   1.649
12978WAT      O39175   9.626   3.702   8.417
12978WAT     H139176   9.681   3.775   8.457
12978WAT     H239177   9.546   3.684   8.475
12979WAT      O39178   3.782   1.506   6.847
12979WAT     H139179   3.710   1.572   6.866
12979WAT     H239180   3.819   1.522   6.756
12980WAT      O39181   0.223   1.516   9.043
12980WAT     H139182   0.134   1.561   9.039
12980WAT     H239183   0.280   1.547   8.967
12981WAT      O39184   4.060   9.407   6.895
12981WAT     H139185   4.010   9.385   6.811
12981WAT     H239186   4.083   9.323   6.944
12982WAT      O39187   1.263   4.461   0.559
12982WAT     H139188   1.188   4.407   0.522
12982WAT     H239189   1.289   4.532   0.493
12983WAT      O39190   1.535   4.392   3.123
12983WAT     H139191   1.622   4.346   3.104
12983WAT     H239192   1.513   4.453   3.047
12984WAT      O39193   8.661   3.990   8.760
12984WAT     H139194   8.702   3.953   8.677
12984WAT     H239195   8.591   4.057   8.736
12985WAT      O39196   2.570   1.788   5.144
12985WAT     H139197   2.560   1.810   5.047
12985WAT     H239198   2.487   1.815   5.192
12986WAT      O39199   2.374   2.370   1.896
12986WAT     H139200   2.350   2.352   1.801
12986WAT     H239201   2.447   2.439   1.900
12987WAT      O39202   5.543   5.915   4.576
12987WAT     H139203   5.513   5.861   4.498
12987WAT     H239204   5.486   5.893   4.655
12988WAT      O39205   0.846   3.965   1.794
12988WAT     H139206   0.810   3.873   1.811
12988WAT     H239207   0.859   4.012   1.881
12989WAT      O39208   2.075   0.114   9.750
12989WAT     H139209   2.052   0.032   9.697
12989WAT     H239210   2.074   0.091   9.847
12990WAT      O39211   6.630   3.034   9.667
12990WAT     H139212   6.611   2.961   9.733
12990WAT     H239213   6.551   3.095   9.661
12991WAT      O39214   9.346   2.418   9.620
12991WAT     H139215   9.346   2.320   9.636
12991WAT     H239216   9.412   2.462   9.681
12992WAT      O39217   6.592   1.734   2.145
12992WAT     H139218   6.621   1.758   2.052
12992WAT     H239219   6.493   1.717   2.146
12993WAT      O39220   0.077   0.526   9.113
12993WAT     H139221   0.157   0.522   9.172
12993WAT     H239222   0.063   0.619   9.080
12994WAT      O39223   2.438   9.201   5.805
12994WAT     H139224   2.399   9.110   5.817
12994WAT     H239225   2.369   9.271   5.828
12995WAT      O39226   5.523   8.604   8.956
12995WAT     H139227   5.574   8.611   8.870
12995WAT     H239228   5.586   8.585   9.031
12996WAT      O39229   1.936   5.861   0.802
12996WAT     H139230   1.933   5.898   0.895
12996WAT     H239231   2.021   5.891   0.758
12997WAT      O39232   6.458   4.791   8.215
12997WAT     H139233   6.456   4.719   8.145
12997WAT     H239234   6.421   4.876   8.176
12998WAT      O39235   1.542   6.616   5.444
12998WAT     H139236   1.481   6.538   5.434
12998WAT     H239237   1.493   6.700   5.421
12999WAT      O39238   6.805   1.282   0.004
12999WAT     H139239   6.797   1.296  -0.095
12999WAT     H239240   6.726   1.231   0.037
13000WAT      O39241   1.118   4.307   3.057
13000WAT     H139242   1.079   4.216   3.039
13000WAT     H239243   1.068   4.349   3.133
13001WAT      O39244   9.049   4.460   3.361
13001WAT     H139245   9.083   4.366   3.369
13001WAT     H239246   8.954   4.457   3.329
13002WAT      O39247   1.067   0.605   3.612
13002WAT     H139248   1.105   0.686   3.566
13002WAT     H239249   1.100   0.522   3.566
13003WAT      O39250   5.367   9.440   7.449
13003WAT     H139251   5.275   9.401   7.453
13003WAT     H239252   5.423   9.404   7.523
13004WAT      O39253   6.088   2.680   2.811
13004WAT     H139254   6.063   2.707   2.718
13004WAT     H239255   6.133   2.590   2.808
13005WAT      O39256   3.537   9.127   5.215
13005WAT     H139257   3.487   9.041   5.210
13005WAT     H239258   3.479   9.202   5.181
13006WAT      O39259   3.734   4.147   2.536
13006WAT     H139260   3.749   4.243   2.517
13006WAT     H239261   3.713   4.098   2.451
13007WAT      O39262   5.213   1.493   3.611
13007WAT     H139263   5.260   1.464   3.528
13007WAT     H239264   5.268   1.562   3.658
13008WAT      O39265   4.935   7.052   9.184
13008WAT     H139266   5.004   6.997   9.137
13008WAT     H239267   4.869   7.086   9.118
13009WAT      O39268   0.982   7.158   2.630
13009WAT     H139269   0.992   7.235   2.568
13009WAT     H239270   1.028   7.179   2.716
13010WAT      O39271   7.172   0.694   0.037
13010WAT     H139272   7.117   0.699  -0.047
13010WAT     H239273   7.160   0.604   0.079
13011WAT      O39274   9.002   6.199   4.368
13011WAT     H139275   8.998   6.267   4.295
13011WAT     H239276   9.040   6.114   4.332
13012WAT      O39277   2.692   8.575   1.911
13012WAT     H139278   2.745   8.658   1.930
13012WAT     H239279   2.731   8.528   1.832
13013WAT      O39280   9.831   5.347   5.546
13013WAT     H139281   9.854   5.366   5.641
13013WAT     H239282   9.914   5.330   5.494
13014WAT      O39283   4.022   2.216   3.625
13014WAT     H139284   3.972   2.235   3.710
13014WAT     H239285   3.967   2.247   3.547
13015WAT      O39286   3.510   7.578   1.530
13015WAT     H139287   3.520   7.644   1.605
13015WAT     H239288   3.512   7.627   1.442
13016WAT      O39289   7.737   2.329   7.861
13016WAT     H139290   7.750   2.391   7.938
13016WAT     H239291   7.655   2.274   7.877
13017WAT      O39292   8.291   3.106   7.456
13017WAT     H139293   8.373   3.088   7.512
13017WAT     H239294   8.212   3.119   7.516
13018WAT      O39295   3.638   9.023   8.859
13018WAT     H139296   3.637   9.058   8.953
13018WAT     H239297   3.732   9.003   8.833
13019WAT      O39298   5.983   2.909   4.956
13019WAT     H139299   6.008   2.813   4.960
13019WAT     H239300   5.974   2.938   4.861
13020WAT      O39301   3.473   5.573   0.570
13020WAT     H139302   3.390   5.627   0.560
13020WAT     H239303   3.531   5.613   0.640
13021WAT      O39304   1.500   2.630   0.795
13021WAT     H139305   1.453   2.634   0.882
13021WAT     H239306   1.554   2.713   0.782
13022WAT      O39307   0.968   6.396   4.885
13022WAT     H139308   1.004   6.328   4.822
13022WAT     H239309   0.869   6.406   4.871
13023WAT      O39310   9.810   7.622   1.949
13023WAT     H139311   9.740   7.551   1.948
13023WAT     H239312   9.839   7.642   1.855
13024WAT      O39313   1.251   8.489   1.995
13024WAT     H139314   1.343   8.501   2.032
13024WAT     H239315   1.229   8.567   1.936
13025WAT      O39316   9.364   0.946   1.913
13025WAT     H139317   9.449   0.949   1.860
13025WAT     H239318   9.383   0.906   2.003
13026WAT      O39319   7.988   5.885   7.784
13026WAT     H139320   8.004   5.787   7.786
13026WAT     H239321   8.065   5.930   7.738
13027WAT      O39322   2.018   2.266   0.728
13027WAT     H139323   1.950   2.295   0.661
13027WAT     H239324   2.096   2.226   0.681
13028WAT      O39325   2.955   6.052   6.184
13028WAT     H139326   2.959   5.972   6.124
13028WAT     H239327   2.887   6.037   6.255
13029WAT      O39328   9.758   0.370   6.507
13029WAT     H139329   9.855   0.351   6.522
13029WAT     H239330   9.735   0.459   6.546
13030WAT      O39331   3.112   7.283   3.478
13030WAT     H139332   3.032   7.284   3.537
13030WAT     H239333   3.151   7.191   3.476
13031WAT      O39334   2.303   7.394   8.396
13031WAT     H139335   2.220   7.449   8.407
13031WAT     H239336   2.368   7.419   8.467
13032WAT      O39337   4.744   0.590   5.422
13032WAT     H139338   4.838   0.617   5.402
13032WAT     H239339   4.703   0.548   5.341
13033WAT      O39340   1.782   9.023   7.409
13033WAT     H139341   1.859   9.082   7.380
13033WAT     H239342   1.808   8.972   7.491
13034WAT      O39343   9.573   8.190   2.657
13034WAT     H139344   9.636   8.188   2.579
13034WAT     H239345   9.536   8.282   2.668
13035WAT      O39346   8.959   1.612   0.580
13035WAT     H139347   8.995   1.697   0.617
13035WAT     H239348   8.906   1.565   0.650
13036WAT      O39349   6.730   5.277   3.824
13036WAT     H139350   6.738   5.208   3.896
13036WAT     H239351   6.806   5.267   3.759
13037WAT      O39352   8.550   6.793   0.294
13037WAT     H139353   8.538   6.699   0.325
13037WAT     H239354   8.645   6.820   0.309
13038WAT      O39355   6.058   9.717   9.885
13038WAT     H139356   6.109   9.703   9.969
13038WAT     H239357   5.977   9.658   9.885
13039WAT      O39358   9.807   4.800   9.739
13039WAT     H139359   9.853   4.882   9.705
13039WAT     H239360   9.714   4.822   9.766
13040WAT      O39361   1.545   4.979   2.986
13040WAT     H139362   1.481   4.905   3.003
13040WAT     H239363   1.587   4.967   2.896
13041WAT      O39364   4.686   8.826   0.423
13041WAT     H139365   4.628   8.855   0.498
13041WAT     H239366   4.707   8.904   0.364
13042WAT      O39367   4.068   9.099   0.639
13042WAT     H139368   4.074   9.183   0.692
13042WAT     H239369   3.996   9.040   0.678
13043WAT      O39370   0.657   6.400   7.247
13043WAT     H139371   0.691   6.493   7.237
13043WAT     H239372   0.585   6.382   7.180
13044WAT      O39373   7.455   2.454   3.699
13044WAT     H139374   7.423   2.420   3.611
13044WAT     H239375   7.474   2.376   3.759
13045WAT      O39376   4.650   1.386   9.387
13045WAT     H139377   4.629   1.334   9.470
13045WAT     H239378   4.633   1.328   9.307
13046WAT      O39379   6.906   7.983   7.567
13046WAT     H139380   6.900   8.082   7.575
13046WAT     H239381   6.941   7.959   7.477
13047WAT      O39382   9.473   6.863   9.537
13047WAT     H139383   9.444   6.845   9.631
13047WAT     H239384   9.522   6.784   9.502
13048WAT      O39385   1.512   1.907   3.235
13048WAT     H139386   1.599   1.915   3.283
13048WAT     H239387   1.521   1.943   3.142
13049WAT      O39388   5.590   2.905   9.369
13049WAT     H139389   5.593   2.847   9.288
13049WAT     H239390   5.683   2.935   9.392
13050WAT      O39391   6.881   6.540   9.561
13050WAT     H139392   6.907   6.602   9.487
13050WAT     H239393   6.916   6.448   9.542
13051WAT      O39394   0.860   1.272   8.484
13051WAT     H139395   0.775   1.299   8.438
13051WAT     H239396   0.886   1.180   8.456
13052WAT      O39397   5.957   0.463   1.343
13052WAT     H139398   5.880   0.423   1.393
13052WAT     H239399   5.951   0.437   1.247
13053WAT      O39400   4.173   4.936   7.045
13053WAT     H139401   4.127   5.025   7.036
13053WAT     H239402   4.227   4.918   6.963
13054WAT      O39403   9.500   3.038   3.089
13054WAT     H139404   9.480   3.050   3.187
13054WAT     H239405   9.521   2.942   3.071
13055WAT      O39406   7.842   8.319   7.475
13055WAT     H139407   7.769   8.251   7.467
13055WAT     H239408   7.920   8.278   7.522
13056WAT      O39409   2.646   6.712   1.454
13056WAT     H139410   2.711   6.724   1.529
13056WAT     H239411   2.665   6.627   1.406
13057WAT      O39412   5.140   5.818   2.973
13057WAT     H139413   5.150   5.793   2.876
13057WAT     H239414   5.106   5.739   3.024
13058WAT      O39415   9.673   4.328   9.153
13058WAT     H139416   9.738   4.324   9.229
13058WAT     H239417   9.629   4.238   9.143
13059WAT      O39418   8.542   3.746   3.964
13059WAT     H139419   8.495   3.729   3.877
13059WAT     H239420   8.641   3.749   3.948
13060WAT      O39421   8.326   0.521   8.930
13060WAT     H139422   8.230   0.548   8.936
13060WAT     H239423   8.377   0.591   8.878
13061WAT      O39424   0.477   7.320   1.658
13061WAT     H139425   0.431   7.288   1.575
13061WAT     H239426   0.413   7.322   1.734
13062WAT      O39427   7.091   8.324   3.796
13062WAT     H139428   7.038   8.289   3.874
13062WAT     H239429   7.104   8.252   3.729
13063WAT      O39430   4.615   6.087   4.187
13063WAT     H139431   4.597   6.184   4.201
13063WAT     H239432   4.543   6.033   4.230
13064WAT      O39433   3.012   1.317   6.705
13064WAT     H139434   3.105   1.348   6.687
13064WAT     H239435   2.947   1.371   6.651
13065WAT      O39436   6.739   3.386   6.932
13065WAT     H139437   6.803   3.313   6.906
13065WAT     H239438   6.707   3.433   6.849
13066WAT      O39439   9.846   2.482   2.947
13066WAT     H139440   9.921   2.523   2.999
13066WAT     H239441   9.777   2.446   3.010
13067WAT      O39442   3.053   7.724   0.068
13067WAT     H139443   3.056   7.780  -0.015
13067WAT     H239444   3.137   7.740   0.121
13068WAT      O39445   1.388   8.096   1.027
13068WAT     H139446   1.453   8.150   1.081
13068WAT     H239447   1.409   8.106   0.929
13069WAT      O39448   9.030   2.610   4.813
13069WAT     H139449   9.062   2.565   4.897
13069WAT     H239450   9.066   2.703   4.809
13070WAT      O39451   0.883   9.103   2.102
13070WAT     H139452   0.888   9.028   2.169
13070WAT     H239453   0.953   9.171   2.124
13071WAT      O39454   2.120   5.174   7.184
13071WAT     H139455   2.094   5.095   7.129
13071WAT     H239456   2.160   5.245   7.126
13072WAT      O39457   9.411   2.405   7.245
13072WAT     H139458   9.395   2.395   7.343
13072WAT     H239459   9.506   2.383   7.223
13073WAT      O39460   4.388   7.802   2.603
13073WAT     H139461   4.297   7.761   2.614
13073WAT     H239462   4.447   7.740   2.551
13074WAT      O39463   1.634   3.785   1.413
13074WAT     H139464   1.658   3.718   1.343
13074WAT     H239465   1.611   3.872   1.369
13075WAT      O39466   6.357   6.010   9.197
13075WAT     H139467   6.260   6.033   9.197
13075WAT     H239468   6.371   5.923   9.150
13076WAT      O39469   0.142   7.730   3.735
13076WAT     H139470   0.187   7.795   3.796
13076WAT     H239471   0.095   7.781   3.662
13077WAT      O39472   2.220   0.940   2.742
13077WAT     H139473   2.130   0.903   2.718
13077WAT     H239474   2.282   0.930   2.664
13078WAT      O39475   6.445   1.959   6.656
13078WAT     H139476   6.349   1.976   6.634
13078WAT     H239477   6.476   2.026   6.724
13079WAT      O39478   7.906   5.381   1.446
13079WAT     H139479   7.898   5.322   1.526
13079WAT     H239480   7.820   5.381   1.396
13080WAT      O39481   8.199   6.391   4.322
13080WAT     H139482   8.259   6.471   4.319
13080WAT     H239483   8.225   6.328   4.249
13081WAT      O39484   4.634   8.586   6.465
13081WAT     H139485   4.585   8.646   6.401
13081WAT     H239486   4.576   8.509   6.489
13082WAT      O39487   1.425   1.198   7.675
13082WAT     H139488   1.523   1.177   7.679
13082WAT     H239489   1.398   1.211   7.580
13083WAT      O39490   3.607   0.612   3.700
13083WAT     H139491   3.656   0.527   3.717
13083WAT     H239492   3.546   0.601   3.622
13084WAT      O39493   6.425   4.664   7.972
13084WAT     H139494   6.332   4.683   7.938
13084WAT     H239495   6.454   4.573   7.941
13085WAT      O39496   2.571   2.183   8.260
13085WAT     H139497   2.661   2.209   8.294
13085WAT     H239498   2.572   2.087   8.231
13086WAT      O39499   4.995   3.726   2.334
13086WAT     H139500   4.977   3.650   2.397
13086WAT     H239501   5.094   3.735   2.320
13087WAT      O39502   3.333   6.135   1.418
13087WAT     H139503   3.329   6.235   1.420
13087WAT     H239504   3.407   6.105   1.359
13088WAT      O39505   9.677   7.932   9.413
13088WAT     H139506   9.739   7.998   9.371
13088WAT     H239507   9.731   7.858   9.454
13089WAT      O39508   8.731   2.414   5.748
13089WAT     H139509   8.643   2.386   5.787
13089WAT     H239510   8.775   2.336   5.705
13090WAT      O39511   4.216   1.563   3.400
13090WAT     H139512   4.264   1.530   3.319
13090WAT     H239513   4.279   1.613   3.459
13091WAT      O39514   9.100   4.503   7.914
13091WAT     H139515   9.131   4.557   7.992
13091WAT     H239516   9.051   4.423   7.947
13092WAT      O39517   6.935   2.435   8.969
13092WAT     H139518   6.916   2.429   9.067
13092WAT     H239519   6.967   2.528   8.946
13093WAT      O39520   9.675   1.922   7.477
13093WAT     H139521   9.579   1.896   7.490
13093WAT     H239522   9.734   1.858   7.525
13094WAT      O39523   1.777   1.308   0.627
13094WAT     H139524   1.773   1.247   0.707
13094WAT     H239525   1.778   1.403   0.658
13095WAT      O39526   5.150   0.470   7.236
13095WAT     H139527   5.174   0.546   7.176
13095WAT     H239528   5.065   0.427   7.203
13096WAT      O39529   8.538   6.418   4.838
13096WAT     H139530   8.495   6.434   4.749
13096WAT     H239531   8.494   6.476   4.907
13097WAT      O39532   6.954   8.509   9.342
13097WAT     H139533   6.973   8.595   9.388
13097WAT     H239534   7.022   8.441   9.369
13098WAT      O39535   2.628   2.888   2.391
13098WAT     H139536   2.640   2.863   2.487
13098WAT     H239537   2.602   2.808   2.338
13099WAT      O39538   4.297   1.442   9.679
13099WAT     H139539   4.218   1.386   9.652
13099WAT     H239540   4.281   1.478   9.771
13100WAT      O39541   9.147   9.821   7.768
13100WAT     H139542   9.138   9.763   7.687
13100WAT     H239543   9.153   9.764   7.850
13101WAT      O39544   7.433   0.808   8.150
13101WAT     H139545   7.473   0.890   8.191
13101WAT     H239546   7.380   0.833   8.069
13102WAT      O39547   0.752   5.360   9.223
13102WAT     H139548   0.732   5.350   9.126
13102WAT     H239549   0.707   5.442   9.258
13103WAT      O39550   4.458   6.756   4.512
13103WAT     H139551   4.436   6.731   4.607
13103WAT     H239552   4.379   6.737   4.454
13104WAT      O39553   1.769   5.066   7.074
13104WAT     H139554   1.731   4.989   7.127
13104WAT     H239555   1.868   5.059   7.071
13105WAT      O39556   8.270   5.859   8.801
13105WAT     H139557   8.242   5.896   8.712
13105WAT     H239558   8.369   5.868   8.811
13106WAT      O39559   7.914   0.929   9.759
13106WAT     H139560   7.816   0.935   9.779
13106WAT     H239561   7.953   0.852   9.811
13107WAT      O39562   0.292   0.486   2.700
13107WAT     H139563   0.278   0.472   2.798
13107WAT     H239564   0.204   0.476   2.652
13108WAT      O39565   9.620   4.450   8.585
13108WAT     H139566   9.593   4.508   8.662
13108WAT     H239567   9.550   4.380   8.569
13109WAT      O39568   9.808   8.133   2.854
13109WAT     H139569   9.724   8.140   2.799
13109WAT     H239570   9.846   8.224   2.868
13110WAT      O39571   8.903   3.067   0.775
13110WAT     H139572   8.843   3.029   0.705
13110WAT     H239573   8.964   3.134   0.733
13111WAT      O39574   2.204   1.866   6.176
13111WAT     H139575   2.183   1.769   6.163
13111WAT     H239576   2.223   1.908   6.087
13112WAT      O39577   4.625   7.782   1.257
13112WAT     H139578   4.564   7.804   1.333
13112WAT     H239579   4.712   7.749   1.293
13113WAT      O39580   3.732   5.921   5.554
13113WAT     H139581   3.829   5.902   5.574
13113WAT     H239582   3.695   5.979   5.626
13114WAT      O39583   5.605   3.442   1.612
13114WAT     H139584   5.654   3.511   1.665
13114WAT     H239585   5.580   3.481   1.523
13115WAT      O39586   2.083   1.783   7.701
13115WAT     H139587   2.016   1.851   7.670
13115WAT     H239588   2.127   1.741   7.622
13116WAT      O39589   4.216   4.675   0.669
13116WAT     H139590   4.176   4.747   0.727
13116WAT     H239591   4.145   4.634   0.612
13117WAT      O39592   3.862   1.524   0.744
13117WAT     H139593   3.922   1.536   0.823
13117WAT     H239594   3.768   1.513   0.776
13118WAT      O39595   2.792   3.655   3.234
13118WAT     H139596   2.724   3.616   3.173
13118WAT     H239597   2.874   3.679   3.182
13119WAT      O39598   4.800   6.869   4.807
13119WAT     H139599   4.744   6.908   4.734
13119WAT     H239600   4.791   6.925   4.889
13120WAT      O39601   9.729   7.657   1.468
13120WAT     H139602   9.795   7.606   1.413
13120WAT     H239603   9.660   7.698   1.408
13121WAT      O39604   8.446   0.281   7.412
13121WAT     H139605   8.465   0.225   7.493
13121WAT     H239606   8.412   0.223   7.339
13122WAT      O39607   4.259   3.011   5.816
13122WAT     H139608   4.238   2.918   5.846
13122WAT     H239609   4.329   3.007   5.744
13123WAT      O39610   5.942   0.241   7.472
13123WAT     H139611   6.042   0.236   7.473
13123WAT     H239612   5.907   0.196   7.390
13124WAT      O39613   7.706   5.477   0.789
13124WAT     H139614   7.786   5.428   0.824
13124WAT     H239615   7.634   5.412   0.767
13125WAT      O39616   8.367   1.205   7.129
13125WAT     H139617   8.315   1.200   7.044
13125WAT     H239618   8.325   1.272   7.190
13126WAT      O39619   5.120   4.125   7.198
13126WAT     H139620   5.092   4.058   7.268
13126WAT     H239621   5.100   4.217   7.231
13127WAT      O39622   1.525   6.822   5.099
13127WAT     H139623   1.621   6.799   5.089
13127WAT     H239624   1.469   6.739   5.094
13128WAT      O39625   9.680   8.282   3.214
13128WAT     H139626   9.721   8.204   3.261
13128WAT     H239627   9.751   8.336   3.169
13129WAT      O39628   3.810   9.290   2.643
13129WAT     H139629   3.721   9.255   2.672
13129WAT     H239630   3.797   9.360   2.573
13130WAT      O39631   2.282   2.760   1.803
13130WAT     H139632   2.308   2.850   1.769
13130WAT     H239633   2.307   2.753   1.900
13131WAT      O39634   8.686   3.200   1.599
13131WAT     H139635   8.642   3.290   1.595
13131WAT     H239636   8.721   3.176   1.509
13132WAT      O39637   5.361   4.057   6.117
13132WAT     H139638   5.413   4.001   6.053
13132WAT     H239639   5.264   4.032   6.111
13133WAT      O39640   0.538   4.880   2.216
13133WAT     H139641   0.515   4.960   2.272
13133WAT     H239642   0.460   4.856   2.158
13134WAT      O39643   9.543   6.348   7.119
13134WAT     H139644   9.484   6.404   7.176
13134WAT     H239645   9.518   6.251   7.131
13135WAT      O39646   7.165   4.237   3.577
13135WAT     H139647   7.142   4.330   3.607
13135WAT     H239648   7.248   4.206   3.623
13136WAT      O39649   3.211   6.040   6.291
13136WAT     H139650   3.117   6.040   6.255
13136WAT     H239651   3.223   6.119   6.351
13137WAT      O39652   5.051   6.062   2.869
13137WAT     H139653   4.999   6.115   2.936
13137WAT     H239654   5.066   5.970   2.904
13138WAT      O39655   6.391   2.225   1.731
13138WAT     H139656   6.460   2.235   1.659
13138WAT     H239657   6.358   2.316   1.756
13139WAT      O39658   6.515   8.170   8.656
13139WAT     H139659   6.604   8.202   8.689
13139WAT     H239660   6.489   8.089   8.708
13140WAT      O39661   1.936   9.298   9.749
13140WAT     H139662   1.909   9.202   9.751
13140WAT     H239663   2.022   9.308   9.700
13141WAT      O39664   4.290   2.908   6.404
13141WAT     H139665   4.211   2.871   6.453
13141WAT     H239666   4.364   2.841   6.405
13142WAT      O39667   9.844   4.889   1.291
13142WAT     H139668   9.854   4.826   1.367
13142WAT     H239669   9.923   4.950   1.287
13143WAT      O39670   3.256   9.477   0.695
13143WAT     H139671   3.251   9.464   0.794
13143WAT     H239672   3.176   9.529   0.664
13144WAT      O39673   4.302   7.344   7.704
13144WAT     H139674   4.373   7.380   7.764
13144WAT     H239675   4.334   7.347   7.609
13145WAT      O39676   2.078   4.051   9.456
13145WAT     H139677   2.147   4.094   9.515
13145WAT     H239678   2.056   3.960   9.491
13146WAT      O39679   5.508   2.891   4.555
13146WAT     H139680   5.519   2.881   4.456
13146WAT     H239681   5.598   2.887   4.599
13147WAT      O39682   2.355   3.603   0.311
13147WAT     H139683   2.403   3.691   0.310
13147WAT     H239684   2.300   3.594   0.228
13148WAT      O39685   5.739   5.551   8.989
13148WAT     H139686   5.685   5.523   8.910
13148WAT     H239687   5.678   5.575   9.065
13149WAT      O39688   1.584   6.446   3.841
13149WAT     H139689   1.647   6.369   3.848
13149WAT     H239690   1.505   6.420   3.784
13150WAT      O39691   0.166   1.620   1.656
13150WAT     H139692   0.183   1.550   1.726
13150WAT     H239693   0.135   1.576   1.572
13151WAT      O39694   6.187   7.452   6.002
13151WAT     H139695   6.275   7.415   6.031
13151WAT     H239696   6.190   7.552   6.009
13152WAT      O39697   5.581   6.898   8.020
13152WAT     H139698   5.581   6.817   7.961
13152WAT     H239699   5.561   6.871   8.114
13153WAT      O39700   3.434   5.497   5.448
13153WAT     H139701   3.487   5.545   5.518
13153WAT     H239702   3.497   5.457   5.381
13154WAT      O39703   4.700   2.482   5.895
13154WAT     H139704   4.611   2.466   5.938
13154WAT     H239705   4.731   2.574   5.917
13155WAT      O39706   5.579   4.754   0.052
13155WAT     H139707   5.558   4.731   0.147
13155WAT     H239708   5.566   4.674  -0.006
13156WAT      O39709   0.370   9.119   9.395
13156WAT     H139710   0.431   9.043   9.374
13156WAT     H239711   0.390   9.154   9.486
13157WAT      O39712   8.791   7.697   0.482
13157WAT     H139713   8.716   7.669   0.422
13157WAT     H239714   8.857   7.750   0.429
13158WAT      O39715   6.445   4.036   9.441
13158WAT     H139716   6.460   3.999   9.533
13158WAT     H239717   6.465   3.965   9.373
13159WAT      O39718   1.147   5.948   2.046
13159WAT     H139719   1.238   5.987   2.040
13159WAT     H239720   1.079   6.016   2.018
13160WAT      O39721   8.499   2.827   0.626
13160WAT     H139722   8.569   2.807   0.694
13160WAT     H239723   8.420   2.768   0.641
13161WAT      O39724   5.790   8.672   3.962
13161WAT     H139725   5.699   8.705   3.988
13161WAT     H239726   5.827   8.728   3.889
13162WAT      O39727   7.760   8.639   1.722
13162WAT     H139728   7.849   8.681   1.740
13162WAT     H239729   7.692   8.711   1.704
13163WAT      O39730   5.564   6.048   3.733
13163WAT     H139731   5.619   5.965   3.724
13163WAT     H239732   5.478   6.037   3.682
13164WAT      O39733   6.656   7.615   5.772
13164WAT     H139734   6.628   7.679   5.844
13164WAT     H239735   6.582   7.551   5.753
13165WAT      O39736   8.068   6.002   1.034
13165WAT     H139737   8.091   6.074   0.969
13165WAT     H239738   7.997   5.943   0.994
13166WAT      O39739   4.759   3.208   6.990
13166WAT     H139740   4.731   3.187   6.896
13166WAT     H239741   4.858   3.214   6.995
13167WAT      O39742   9.545   7.772   0.820
13167WAT     H139743   9.559   7.815   0.731
13167WAT     H239744   9.466   7.813   0.865
13168WAT      O39745   4.518   2.316   1.930
13168WAT     H139746   4.575   2.383   1.979
13168WAT     H239747   4.566   2.229   1.925
13169WAT      O39748   4.966   3.799   9.138
13169WAT     H139749   4.960   3.881   9.194
13169WAT     H239750   5.062   3.783   9.113
13170WAT      O39751   0.467   8.767   2.061
13170WAT     H139752   0.522   8.755   1.978
13170WAT     H239753   0.527   8.764   2.141
13171WAT      O39754   6.611   8.057   6.353
13171WAT     H139755   6.554   8.135   6.379
13171WAT     H239756   6.613   7.991   6.428
13172WAT      O39757   6.402   0.618   8.194
13172WAT     H139758   6.426   0.595   8.289
13172WAT     H239759   6.337   0.551   8.159
13173WAT      O39760   5.726   7.662   6.809
13173WAT     H139761   5.768   7.723   6.876
13173WAT     H239762   5.797   7.618   6.754
13174WAT      O39763   3.323   1.602   5.142
13174WAT     H139764   3.369   1.656   5.072
13174WAT     H239765   3.247   1.655   5.181
13175WAT      O39766   8.180   4.523   8.411
13175WAT     H139767   8.129   4.448   8.370
13175WAT     H239768   8.163   4.525   8.509
13176WAT      O39769   4.202   1.921   6.150
13176WAT     H139770   4.245   1.830   6.144
13176WAT     H239771   4.131   1.919   6.220
13177WAT      O39772   9.798   8.306   8.807
13177WAT     H139773   9.848   8.322   8.892
13177WAT     H239774   9.742   8.223   8.816
13178WAT      O39775   6.993   5.505   1.256
13178WAT     H139776   7.060   5.524   1.328
13178WAT     H239777   6.983   5.586   1.198
13179WAT      O39778   4.909   4.620   8.171
13179WAT     H139779   4.997   4.660   8.144
13179WAT     H239780   4.890   4.541   8.115
13180WAT      O39781   6.395   3.966   0.417
13180WAT     H139782   6.298   3.965   0.393
13180WAT     H239783   6.449   3.946   0.335
13181WAT      O39784   2.716   2.513   0.774
13181WAT     H139785   2.649   2.565   0.721
13181WAT     H239786   2.750   2.437   0.719
13182WAT      O39787   2.959   0.504   0.778
13182WAT     H139788   3.023   0.428   0.788
13182WAT     H239789   2.965   0.563   0.859
13183WAT      O39790   1.897   7.664   6.512
13183WAT     H139791   1.835   7.686   6.437
13183WAT     H239792   1.963   7.738   6.524
13184WAT      O39793   1.142   5.843   5.560
13184WAT     H139794   1.052   5.817   5.524
13184WAT     H239795   1.131   5.918   5.625
13185WAT      O39796   0.601   8.983   6.332
13185WAT     H139797   0.559   8.971   6.242
13185WAT     H239798   0.584   8.902   6.388
13186WAT      O39799   8.662   8.706   5.625
13186WAT     H139800   8.710   8.651   5.693
13186WAT     H239801   8.727   8.766   5.578
13187WAT      O39802   5.764   0.534   7.300
13187WAT     H139803   5.780   0.504   7.394
13187WAT     H239804   5.819   0.479   7.237
13188WAT      O39805   9.790   9.394   0.191
13188WAT     H139806   9.865   9.459   0.182
13188WAT     H239807   9.820   9.316   0.246
13189WAT      O39808   8.841   1.432   3.009
13189WAT     H139809   8.767   1.476   2.958
13189WAT     H239810   8.833   1.333   3.001
13190WAT      O39811   3.893   2.483   9.887
13190WAT     H139812   3.917   2.496   9.983
13190WAT     H239813   3.797   2.458   9.879
13191WAT      O39814   2.359   4.518   2.387
13191WAT     H139815   2.279   4.490   2.440
13191WAT     H239816   2.442   4.499   2.439
13192WAT      O39817   4.915   2.200   0.439
13192WAT     H139818   4.938   2.294   0.415
13192WAT     H239819   4.889   2.195   0.536
13193WAT      O39820   9.056   7.722   8.824
13193WAT     H139821   9.034   7.786   8.751
13193WAT     H239822   9.039   7.766   8.913
13194WAT      O39823   6.636   2.499   0.998
13194WAT     H139824   6.570   2.560   1.042
13194WAT     H239825   6.587   2.436   0.938
13195WAT      O39826   7.151   4.060   6.214
13195WAT     H139827   7.100   4.027   6.293
13195WAT     H239828   7.238   4.100   6.244
13196WAT      O39829   8.903   8.811   5.886
13196WAT     H139830   8.937   8.888   5.833
13196WAT     H239831   8.887   8.733   5.826
13197WAT      O39832   3.655   7.052   6.880
13197WAT     H139833   3.558   7.044   6.860
13197WAT     H239834   3.697   6.961   6.876
13198WAT      O39835   7.023   7.864   0.547
13198WAT     H139836   6.988   7.900   0.633
13198WAT     H239837   6.972   7.905   0.471
13199WAT      O39838   7.851   1.485   5.660
13199WAT     H139839   7.754   1.474   5.683
13199WAT     H239840   7.884   1.402   5.615
13200WAT      O39841   3.850   8.748   5.488
13200WAT     H139842   3.843   8.746   5.588
13200WAT     H239843   3.823   8.838   5.454
13201WAT      O39844   6.744   7.732   3.741
13201WAT     H139845   6.705   7.814   3.700
13201WAT     H239846   6.672   7.681   3.789
13202WAT      O39847   8.325   2.246   6.862
13202WAT     H139848   8.381   2.246   6.779
13202WAT     H239849   8.384   2.239   6.942
13203WAT      O39850   2.690   7.626   6.076
13203WAT     H139851   2.666   7.620   5.980
13203WAT     H239852   2.675   7.537   6.120
13204WAT      O39853   8.351   1.103   3.667
13204WAT     H139854   8.399   1.137   3.748
13204WAT     H239855   8.400   1.131   3.585
13205WAT      O39856   5.709   1.220   3.344
13205WAT     H139857   5.625   1.236   3.395
13205WAT     H239858   5.788   1.233   3.404
13206WAT      O39859   9.530   0.173   0.766
13206WAT     H139860   9.492   0.106   0.702
13206WAT     H239861   9.616   0.209   0.730
13207WAT      O39862   6.415   5.330   0.210
13207WAT     H139863   6.466   5.395   0.266
13207WAT     H239864   6.381   5.256   0.269
13208WAT      O39865   5.570   4.734   2.432
13208WAT     H139866   5.578   4.656   2.369
13208WAT     H239867   5.531   4.812   2.383
13209WAT      O39868   3.479   6.477   7.981
13209WAT     H139869   3.456   6.380   7.975
13209WAT     H239870   3.526   6.506   7.897
13210WAT      O39871   2.357   7.910   7.993
13210WAT     H139872   2.398   7.827   8.033
13210WAT     H239873   2.316   7.964   8.066
13211WAT      O39874   2.255   5.998   5.714
13211WAT     H139875   2.205   6.015   5.629
13211WAT     H239876   2.282   6.085   5.755
13212WAT      O39877   6.301   7.204   7.340
13212WAT     H139878   6.279   7.288   7.390
13212WAT     H239879   6.218   7.169   7.296
13213WAT      O39880   8.938   3.252   0.447
13213WAT     H139881   9.011   3.217   0.505
13213WAT     H239882   8.850   3.224   0.484
13214WAT      O39883   0.257   2.562   8.397
13214WAT     H139884   0.243   2.633   8.328
13214WAT     H239885   0.355   2.549   8.412
13215WAT      O39886   5.777   9.605   9.378
13215WAT     H139887   5.762   9.507   9.366
13215WAT     H239888   5.834   9.621   9.459
13216WAT      O39889   7.052   5.340   7.128
13216WAT     H139890   6.984   5.388   7.183
13216WAT     H239891   7.010   5.263   7.080
13217WAT      O39892   3.026   4.195   2.072
13217WAT     H139893   2.948   4.254   2.093
13217WAT     H239894   2.994   4.103   2.050
13218WAT      O39895   5.353   1.006   7.721
13218WAT     H139896   5.372   0.923   7.669
13218WAT     H239897   5.304   0.981   7.805
13219WAT      O39898   0.630   0.060   9.004
13219WAT     H139899   0.538   0.025   8.988
13219WAT     H239900   0.698  -0.006   8.970
13220WAT      O39901   4.556   0.211   7.393
13220WAT     H139902   4.498   0.131   7.404
13220WAT     H239903   4.652   0.183   7.396
13221WAT      O39904   7.966   2.027   1.757
13221WAT     H139905   7.925   2.066   1.675
13221WAT     H239906   7.901   2.032   1.833
13222WAT      O39907   9.167   2.437   5.010
13222WAT     H139908   9.140   2.341   4.998
13222WAT     H239909   9.189   2.454   5.106
13223WAT      O39910   9.014   4.268   7.297
13223WAT     H139911   8.966   4.185   7.325
13223WAT     H239912   8.967   4.348   7.335
13224WAT      O39913   7.203   2.660   9.546
13224WAT     H139914   7.274   2.607   9.591
13224WAT     H239915   7.232   2.683   9.453
13225WAT      O39916   9.181   6.044   9.727
13225WAT     H139917   9.168   6.092   9.640
13225WAT     H239918   9.130   5.958   9.726
13226WAT      O39919   7.351   3.655   5.973
13226WAT     H139920   7.261   3.690   5.947
13226WAT     H239921   7.363   3.562   5.939
13227WAT      O39922   5.735   5.295   3.323
13227WAT     H139923   5.765   5.270   3.414
13227WAT     H239924   5.647   5.341   3.328
13228WAT      O39925   8.225   4.087   1.696
13228WAT     H139926   8.181   4.099   1.607
13228WAT     H239927   8.157   4.058   1.764
13229WAT      O39928   6.842   7.668   5.369
13229WAT     H139929   6.920   7.617   5.406
13229WAT     H239930   6.811   7.624   5.285
13230WAT      O39931   9.532   3.852   9.085
13230WAT     H139932   9.463   3.907   9.038
13230WAT     H239933   9.542   3.764   9.039
13231WAT      O39934   5.363   2.969   5.300
13231WAT     H139935   5.369   2.876   5.336
13231WAT     H239936   5.443   3.021   5.329
13232WAT      O39937   2.830   4.952   1.815
13232WAT     H139938   2.809   4.859   1.846
13232WAT     H239939   2.907   4.988   1.866
13233WAT      O39940   2.033   5.852   7.963
13233WAT     H139941   2.035   5.899   7.875
13233WAT     H239942   2.009   5.756   7.949
13234WAT      O39943   4.096   4.566   1.314
13234WAT     H139944   4.081   4.531   1.222
13234WAT     H239945   4.050   4.508   1.381
13235WAT      O39946   2.242   6.878   8.437
13235WAT     H139947   2.209   6.838   8.522
13235WAT     H239948   2.273   6.971   8.453
13236WAT      O39949   2.771   1.251   5.500
13236WAT     H139950   2.771   1.346   5.469
13236WAT     H239951   2.689   1.235   5.555
13237WAT      O39952   6.361   9.377   2.776
13237WAT     H139953   6.448   9.408   2.815
13237WAT     H239954   6.325   9.301   2.831
13238WAT      O39955   7.718   7.572   8.249
13238WAT     H139956   7.730   7.573   8.349
13238WAT     H239957   7.626   7.541   8.226
13239WAT      O39958   1.269   5.438   5.942
13239WAT     H139959   1.324   5.386   5.876
13239WAT     H239960   1.313   5.527   5.958
13240WAT      O39961   4.275   3.159   2.547
13240WAT     H139962   4.327   3.182   2.465
13240WAT     H239963   4.338   3.130   2.619
13241WAT      O39964   9.239   3.115   4.787
13241WAT     H139965   9.209   3.081   4.876
13241WAT     H239966   9.317   3.176   4.799
13242WAT      O39967   5.533   9.258   4.849
13242WAT     H139968   5.476   9.277   4.929
13242WAT     H239969   5.524   9.162   4.824
13243WAT      O39970   5.910   0.705   8.039
13243WAT     H139971   5.835   0.647   8.009
13243WAT     H239972   5.876   0.797   8.057
13244WAT      O39973   5.615   5.340   6.528
13244WAT     H139974   5.548   5.407   6.562
13244WAT     H239975   5.578   5.292   6.449
13245WAT      O39976   7.435   5.696   8.912
13245WAT     H139977   7.341   5.702   8.944
13245WAT     H239978   7.497   5.736   8.980
13246WAT      O39979   4.053   1.867   6.951
13246WAT     H139980   4.105   1.936   7.001
13246WAT     H239981   4.111   1.788   6.933
13247WAT      O39982   8.502   6.387   9.858
13247WAT     H139983   8.566   6.315   9.833
13247WAT     H239984   8.540   6.476   9.830
13248WAT      O39985   5.405   0.718   5.032
13248WAT     H139986   5.452   0.783   4.973
13248WAT     H239987   5.307   0.737   5.031
13249WAT      O39988   6.851   8.284   4.612
13249WAT     H139989   6.811   8.207   4.662
13249WAT     H239990   6.875   8.254   4.519
13250WAT      O39991   5.307   3.537   8.839
13250WAT     H139992   5.215   3.548   8.874
13250WAT     H239993   5.327   3.610   8.773
13251WAT      O39994   2.450   1.004   0.578
13251WAT     H139995   2.470   1.101   0.563
13251WAT     H239996   2.505   0.948   0.515
13252WAT      O39997   5.899   6.598   3.565
13252WAT     H139998   5.978   6.548   3.601
13252WAT     H239999   5.923   6.694   3.553
13253WAT      O40000   6.626   5.707   6.437
13253WAT     H140001   6.576   5.766   6.501
13253WAT     H240002   6.710   5.753   6.409
13254WAT      O40003   6.908   4.933   9.167
13254WAT     H140004   6.808   4.935   9.168
13254WAT     H240005   6.940   4.841   9.192
13255WAT      O40006   9.849   2.470   2.356
13255WAT     H140007   9.838   2.473   2.257
13255WAT     H240008   9.768   2.507   2.400
13256WAT      O40009   8.878   5.640   1.076
13256WAT     H140010   8.851   5.576   1.004
13256WAT     H240011   8.957   5.604   1.125
13257WAT      O40012   8.819   2.791   3.162
13257WAT     H140013   8.863   2.779   3.251
13257WAT     H240014   8.827   2.706   3.110
13258WAT      O40015   6.727   2.645   6.896
13258WAT     H140016   6.636   2.650   6.936
13258WAT     H240017   6.723   2.673   6.800
13259WAT      O40018   7.232   5.467   2.229
13259WAT     H140019   7.278   5.421   2.305
13259WAT     H240020   7.220   5.563   2.251
13260WAT      O40021   7.175   5.944   3.378
13260WAT     H140022   7.111   5.993   3.437
13260WAT     H240023   7.151   5.848   3.375
13261WAT      O40024   6.766   2.133   8.621
13261WAT     H140025   6.750   2.102   8.715
13261WAT     H240026   6.767   2.053   8.561
13262WAT      O40027   5.455   0.458   4.876
13262WAT     H140028   5.402   0.515   4.939
13262WAT     H240029   5.533   0.510   4.842
13263WAT      O40030   4.805   5.988   5.484
13263WAT     H140031   4.856   5.902   5.486
13263WAT     H240032   4.868   6.065   5.475
13264WAT      O40033   9.119   7.015   0.207
13264WAT     H140034   9.206   7.028   0.254
13264WAT     H240035   9.134   6.960   0.125
13265WAT      O40036   7.348   7.182   5.653
13265WAT     H140037   7.426   7.197   5.713
13265WAT     H240038   7.280   7.254   5.668
13266WAT      O40039   4.762   7.193   0.301
13266WAT     H140040   4.765   7.176   0.400
13266WAT     H240041   4.837   7.255   0.276
13267WAT      O40042   3.883   3.584   9.235
13267WAT     H140043   3.794   3.539   9.246
13267WAT     H240044   3.874   3.659   9.169
13268WAT      O40045   8.140   6.380   2.931
13268WAT     H140046   8.213   6.317   2.906
13268WAT     H240047   8.169   6.474   2.911
13269WAT      O40048   2.366   1.829   3.335
13269WAT     H140049   2.342   1.804   3.429
13269WAT     H240050   2.449   1.780   3.308
13270WAT      O40051   0.639   6.472   0.253
13270WAT     H140052   0.602   6.396   0.307
13270WAT     H240053   0.677   6.541   0.315
13271WAT      O40054   3.495   4.688   2.554
13271WAT     H140055   3.512   4.591   2.534
13271WAT     H240056   3.553   4.744   2.495
13272WAT      O40057   5.740   3.250   2.951
13272WAT     H140058   5.747   3.340   2.909
13272WAT     H240059   5.792   3.184   2.896
13273WAT      O40060   3.116   7.021   1.808
13273WAT     H140061   3.212   7.000   1.791
13273WAT     H240062   3.085   6.973   1.890
13274WAT      O40063   2.132   8.851   8.231
13274WAT     H140064   2.093   8.912   8.300
13274WAT     H240065   2.058   8.801   8.185
13275WAT      O40066   6.495   5.981   8.958
13275WAT     H140067   6.396   5.986   8.973
13275WAT     H240068   6.530   6.071   8.936
13276WAT      O40069   5.389   0.132   4.284
13276WAT     H140070   5.361   0.207   4.224
13276WAT     H240071   5.448   0.070   4.234
13277WAT      O40072   2.750   8.324  -0.002
13277WAT     H140073   2.693   8.336   0.079
13277WAT     H240074   2.785   8.231  -0.006
13278WAT      O40075   7.514   8.219   1.046
13278WAT     H140076   7.506   8.136   0.990
13278WAT     H240077   7.606   8.226   1.083
13279WAT      O40078   4.653   4.698   0.447
13279WAT     H140079   4.743   4.719   0.406
13279WAT     H240080   4.582   4.747   0.397
13280WAT      O40081   7.385   9.362   7.165
13280WAT     H140082   7.473   9.328   7.130
13280WAT     H240083   7.364   9.318   7.252
13281WAT      O40084   4.251   9.450   2.965
13281WAT     H140085   4.314   9.469   2.890
13281WAT     H240086   4.188   9.377   2.938
13282WAT      O40087   8.461   5.672   9.645
13282WAT     H140088   8.378   5.689   9.592
13282WAT     H240089   8.437   5.657   9.741
13283WAT      O40090   8.681   5.670   4.461
13283WAT     H140091   8.700   5.612   4.382
13283WAT     H240092   8.614   5.625   4.520
13284WAT      O40093   6.345   6.511   5.090
13284WAT     H140094   6.259   6.467   5.067
13284WAT     H240095   6.385   6.551   5.007
13285WAT      O40096   3.504   4.699   2.023
13285WAT     H140097   3.580   4.759   2.045
13285WAT     H240098   3.489   4.698   1.924
13286WAT      O40099   2.124   1.880   8.414
13286WAT     H140100   2.172   1.929   8.341
13286WAT     H240101   2.085   1.796   8.378
13287WAT      O40102   2.468   8.207   3.102
13287WAT     H140103   2.558   8.243   3.078
13287WAT     H240104   2.479   8.127   3.160
13288WAT      O40105   0.804   5.150   5.623
13288WAT     H140106   0.709   5.168   5.595
13288WAT     H240107   0.834   5.223   5.684
13289WAT      O40108   9.209   8.202   3.568
13289WAT     H140109   9.183   8.144   3.645
13289WAT     H240110   9.231   8.145   3.489
13290WAT      O40111   7.800   4.081   1.483
13290WAT     H140112   7.879   4.138   1.463
13290WAT     H240113   7.728   4.098   1.415
13291WAT      O40114   8.433   5.380   2.700
13291WAT     H140115   8.434   5.331   2.787
13291WAT     H240116   8.405   5.475   2.715
13292WAT      O40117   9.625   1.993   5.748
13292WAT     H140118   9.570   1.939   5.685
13292WAT     H240119   9.685   1.933   5.801
13293WAT      O40120   1.982   9.787   2.795
13293WAT     H140121   2.012   9.845   2.871
13293WAT     H240122   1.938   9.705   2.831
13294WAT      O40123   0.147   1.120   7.987
13294WAT     H140124   0.148   1.023   7.962
13294WAT     H240125   0.056   1.145   8.021
13295WAT      O40126   0.257   1.886   5.981
13295WAT     H140127   0.305   1.962   6.024
13295WAT     H240128   0.260   1.896   5.881
13296WAT      O40129   1.878   9.071   8.046
13296WAT     H140130   1.953   9.107   7.990
13296WAT     H240131   1.848   8.984   8.008
13297WAT      O40132   5.280   0.314   1.463
13297WAT     H140133   5.226   0.245   1.512
13297WAT     H240134   5.224   0.396   1.451
13298WAT      O40135   5.396   5.888   2.181
13298WAT     H140136   5.333   5.945   2.128
13298WAT     H240137   5.346   5.845   2.256
13299WAT      O40138   9.219   8.193   7.389
13299WAT     H140139   9.175   8.108   7.421
13299WAT     H240140   9.275   8.230   7.463
13300WAT      O40141   5.868   2.274   2.400
13300WAT     H140142   5.815   2.357   2.380
13300WAT     H240143   5.894   2.273   2.496
13301WAT      O40144   1.535   0.551   1.637
13301WAT     H140145   1.503   0.527   1.729
13301WAT     H240146   1.568   0.646   1.638
13302WAT      O40147   9.864   4.810   4.383
13302WAT     H140148   9.931   4.750   4.425
13302WAT     H240149   9.804   4.848   4.454
13303WAT      O40150   5.212   0.813   4.767
13303WAT     H140151   5.199   0.912   4.769
13303WAT     H240152   5.123   0.768   4.771
13304WAT      O40153   6.253   6.773   7.317
13304WAT     H140154   6.232   6.688   7.365
13304WAT     H240155   6.198   6.779   7.233
13305WAT      O40156   4.313   7.922   7.118
13305WAT     H140157   4.283   7.839   7.071
13305WAT     H240158   4.376   7.897   7.191
13306WAT      O40159   3.290   1.191   3.823
13306WAT     H140160   3.354   1.267   3.809
13306WAT     H240161   3.196   1.227   3.827
13307WAT      O40162   5.611   7.959   0.031
13307WAT     H140163   5.514   7.972   0.048
13307WAT     H240164   5.663   7.977   0.115
13308WAT      O40165   5.027   2.425   2.896
13308WAT     H140166   5.015   2.523   2.909
13308WAT     H240167   5.011   2.402   2.800
13309WAT      O40168   8.078   7.313   2.689
13309WAT     H140169   8.096   7.405   2.655
13309WAT     H240170   8.003   7.316   2.755
13310WAT      O40171   8.150   2.898   2.012
13310WAT     H140172   8.177   2.871   2.104
13310WAT     H240173   8.227   2.943   1.967
13311WAT      O40174   5.974   2.237   6.603
13311WAT     H140175   5.903   2.249   6.535
13311WAT     H240176   5.933   2.224   6.693
13312WAT      O40177   3.332   5.207   6.134
13312WAT     H140178   3.425   5.176   6.151
13312WAT     H240179   3.327   5.306   6.147
13313WAT      O40180   2.015   6.108   4.593
13313WAT     H140181   2.062   6.182   4.641
13313WAT     H240182   1.947   6.066   4.654
13314WAT      O40183   1.463   9.338   5.408
13314WAT     H140184   1.475   9.248   5.366
13314WAT     H240185   1.389   9.333   5.476
13315WAT      O40186   4.096   1.081   4.710
13315WAT     H140187   4.148   1.050   4.789
13315WAT     H240188   4.038   1.007   4.677
13316WAT      O40189   6.343   3.690   2.174
13316WAT     H140190   6.286   3.750   2.119
13316WAT     H240191   6.369   3.610   2.120
13317WAT      O40192   2.706   9.459   1.422
13317WAT     H140193   2.678   9.440   1.516
13317WAT     H240194   2.679   9.552   1.397
13318WAT      O40195   6.151   1.755   4.218
13318WAT     H140196   6.168   1.810   4.300
13318WAT     H240197   6.106   1.812   4.149
13319WAT      O40198   9.714   7.918   4.685
13319WAT     H140199   9.649   7.992   4.700
13319WAT     H240200   9.748   7.886   4.773
13320WAT      O40201   2.392   6.978   1.449
13320WAT     H140202   2.490   7.000   1.447
13320WAT     H240203   2.355   7.000   1.539
13321WAT      O40204   9.588   5.987   8.094
13321WAT     H140205   9.677   5.978   8.048
13321WAT     H240206   9.521   5.931   8.046
13322WAT      O40207   5.040   3.155   6.969
13322WAT     H140208   5.071   3.097   7.044
13322WAT     H240209   5.028   3.100   6.887
13323WAT      O40210   5.797   1.744   9.213
13323WAT     H140211   5.737   1.803   9.159
13323WAT     H240212   5.846   1.683   9.152
13324WAT      O40213   9.758   4.578   0.561
13324WAT     H140214   9.738   4.546   0.653
13324WAT     H240215   9.851   4.614   0.557
13325WAT      O40216   4.209   2.412   5.750
13325WAT     H140217   4.281   2.343   5.743
13325WAT     H240218   4.134   2.388   5.689
13326WAT      O40219   7.444   6.268   9.853
13326WAT     H140220   7.512   6.298   9.920
13326WAT     H240221   7.485   6.200   9.792
13327WAT      O40222   1.293   7.230   7.474
13327WAT     H140223   1.389   7.238   7.502
13327WAT     H240224   1.239   7.300   7.519
13328WAT      O40225   5.094   5.438   9.690
13328WAT     H140226   5.166   5.390   9.740
13328WAT     H240227   5.007   5.390   9.702
13329WAT      O40228   4.610   8.945   7.607
13329WAT     H140229   4.701   8.985   7.617
13329WAT     H240230   4.602   8.900   7.518
13330WAT      O40231   3.084   7.419   7.397
13330WAT     H140232   3.136   7.335   7.413
13330WAT     H240233   2.994   7.396   7.358
13331WAT      O40234   3.227   0.732   5.502
13331WAT     H140235   3.151   0.753   5.440
13331WAT     H240236   3.217   0.783   5.587
13332WAT      O40237   8.507   1.624   5.267
13332WAT     H140238   8.605   1.639   5.252
13332WAT     H240239   8.463   1.711   5.289
13333WAT      O40240   0.939   0.572   2.750
13333WAT     H140241   0.924   0.579   2.651
13333WAT     H240242   1.000   0.495   2.769
13334WAT      O40243   8.212   4.347   6.783
13334WAT     H140244   8.181   4.368   6.690
13334WAT     H240245   8.236   4.250   6.790
13335WAT      O40246   1.026   3.826   5.888
13335WAT     H140247   1.019   3.781   5.977
13335WAT     H240248   1.122   3.842   5.866
13336WAT      O40249   4.057   0.570   2.317
13336WAT     H140250   3.986   0.533   2.257
13336WAT     H240251   4.030   0.558   2.412
13337WAT      O40252   1.099   6.179   3.718
13337WAT     H140253   1.032   6.211   3.785
13337WAT     H240254   1.177   6.241   3.716
13338WAT      O40255   8.841   6.108   9.188
13338WAT     H140256   8.790   6.029   9.220
13338WAT     H240257   8.823   6.121   9.090
13339WAT      O40258   9.465   5.642   2.700
13339WAT     H140259   9.480   5.718   2.762
13339WAT     H240260   9.410   5.572   2.746
13340WAT      O40261   8.871   4.106   5.873
13340WAT     H140262   8.804   4.032   5.878
13340WAT     H240263   8.900   4.131   5.965
13341WAT      O40264   7.148   1.971   4.205
13341WAT     H140265   7.197   1.987   4.120
13341WAT     H240266   7.210   1.984   4.282
13342WAT      O40267   4.952   4.431   1.823
13342WAT     H140268   5.006   4.515   1.824
13342WAT     H240269   4.971   4.380   1.739
13343WAT      O40270   2.650   5.186   1.449
13343WAT     H140271   2.567   5.142   1.414
13343WAT     H240272   2.720   5.116   1.464
13344WAT      O40273   2.725   4.027   8.370
13344WAT     H140274   2.757   4.025   8.464
13344WAT     H240275   2.718   4.122   8.339
13345WAT      O40276   2.597   6.889   5.844
13345WAT     H140277   2.694   6.889   5.867
13345WAT     H240278   2.585   6.861   5.748
13346WAT      O40279   5.006   7.047   0.091
13346WAT     H140280   4.998   7.137   0.134
13346WAT     H240281   5.017   6.977   0.162
13347WAT      O40282   9.854   5.704   5.701
13347WAT     H140283   9.831   5.799   5.681
13347WAT     H240284   9.887   5.660   5.617
13348WAT      O40285   0.320   5.108   7.025
13348WAT     H140286   0.274   5.182   7.074
13348WAT     H240287   0.253   5.058   6.970
13349WAT      O40288   1.750   9.643   0.449
13349WAT     H140289   1.656   9.610   0.441
13349WAT     H240290   1.803   9.578   0.504
13350WAT      O40291   3.677   6.565   6.211
13350WAT     H140292   3.706   6.661   6.215
13350WAT     H240293   3.731   6.512   6.277
13351WAT      O40294   9.649   0.254   1.521
13351WAT     H140295   9.616   0.236   1.428
13351WAT     H240296   9.749   0.248   1.523
13352WAT      O40297   6.213   0.803   8.852
13352WAT     H140298   6.221   0.869   8.777
13352WAT     H240299   6.303   0.787   8.892
13353WAT      O40300   1.252   1.185   0.726
13353WAT     H140301   1.224   1.277   0.752
13353WAT     H240302   1.241   1.123   0.804
13354WAT      O40303   6.022   1.523   3.425
13354WAT     H140304   5.987   1.604   3.378
13354WAT     H240305   6.106   1.492   3.382
13355WAT      O40306   7.086   3.043   6.647
13355WAT     H140307   7.011   2.989   6.684
13355WAT     H240308   7.049   3.122   6.599
13356WAT      O40309   7.400   0.542   4.085
13356WAT     H140310   7.454   0.615   4.042
13356WAT     H240311   7.380   0.471   4.018
13357WAT      O40312   9.509   8.656   4.353
13357WAT     H140313   9.455   8.613   4.281
13357WAT     H240314   9.524   8.590   4.427
13358WAT      O40315   9.213   0.808   4.278
13358WAT     H140316   9.310   0.798   4.303
13358WAT     H240317   9.202   0.789   4.181
13359WAT      O40318   1.402   4.800   5.572
13359WAT     H140319   1.415   4.876   5.508
13359WAT     H240320   1.448   4.719   5.537
13360WAT      O40321   2.038   7.820   3.797
13360WAT     H140322   2.102   7.897   3.803
13360WAT     H240323   2.089   7.734   3.794
13361WAT      O40324   4.671   4.268   7.024
13361WAT     H140325   4.725   4.252   6.942
13361WAT     H240326   4.716   4.338   7.080
13362WAT      O40327   0.045   7.619   0.904
13362WAT     H140328  -0.033   7.609   0.842
13362WAT     H240329   0.052   7.714   0.934
13363WAT      O40330   3.809   0.336   8.890
13363WAT     H140331   3.834   0.353   8.985
13363WAT     H240332   3.747   0.407   8.858
13364WAT      O40333   8.392   4.787   5.266
13364WAT     H140334   8.298   4.818   5.277
13364WAT     H240335   8.449   4.864   5.237
13365WAT      O40336   1.594   6.369   6.448
13365WAT     H140337   1.569   6.299   6.514
13365WAT     H240338   1.690   6.395   6.461
13366WAT      O40339   6.168   1.277   9.401
13366WAT     H140340   6.255   1.304   9.359
13366WAT     H240341   6.129   1.201   9.350
13367WAT      O40342   4.222   7.018   5.227
13367WAT     H140343   4.136   7.045   5.183
13367WAT     H240344   4.287   6.987   5.158
13368WAT      O40345   8.650   4.619   7.933
13368WAT     H140346   8.729   4.624   7.995
13368WAT     H240347   8.659   4.689   7.862
13369WAT      O40348   3.834   6.178   3.482
13369WAT     H140349   3.843   6.218   3.573
13369WAT     H240350   3.883   6.091   3.479
13370WAT      O40351   2.409   4.143   7.545
13370WAT     H140352   2.371   4.055   7.518
13370WAT     H240353   2.340   4.197   7.592
13371WAT      O40354   9.731   3.118   7.691
13371WAT     H140355   9.807   3.073   7.738
13371WAT     H240356   9.645   3.094   7.735
13372WAT      O40357   1.402   9.455   3.078
13372WAT     H140358   1.416   9.426   3.172
13372WAT     H240359   1.484   9.502   3.045
13373WAT      O40360   1.532   3.259   3.273
13373WAT     H140361   1.561   3.178   3.221
13373WAT     H240362   1.496   3.230   3.362
13374WAT      O40363   7.646   4.688   7.162
13374WAT     H140364   7.617   4.761   7.224
13374WAT     H240365   7.713   4.725   7.097
13375WAT      O40366   5.956   0.997   2.154
13375WAT     H140367   5.948   0.903   2.123
13375WAT     H240368   6.038   1.039   2.114
13376WAT      O40369   1.069   8.609   9.567
13376WAT     H140370   1.063   8.577   9.472
13376WAT     H240371   1.157   8.654   9.581
13377WAT      O40372   6.049   1.533   5.200
13377WAT     H140373   5.991   1.545   5.281
13377WAT     H240374   6.004   1.575   5.121
13378WAT      O40375   4.312   0.616   9.244
13378WAT     H140376   4.361   0.704   9.247
13378WAT     H240377   4.376   0.543   9.222
13379WAT      O40378   0.171   1.449   3.283
13379WAT     H140379   0.157   1.510   3.204
13379WAT     H240380   0.104   1.375   3.279
13380WAT      O40381   6.355   7.281   8.365
13380WAT     H140382   6.325   7.293   8.459
13380WAT     H240383   6.376   7.370   8.324
13381WAT      O40384   4.023   2.445   8.478
13381WAT     H140385   3.995   2.540   8.490
13381WAT     H240386   3.952   2.385   8.515
13382WAT      O40387   2.354   9.571   5.848
13382WAT     H140388   2.341   9.622   5.763
13382WAT     H240389   2.452   9.551   5.860
13383WAT      O40390   5.932   4.980   2.288
13383WAT     H140391   5.892   5.071   2.298
13383WAT     H240392   5.898   4.920   2.361
13384WAT      O40393   8.759   4.354   8.112
13384WAT     H140394   8.722   4.264   8.091
13384WAT     H240395   8.690   4.424   8.090
13385WAT      O40396   7.574   5.371   7.464
13385WAT     H140397   7.592   5.325   7.551
13385WAT     H240398   7.500   5.438   7.477
13386WAT      O40399   2.315   2.777   4.766
13386WAT     H140400   2.315   2.732   4.856
13386WAT     H240401   2.264   2.721   4.701
13387WAT      O40402   5.761   1.125   4.904
13387WAT     H140403   5.665   1.145   4.884
13387WAT     H240404   5.815   1.209   4.900
13388WAT      O40405   6.695   0.420   7.105
13388WAT     H140406   6.745   0.447   7.023
13388WAT     H240407   6.702   0.491   7.174
13389WAT      O40408   7.859   6.174   4.946
13389WAT     H140409   7.831   6.264   4.915
13389WAT     H240410   7.952   6.155   4.915
13390WAT      O40411   9.250   0.885   2.991
13390WAT     H140412   9.245   0.815   3.062
13390WAT     H240413   9.337   0.879   2.943
13391WAT      O40414   7.426   4.287   1.952
13391WAT     H140415   7.428   4.377   1.909
13391WAT     H240416   7.416   4.297   2.051
13392WAT      O40417   5.501   0.760   9.100
13392WAT     H140418   5.408   0.795   9.096
13392WAT     H240419   5.520   0.707   9.017
13393WAT      O40420   8.157   8.188   5.402
13393WAT     H140421   8.144   8.225   5.310
13393WAT     H240422   8.159   8.263   5.468
13394WAT      O40423   4.078   5.018   8.033
13394WAT     H140424   4.067   5.115   8.009
13394WAT     H240425   4.007   4.991   8.097
13395WAT      O40426   6.911   2.065   1.184
13395WAT     H140427   6.868   2.052   1.095
13395WAT     H240428   6.969   2.146   1.181
13396WAT      O40429   0.015   1.860   4.860
13396WAT     H140430   0.013   1.766   4.896
13396WAT     H240431   0.016   1.924   4.936
13397WAT      O40432   7.696   3.653   7.998
13397WAT     H140433   7.658   3.683   8.086
13397WAT     H240434   7.761   3.578   8.014
13398WAT      O40435   1.364   5.377   3.112
13398WAT     H140436   1.463   5.386   3.104
13398WAT     H240437   1.321   5.400   3.024
13399WAT      O40438   3.559   2.773   8.709
13399WAT     H140439   3.547   2.840   8.636
13399WAT     H240440   3.627   2.705   8.681
13400WAT      O40441   1.645   4.892   2.060
13400WAT     H140442   1.653   4.992   2.061
13400WAT     H240443   1.550   4.866   2.047
13401WAT      O40444   9.419   2.201   9.315
13401WAT     H140445   9.358   2.167   9.386
13401WAT     H240446   9.375   2.189   9.225
13402WAT      O40447   1.779   7.254   0.918
13402WAT     H140448   1.752   7.173   0.971
13402WAT     H240449   1.798   7.226   0.824
13403WAT      O40450   9.205   1.357   5.539
13403WAT     H140451   9.193   1.323   5.446
13403WAT     H240452   9.210   1.280   5.603
13404WAT      O40453   7.821   8.477   2.826
13404WAT     H140454   7.825   8.415   2.905
13404WAT     H240455   7.784   8.428   2.747
13405WAT      O40456   1.584   7.465   7.332
13405WAT     H140457   1.551   7.456   7.426
13405WAT     H240458   1.565   7.381   7.282
13406WAT      O40459   5.863   2.389   3.893
13406WAT     H140460   5.835   2.317   3.956
13406WAT     H240461   5.852   2.478   3.936
13407WAT      O40462   1.066   0.888   5.174
13407WAT     H140463   1.139   0.820   5.169
13407WAT     H240464   0.978   0.844   5.156
13408WAT      O40465   4.535   2.614   0.372
13408WAT     H140466   4.532   2.629   0.471
13408WAT     H240467   4.496   2.694   0.325
13409WAT      O40468   0.147   0.491   5.538
13409WAT     H140469   0.087   0.418   5.505
13409WAT     H240470   0.178   0.469   5.631
13410WAT      O40471   7.369   4.070   8.678
13410WAT     H140472   7.273   4.076   8.703
13410WAT     H240473   7.377   4.032   8.586
13411WAT      O40474   8.522   3.306   7.753
13411WAT     H140475   8.596   3.300   7.686
13411WAT     H240476   8.450   3.241   7.729
13412WAT      O40477   5.141   0.789   5.796
13412WAT     H140478   5.165   0.782   5.700
13412WAT     H240479   5.137   0.698   5.837
13413WAT      O40480   1.235   8.497   7.949
13413WAT     H140481   1.302   8.428   7.922
13413WAT     H240482   1.251   8.525   8.043
13414WAT      O40483   4.866   4.149   0.473
13414WAT     H140484   4.838   4.068   0.523
13414WAT     H240485   4.793   4.177   0.410
13415WAT      O40486   6.466   0.377   8.865
13415WAT     H140487   6.554   0.351   8.904
13415WAT     H240488   6.465   0.357   8.767
13416WAT      O40489   6.701   5.599   6.805
13416WAT     H140490   6.701   5.538   6.725
13416WAT     H240491   6.641   5.561   6.875
13417WAT      O40492   0.293   3.884   5.735
13417WAT     H140493   0.342   3.969   5.755
13417WAT     H240494   0.359   3.810   5.722
13418WAT      O40495   4.440   1.793   0.224
13418WAT     H140496   4.408   1.853   0.297
13418WAT     H240497   4.426   1.838   0.135
13419WAT      O40498   4.272   7.785   7.689
13419WAT     H140499   4.220   7.855   7.738
13419WAT     H240500   4.220   7.753   7.610
13420WAT      O40501   1.215   5.196   9.344
13420WAT     H140502   1.253   5.223   9.256
13420WAT     H240503   1.135   5.253   9.365
13421WAT      O40504   8.840   9.604   9.153
13421WAT     H140505   8.883   9.625   9.066
13421WAT     H240506   8.899   9.633   9.228
13422WAT      O40507   3.425   6.982   4.949
13422WAT     H140508   3.330   7.015   4.953
13422WAT     H240509   3.431   6.904   4.887
13423WAT      O40510   0.711   9.184   6.955
13423WAT     H140511   0.782   9.151   7.018
13423WAT     H240512   0.625   9.136   6.974
13424WAT      O40513   3.640   8.562   1.798
13424WAT     H140514   3.584   8.480   1.786
13424WAT     H240515   3.719   8.541   1.856
13425WAT      O40516   6.557   2.308   2.862
13425WAT     H140517   6.562   2.306   2.762
13425WAT     H240518   6.470   2.267   2.891
13426WAT      O40519   1.265   0.288   2.504
13426WAT     H140520   1.170   0.257   2.505
13426WAT     H240521   1.299   0.294   2.598
13427WAT      O40522   2.352   9.017   8.211
13427WAT     H140523   2.263   8.980   8.185
13427WAT     H240524   2.385   8.969   8.292
13428WAT      O40525   8.333   0.817   3.672
13428WAT     H140526   8.301   0.786   3.583
13428WAT     H240527   8.331   0.917   3.676
13429WAT      O40528   3.624   6.695   9.798
13429WAT     H140529   3.617   6.636   9.878
13429WAT     H240530   3.624   6.791   9.826
13430WAT      O40531   9.196   1.554   1.649
13430WAT     H140532   9.229   1.505   1.568
13430WAT     H240533   9.226   1.506   1.731
13431WAT      O40534   5.341   8.507   4.087
13431WAT     H140535   5.339   8.422   4.036
13431WAT     H240536   5.254   8.518   4.137
13432WAT      O40537   3.663   4.456   5.123
13432WAT     H140538   3.610   4.540   5.114
13432WAT     H240539   3.601   4.379   5.137
13433WAT      O40540   1.120   1.306   4.705
13433WAT     H140541   1.074   1.248   4.772
13433WAT     H240542   1.199   1.350   4.748
13434WAT      O40543   3.167   4.227   6.084
13434WAT     H140544   3.088   4.175   6.116
13434WAT     H240545   3.163   4.320   6.119
13435WAT      O40546   2.542   7.662   3.118
13435WAT     H140547   2.502   7.700   3.035
13435WAT     H240548   2.489   7.582   3.147
13436WAT      O40549   4.726   4.869   0.670
13436WAT     H140550   4.702   4.799   0.603
13436WAT     H240551   4.750   4.954   0.623
13437WAT      O40552   8.489   6.417   8.546
13437WAT     H140553   8.467   6.470   8.628
13437WAT     H240554   8.584   6.386   8.550
13438WAT      O40555   3.416   6.453   6.678
13438WAT     H140556   3.512   6.440   6.652
13438WAT     H240557   3.403   6.419   6.772
13439WAT      O40558   1.925   9.186   9.406
13439WAT     H140559   2.009   9.230   9.439
13439WAT     H240560   1.943   9.139   9.320
13440WAT      O40561   9.658   1.004   0.701
13440WAT     H140562   9.560   0.996   0.721
13440WAT     H240563   9.705   0.922   0.734
13441WAT      O40564   8.206   4.346   1.790
13441WAT     H140565   8.228   4.249   1.797
13441WAT     H240566   8.192   4.371   1.694
13442WAT      O40567   1.520   7.687   6.089
13442WAT     H140568   1.607   7.727   6.059
13442WAT     H240569   1.445   7.740   6.050
13443WAT      O40570   8.955   8.075   8.347
13443WAT     H140571   9.035   8.092   8.405
13443WAT     H240572   8.980   8.087   8.251
13444WAT      O40573   6.783   2.816   0.111
13444WAT     H140574   6.785   2.865   0.198
13444WAT     H240575   6.856   2.849   0.052
13445WAT      O40576   5.099   5.869   0.987
13445WAT     H140577   5.079   5.917   1.072
13445WAT     H240578   5.082   5.930   0.909
13446WAT      O40579   9.804   6.424   7.128
13446WAT     H140580   9.709   6.395   7.118
13446WAT     H240581   9.808   6.524   7.125
13447WAT      O40582   9.555   7.574   4.222
13447WAT     H140583   9.496   7.641   4.179
13447WAT     H240584   9.529   7.563   4.318
13448WAT      O40585   0.100   4.944   6.435
13448WAT     H140586   0.022   4.882   6.429
13448WAT     H240587   0.071   5.031   6.475
13449WAT      O40588   5.810   2.940   0.216
13449WAT     H140589   5.821   2.914   0.120
13449WAT     H240590   5.823   2.859   0.274
13450WAT      O40591   9.880   6.417   4.501
13450WAT     H140592   9.832   6.481   4.562
13450WAT     H240593   9.900   6.333   4.551
13451WAT      O40594   6.923   8.544   7.795
13451WAT     H140595   6.896   8.475   7.862
13451WAT     H240596   6.974   8.500   7.721
13452WAT      O40597   7.799   3.166   9.712
13452WAT     H140598   7.888   3.125   9.730
13452WAT     H240599   7.744   3.164   9.796
13453WAT      O40600   2.132   7.512   3.280
13453WAT     H140601   2.217   7.505   3.228
13453WAT     H240602   2.093   7.421   3.292
13454WAT      O40603   0.385   1.571   6.241
13454WAT     H140604   0.298   1.549   6.197
13454WAT     H240605   0.370   1.585   6.339
13455WAT      O40606   6.851   1.761   1.098
13455WAT     H140607   6.767   1.734   1.049
13455WAT     H240608   6.827   1.796   1.188
13456WAT      O40609   2.970   9.343   2.868
13456WAT     H140610   2.982   9.258   2.817
13456WAT     H240611   3.057   9.393   2.870
13457WAT      O40612   5.543   0.911   4.904
13457WAT     H140613   5.512   1.000   4.872
13457WAT     H240614   5.629   0.887   4.860
13458WAT      O40615   2.562   1.572   8.982
13458WAT     H140616   2.479   1.519   9.001
13458WAT     H240617   2.636   1.540   9.041
13459WAT      O40618   5.449   5.792   2.485
13459WAT     H140619   5.396   5.709   2.497
13459WAT     H240620   5.389   5.872   2.493
13460WAT      O40621   1.774   6.769   7.901
13460WAT     H140622   1.693   6.730   7.857
13460WAT     H240623   1.746   6.831   7.973
13461WAT      O40624   4.273   1.648   5.534
13461WAT     H140625   4.191   1.597   5.561
13461WAT     H240626   4.318   1.602   5.457
13462WAT      O40627   8.878   4.499   9.546
13462WAT     H140628   8.871   4.417   9.603
13462WAT     H240629   8.975   4.524   9.536
13463WAT      O40630   3.466   7.577   6.960
13463WAT     H140631   3.377   7.553   6.919
13463WAT     H240632   3.455   7.657   7.019
13464WAT      O40633   2.975   2.460   6.624
13464WAT     H140634   2.923   2.545   6.623
13464WAT     H240635   3.065   2.477   6.665
13465WAT      O40636   2.760   3.675   9.687
13465WAT     H140637   2.829   3.660   9.758
13465WAT     H240638   2.669   3.672   9.728
13466WAT      O40639   0.966   5.477   0.637
13466WAT     H140640   1.036   5.542   0.666
13466WAT     H240641   0.916   5.444   0.718
13467WAT      O40642   1.455   4.680   7.165
13467WAT     H140643   1.377   4.667   7.226
13467WAT     H240644   1.493   4.591   7.139
13468WAT      O40645   9.093   6.714   0.126
13468WAT     H140646   9.136   6.770   0.054
13468WAT     H240647   9.088   6.768   0.210
13469WAT      O40648   8.019   6.667   0.207
13469WAT     H140649   8.006   6.568   0.214
13469WAT     H240650   8.052   6.703   0.294
13470WAT      O40651   6.145   8.817   0.637
13470WAT     H140652   6.196   8.731   0.627
13470WAT     H240653   6.076   8.824   0.566
13471WAT      O40654   7.946   2.826   7.333
13471WAT     H140655   7.955   2.752   7.400
13471WAT     H240656   8.036   2.861   7.310
13472WAT      O40657   6.761   8.561   2.069
13472WAT     H140658   6.721   8.628   2.132
13472WAT     H240659   6.814   8.609   1.999
13473WAT      O40660   3.872   5.546   9.334
13473WAT     H140661   3.834   5.629   9.374
13473WAT     H240662   3.859   5.470   9.398
13474WAT      O40663   3.366   4.659   5.338
13474WAT     H140664   3.403   4.594   5.405
13474WAT     H240665   3.440   4.692   5.280
13475WAT      O40666   4.606   9.185   9.616
13475WAT     H140667   4.571   9.123   9.546
13475WAT     H240668   4.703   9.167   9.632
13476WAT      O40669   7.646   7.535   3.399
13476WAT     H140670   7.717   7.596   3.437
13476WAT     H240671   7.600   7.488   3.475
13477WAT      O40672   4.704   7.658   3.825
13477WAT     H140673   4.612   7.683   3.857
13477WAT     H240674   4.772   7.711   3.875
13478WAT      O40675   5.119   1.240   2.641
13478WAT     H140676   5.032   1.228   2.687
13478WAT     H240677   5.192   1.196   2.694
13479WAT      O40678   2.878   8.829   5.241
13479WAT     H140679   2.841   8.836   5.149
13479WAT     H240680   2.809   8.790   5.302
13480WAT      O40681   9.138   6.347   0.921
13480WAT     H140682   9.167   6.386   1.008
13480WAT     H240683   9.146   6.416   0.849
13481WAT      O40684   0.561   2.025   1.808
13481WAT     H140685   0.642   2.080   1.789
13481WAT     H240686   0.538   2.033   1.905
13482WAT      O40687   3.349   9.349   2.962
13482WAT     H140688   3.302   9.402   2.891
13482WAT     H240689   3.419   9.406   3.005
13483WAT      O40690   9.680   2.673   5.896
13483WAT     H140691   9.743   2.631   5.832
13483WAT     H240692   9.637   2.753   5.852
13484WAT      O40693   4.655   6.860   9.111
13484WAT     H140694   4.690   6.945   9.150
13484WAT     H240695   4.714   6.784   9.139
13485WAT      O40696   9.833   3.973   1.324
13485WAT     H140697   9.796   3.934   1.239
13485WAT     H240698   9.760   3.978   1.392
13486WAT      O40699   7.689   1.878   4.382
13486WAT     H140700   7.629   1.807   4.418
13486WAT     H240701   7.666   1.897   4.287
13487WAT      O40702   0.130   7.332   3.378
13487WAT     H140703   0.224   7.298   3.368
13487WAT     H240704   0.068   7.255   3.389
13488WAT      O40705   5.957   9.054   4.339
13488WAT     H140706   5.971   9.152   4.327
13488WAT     H240707   6.036   9.004   4.302
13489WAT      O40708   9.650   4.794   5.386
13489WAT     H140709   9.706   4.860   5.436
13489WAT     H240710   9.612   4.837   5.304
13490WAT      O40711   4.902   4.487   6.919
13490WAT     H140712   4.839   4.544   6.972
13490WAT     H240713   4.951   4.426   6.981
13491WAT      O40714   8.625   6.879   8.749
13491WAT     H140715   8.539   6.918   8.784
13491WAT     H240716   8.632   6.784   8.778
13492WAT      O40717   1.799   7.932   0.135
13492WAT     H140718   1.787   7.844   0.090
13492WAT     H240719   1.876   7.980   0.094
13493WAT      O40720   9.370   7.934   5.762
13493WAT     H140721   9.417   7.981   5.688
13493WAT     H240722   9.317   7.858   5.725
13494WAT      O40723   0.055   1.867   1.690
13494WAT     H140724   0.039   1.769   1.704
13494WAT     H240725   0.067   1.885   1.592
13495WAT      O40726   0.132   7.458   8.260
13495WAT     H140727   0.188   7.482   8.339
13495WAT     H240728   0.158   7.515   8.182
13496WAT      O40729   2.426   2.387   4.988
13496WAT     H140730   2.478   2.365   4.906
13496WAT     H240731   2.473   2.349   5.068
13497WAT      O40732   1.514   4.162   8.121
13497WAT     H140733   1.529   4.250   8.076
13497WAT     H240734   1.550   4.089   8.063
13498WAT      O40735   8.797   0.821   6.906
13498WAT     H140736   8.743   0.738   6.896
13498WAT     H240737   8.846   0.840   6.820
13499WAT      O40738   9.030   6.671   1.076
13499WAT     H140739   8.988   6.761   1.060
13499WAT     H240740   9.121   6.669   1.035
13500WAT      O40741   4.221   6.150   7.311
13500WAT     H140742   4.274   6.095   7.376
13500WAT     H240743   4.259   6.140   7.220
13501WAT      O40744   3.831   6.061   9.407
13501WAT     H140745   3.914   6.030   9.360
13501WAT     H240746   3.756   6.066   9.342
13502WAT      O40747   5.517   4.359   4.537
13502WAT     H140748   5.441   4.392   4.481
13502WAT     H240749   5.593   4.332   4.477
13503WAT      O40750   9.783   3.596   5.834
13503WAT     H140751   9.709   3.618   5.897
13503WAT     H240752   9.871   3.605   5.880
13504WAT      O40753   1.538   5.847   6.225
13504WAT     H140754   1.543   5.946   6.208
13504WAT     H240755   1.630   5.812   6.246
13505WAT      O40756   6.001   3.352   2.727
13505WAT     H140757   5.912   3.398   2.730
13505WAT     H240758   5.991   3.259   2.762
13506WAT      O40759   6.255   1.021   0.394
13506WAT     H140760   6.259   1.120   0.413
13506WAT     H240761   6.299   0.972   0.469
13507WAT      O40762   8.533   3.454   9.351
13507WAT     H140763   8.439   3.444   9.383
13507WAT     H240764   8.534   3.509   9.268
13508WAT      O40765   2.862   0.204   7.765
13508WAT     H140766   2.934   0.142   7.734
13508WAT     H240767   2.773   0.171   7.734
13509WAT      O40768   8.369   9.228   1.418
13509WAT     H140769   8.373   9.325   1.395
13509WAT     H240770   8.277   9.193   1.400
13510WAT      O40771   4.848   1.844   6.835
13510WAT     H140772   4.749   1.837   6.849
13510WAT     H240773   4.895   1.813   6.917
13511WAT      O40774   0.365   4.041   6.151
13511WAT     H140775   0.388   4.010   6.243
13511WAT     H240776   0.283   4.099   6.156
13512WAT      O40777   0.720   7.302   6.337
13512WAT     H140778   0.706   7.318   6.434
13512WAT     H240779   0.760   7.384   6.295
13513WAT      O40780   3.565   4.185   3.726
13513WAT     H140781   3.557   4.102   3.672
13513WAT     H240782   3.541   4.166   3.821
13514WAT      O40783   2.660   3.145   7.060
13514WAT     H140784   2.579   3.142   7.119
13514WAT     H240785   2.742   3.155   7.117
13515WAT      O40786   4.712   0.078   1.469
13515WAT     H140787   4.805   0.089   1.434
13515WAT     H240788   4.688  -0.019   1.469
13516WAT      O40789   5.827   4.133   8.904
13516WAT     H140790   5.803   4.064   8.973
13516WAT     H240791   5.817   4.224   8.945
13517WAT      O40792   8.563   5.872   8.781
13517WAT     H140793   8.630   5.814   8.826
13517WAT     H240794   8.591   5.888   8.686
13518WAT      O40795   0.306   1.086   2.214
13518WAT     H140796   0.351   0.998   2.227
13518WAT     H240797   0.258   1.112   2.298
13519WAT      O40798   5.831   9.032   8.530
13519WAT     H140799   5.805   9.126   8.508
13519WAT     H240800   5.920   9.032   8.576
13520WAT      O40801   5.359   8.262   9.187
13520WAT     H140802   5.298   8.258   9.108
13520WAT     H240803   5.350   8.351   9.231
13521WAT      O40804   7.796   5.541   3.941
13521WAT     H140805   7.895   5.534   3.938
13521WAT     H240806   7.765   5.551   4.035
13522WAT      O40807   8.673   8.984   9.247
13522WAT     H140808   8.662   8.890   9.279
13522WAT     H240809   8.612   9.044   9.298
13523WAT      O40810   7.316   9.530   2.602
13523WAT     H140811   7.255   9.451   2.604
13523WAT     H240812   7.309   9.580   2.688
13524WAT      O40813   1.063   8.555   4.710
13524WAT     H140814   1.021   8.516   4.629
13524WAT     H240815   1.057   8.655   4.706
13525WAT      O40816   8.445   4.069   6.991
13525WAT     H140817   8.492   4.157   6.995
13525WAT     H240818   8.370   4.074   6.925
13526WAT      O40819   7.201   1.675   9.799
13526WAT     H140820   7.227   1.674   9.896
13526WAT     H240821   7.182   1.582   9.769
13527WAT      O40822   9.706   8.405   2.846
13527WAT     H140823   9.693   8.452   2.759
13527WAT     H240824   9.617   8.387   2.888
13528WAT      O40825   3.892   4.236   8.198
13528WAT     H140826   3.795   4.258   8.182
13528WAT     H240827   3.899   4.145   8.238
13529WAT      O40828   5.367   9.087   9.225
13529WAT     H140829   5.391   9.020   9.154
13529WAT     H240830   5.279   9.062   9.266
13530WAT      O40831   2.479   0.059   4.955
13530WAT     H140832   2.455   0.120   5.031
13530WAT     H240833   2.576   0.066   4.935
13531WAT      O40834   2.653   5.266   1.199
13531WAT     H140835   2.587   5.341   1.205
13531WAT     H240836   2.678   5.235   1.291
13532WAT      O40837   0.767   0.649   6.256
13532WAT     H140838   0.867   0.644   6.250
13532WAT     H240839   0.741   0.680   6.347
13533WAT      O40840   7.745   6.468   9.433
13533WAT     H140841   7.754   6.407   9.354
13533WAT     H240842   7.805   6.436   9.506
13534WAT      O40843   6.083   3.012   3.155
13534WAT     H140844   6.139   2.972   3.228
13534WAT     H240845   6.037   2.939   3.105
13535WAT      O40846   7.254   0.275   2.179
13535WAT     H140847   7.213   0.272   2.088
13535WAT     H240848   7.262   0.182   2.215
13536WAT      O40849   5.130   3.091   0.960
13536WAT     H140850   5.127   3.020   0.890
13536WAT     H240851   5.222   3.098   0.998
13537WAT      O40852   4.940   1.982   5.749
13537WAT     H140853   4.966   2.076   5.771
13537WAT     H240854   4.981   1.919   5.816
13538WAT      O40855   7.647   8.263   1.830
13538WAT     H140856   7.690   8.294   1.745
13538WAT     H240857   7.604   8.341   1.876
13539WAT      O40858   4.163   5.854   5.400
13539WAT     H140859   4.251   5.808   5.409
13539WAT     H240860   4.176   5.953   5.406
13540WAT      O40861   6.828   8.193   3.647
13540WAT     H140862   6.917   8.150   3.637
13540WAT     H240863   6.829   8.283   3.605
13541WAT      O40864   4.457   7.158   9.749
13541WAT     H140865   4.530   7.193   9.807
13541WAT     H240866   4.379   7.221   9.751
13542WAT      O40867   7.124   4.515   3.828
13542WAT     H140868   7.057   4.484   3.896
13542WAT     H240869   7.138   4.613   3.837
13543WAT      O40870   0.812   9.720   5.913
13543WAT     H140871   0.885   9.660   5.945
13543WAT     H240872   0.835   9.756   5.823
13544WAT      O40873   4.084   2.117   5.205
13544WAT     H140874   4.067   2.213   5.180
13544WAT     H240875   4.178   2.093   5.178
13545WAT      O40876   1.273   3.053   9.271
13545WAT     H140877   1.357   3.095   9.237
13545WAT     H240878   1.208   3.042   9.195
13546WAT      O40879   8.337   0.680   5.317
13546WAT     H140880   8.330   0.637   5.226
13546WAT     H240881   8.405   0.631   5.371
13547WAT      O40882   4.760   3.932   0.624
13547WAT     H140883   4.693   3.861   0.600
13547WAT     H240884   4.756   3.949   0.723
13548WAT      O40885   9.658   0.761   3.354
13548WAT     H140886   9.685   0.754   3.450
13548WAT     H240887   9.575   0.706   3.339
13549WAT      O40888   7.599   4.469   0.874
13549WAT     H140889   7.585   4.473   0.775
13549WAT     H240890   7.517   4.431   0.918
13550WAT      O40891   5.000   9.447   9.411
13550WAT     H140892   5.079   9.387   9.406
13550WAT     H240893   4.926   9.401   9.460
13551WAT      O40894   9.860   1.007   6.739
13551WAT     H140895   9.920   0.962   6.672
13551WAT     H240896   9.916   1.049   6.810
13552WAT      O40897   2.965   1.428   0.545
13552WAT     H140898   2.939   1.524   0.534
13552WAT     H240899   3.017   1.417   0.630
13553WAT      O40900   1.018   3.326   9.152
13553WAT     H140901   1.010   3.417   9.192
13553WAT     H240902   1.034   3.259   9.225
13554WAT      O40903   6.571   7.359   1.165
13554WAT     H140904   6.544   7.446   1.207
13554WAT     H240905   6.596   7.375   1.070
13555WAT      O40906   7.251   6.033   9.670
13555WAT     H140907   7.160   6.056   9.702
13555WAT     H240908   7.287   6.106   9.612
13556WAT      O40909   0.178   9.686   3.720
13556WAT     H140910   0.238   9.609   3.702
13556WAT     H240911   0.230   9.771   3.717
13557WAT      O40912   5.475   7.204   2.995
13557WAT     H140913   5.532   7.269   3.044
13557WAT     H240914   5.382   7.207   3.031
13558WAT      O40915   4.732   8.612   2.028
13558WAT     H140916   4.706   8.533   2.082
13558WAT     H240917   4.650   8.657   1.992
13559WAT      O40918   1.648   1.474   8.543
13559WAT     H140919   1.550   1.474   8.522
13559WAT     H240920   1.686   1.565   8.525
13560WAT      O40921   0.429   9.552   7.283
13560WAT     H140922   0.480   9.518   7.204
13560WAT     H240923   0.471   9.637   7.316
13561WAT      O40924   0.468   5.281   9.032
13561WAT     H140925   0.411   5.237   8.963
13561WAT     H240926   0.564   5.275   9.005
13562WAT      O40927   6.896   9.282   3.162
13562WAT     H140928   6.993   9.259   3.169
13562WAT     H240929   6.848   9.243   3.240
13563WAT      O40930   7.614   1.686   3.738
13563WAT     H140931   7.639   1.773   3.779
13563WAT     H240932   7.544   1.641   3.794
13564WAT      O40933   7.743   3.813   8.335
13564WAT     H140934   7.746   3.883   8.406
13564WAT     H240935   7.667   3.832   8.273
13565WAT      O40936   9.831   2.166   2.106
13565WAT     H140937   9.776   2.105   2.049
13565WAT     H240938   9.795   2.167   2.199
13566WAT      O40939   6.116   7.121   8.270
13566WAT     H140940   6.192   7.122   8.335
13566WAT     H240941   6.057   7.200   8.286
13567WAT      O40942   4.622   5.298   8.065
13567WAT     H140943   4.568   5.367   8.016
13567WAT     H240944   4.719   5.313   8.047
13568WAT      O40945   7.049   5.346   9.453
13568WAT     H140946   7.137   5.379   9.419
13568WAT     H240947   7.001   5.296   9.381
13569WAT      O40948   7.983   4.274   3.446
13569WAT     H140949   8.034   4.241   3.526
13569WAT     H240950   8.001   4.214   3.368
13570WAT      O40951   9.499   3.894   0.467
13570WAT     H140952   9.404   3.903   0.437
13570WAT     H240953   9.560   3.918   0.392
13571WAT      O40954   2.391   3.589   2.494
13571WAT     H140955   2.329   3.667   2.485
13571WAT     H240956   2.475   3.607   2.444
13572WAT      O40957   5.799   3.126   6.551
13572WAT     H140958   5.816   3.217   6.591
13572WAT     H240959   5.820   3.056   6.618
13573WAT      O40960   2.926   0.948   8.612
13573WAT     H140961   2.872   0.864   8.620
13573WAT     H240962   2.866   1.027   8.622
13574WAT      O40963   8.637   5.194   8.650
13574WAT     H140964   8.726   5.159   8.620
13574WAT     H240965   8.610   5.149   8.735
13575WAT      O40966   9.641   5.056   6.617
13575WAT     H140967   9.560   5.060   6.558
13575WAT     H240968   9.660   4.962   6.642
13576WAT      O40969   9.443   6.038   5.997
13576WAT     H140970   9.460   5.943   6.019
13576WAT     H240971   9.359   6.045   5.942
13577WAT      O40972   4.273   5.591   1.121
13577WAT     H140973   4.254   5.589   1.023
13577WAT     H240974   4.339   5.520   1.144
13578WAT      O40975   0.652   0.885   4.461
13578WAT     H140976   0.712   0.875   4.381
13578WAT     H240977   0.558   0.900   4.430
13579WAT      O40978   1.816   0.341   8.890
13579WAT     H140979   1.847   0.325   8.796
13579WAT     H240980   1.733   0.289   8.907
13580WAT      O40981   1.992   9.625   6.017
13580WAT     H140982   1.967   9.528   6.027
13580WAT     H240983   2.066   9.646   6.081
13581WAT      O40984   3.441   5.187   3.315
13581WAT     H140985   3.494   5.237   3.247
13581WAT     H240986   3.345   5.185   3.287
13582WAT      O40987   5.330   9.722   2.325
13582WAT     H140988   5.328   9.794   2.395
13582WAT     H240989   5.335   9.764   2.235
13583WAT      O40990   2.886   9.081   4.835
13583WAT     H140991   2.824   9.142   4.785
13583WAT     H240992   2.977   9.085   4.793
13584WAT      O40993   8.873   4.198   4.772
13584WAT     H140994   8.813   4.133   4.819
13584WAT     H240995   8.847   4.203   4.676
13585WAT      O40996   2.872   2.904   0.896
13585WAT     H140997   2.868   2.946   0.987
13585WAT     H240998   2.871   2.805   0.905
13586WAT      O40999   5.482   8.506   7.862
13586WAT     H141000   5.554   8.439   7.878
13586WAT     H241001   5.506   8.563   7.783
13587WAT      O41002   8.627   2.908   6.411
13587WAT     H141003   8.543   2.855   6.400
13587WAT     H241004   8.698   2.850   6.450
13588WAT      O41005   9.248   9.840   9.117
13588WAT     H141006   9.258   9.745   9.089
13588WAT     H241007   9.154   9.871   9.098
13589WAT      O41008   5.785   4.203   0.647
13589WAT     H141009   5.857   4.250   0.597
13589WAT     H241010   5.698   4.251   0.633
13590WAT      O41011   3.723   3.466   2.210
13590WAT     H141012   3.770   3.554   2.199
13590WAT     H241013   3.785   3.392   2.185
13591WAT      O41014   2.650   8.749   4.267
13591WAT     H141015   2.655   8.792   4.177
13591WAT     H241016   2.733   8.771   4.319
13592WAT      O41017   6.869   7.205   4.126
13592WAT     H141018   6.865   7.144   4.047
13592WAT     H241019   6.795   7.271   4.121
13593WAT      O41020   7.215   6.231   0.081
13593WAT     H141021   7.158   6.175   0.021
13593WAT     H241022   7.308   6.236   0.043
13594WAT      O41023   8.783   6.415   4.736
13594WAT     H141024   8.700   6.427   4.790
13594WAT     H241025   8.759   6.404   4.640
13595WAT      O41026   2.588   4.708   7.347
13595WAT     H141027   2.601   4.807   7.349
13595WAT     H241028   2.575   4.675   7.441
13596WAT      O41029   6.918   1.135   5.345
13596WAT     H141030   6.962   1.062   5.293
13596WAT     H241031   6.846   1.096   5.402
13597WAT      O41032   3.280   3.118   5.863
13597WAT     H141033   3.196   3.082   5.903
13597WAT     H241034   3.279   3.218   5.868
13598WAT      O41035   5.341   9.348   2.581
13598WAT     H141036   5.402   9.297   2.642
13598WAT     H241037   5.395   9.412   2.527
13599WAT      O41038   2.168   8.336   0.501
13599WAT     H141039   2.163   8.398   0.423
13599WAT     H241040   2.123   8.249   0.478
13600WAT      O41041   7.680   5.292   2.765
13600WAT     H141042   7.605   5.226   2.774
13600WAT     H241043   7.718   5.288   2.673
13601WAT      O41044   4.788   0.631   6.374
13601WAT     H141045   4.703   0.645   6.323
13601WAT     H241046   4.768   0.632   6.472
13602WAT      O41047   5.587   7.611   4.851
13602WAT     H141048   5.648   7.584   4.926
13602WAT     H241049   5.526   7.535   4.829
13603WAT      O41050   0.126   3.604   3.150
13603WAT     H141051   0.136   3.571   3.056
13603WAT     H241052   0.105   3.527   3.210
13604WAT      O41053   0.158   4.969   6.850
13604WAT     H141054   0.189   4.930   6.763
13604WAT     H241055   0.082   4.914   6.885
13605WAT      O41056   8.907   0.236   2.512
13605WAT     H141057   8.977   0.212   2.579
13605WAT     H241058   8.854   0.314   2.546
13606WAT      O41059   8.780   1.612   5.416
13606WAT     H141060   8.706   1.612   5.484
13606WAT     H241061   8.817   1.520   5.407
13607WAT      O41062   4.811   7.788   5.019
13607WAT     H141063   4.876   7.848   5.066
13607WAT     H241064   4.861   7.722   4.963
13608WAT      O41065   2.393   7.606   6.761
13608WAT     H141066   2.439   7.580   6.676
13608WAT     H241067   2.342   7.691   6.746
13609WAT      O41068   8.752   1.466   8.872
13609WAT     H141069   8.678   1.496   8.811
13609WAT     H241070   8.807   1.545   8.898
13610WAT      O41071   5.041   9.817   5.862
13610WAT     H141072   4.995   9.729   5.869
13610WAT     H241073   5.134   9.804   5.829
13611WAT      O41074   4.564   6.059   0.831
13611WAT     H141075   4.576   6.156   0.854
13611WAT     H241076   4.547   6.050   0.733
13612WAT      O41077   5.021   6.724   7.973
13612WAT     H141078   4.935   6.760   7.937
13612WAT     H241079   5.092   6.794   7.964
13613WAT      O41080   2.742   6.814   2.995
13613WAT     H141081   2.819   6.877   2.985
13613WAT     H241082   2.656   6.861   2.976
13614WAT      O41083   9.657   2.804   8.286
13614WAT     H141084   9.699   2.741   8.220
13614WAT     H241085   9.691   2.784   8.377
13615WAT      O41086   3.450   2.604   9.380
13615WAT     H141087   3.439   2.531   9.448
13615WAT     H241088   3.539   2.648   9.392
13616WAT      O41089   9.882   5.538   5.919
13616WAT     H141090   9.922   5.576   6.003
13616WAT     H241091   9.866   5.611   5.853
13617WAT      O41092   2.231   5.420   3.856
13617WAT     H141093   2.261   5.354   3.788
13617WAT     H241094   2.190   5.371   3.934
13618WAT      O41095   9.158   5.849   0.077
13618WAT     H141096   9.251   5.833   0.046
13618WAT     H241097   9.125   5.935   0.039
13619WAT      O41098   1.741   5.434   7.686
13619WAT     H141099   1.690   5.388   7.758
13619WAT     H241100   1.679   5.494   7.635
13620WAT      O41101   3.088   5.888   0.344
13620WAT     H141102   3.037   5.905   0.259
13620WAT     H241103   3.056   5.804   0.386
13621WAT      O41104   3.139   0.005   5.553
13621WAT     H141105   3.050   0.003   5.598
13621WAT     H241106   3.211  -0.016   5.619
13622WAT      O41107   1.345   6.417   5.397
13622WAT     H141108   1.371   6.457   5.309
13622WAT     H241109   1.420   6.359   5.431
13623WAT      O41110   8.215   4.729   5.787
13623WAT     H141111   8.223   4.630   5.778
13623WAT     H241112   8.223   4.773   5.697
13624WAT      O41113   0.693   0.137   6.986
13624WAT     H141114   0.646   0.081   6.917
13624WAT     H241115   0.792   0.131   6.973
13625WAT      O41116   8.392   9.713   9.245
13625WAT     H141117   8.474   9.723   9.189
13625WAT     H241118   8.404   9.636   9.309
13626WAT      O41119   1.935   6.563   8.022
13626WAT     H141120   1.940   6.600   8.114
13626WAT     H241121   1.898   6.632   7.960
13627WAT      O41122   6.746   3.910   3.585
13627WAT     H141123   6.815   3.979   3.607
13627WAT     H241124   6.791   3.823   3.566
13628WAT      O41125   3.079   3.497   2.093
13628WAT     H141126   3.094   3.453   2.182
13628WAT     H241127   3.153   3.472   2.031
13629WAT      O41128   4.736   4.397   2.311
13629WAT     H141129   4.733   4.403   2.211
13629WAT     H241130   4.820   4.350   2.339
13630WAT      O41131   5.729   2.588   3.672
13630WAT     H141132   5.816   2.539   3.675
13630WAT     H241133   5.733   2.667   3.734
13631WAT      O41134   5.499   8.610   5.607
13631WAT     H141135   5.477   8.600   5.704
13631WAT     H241136   5.459   8.694   5.572
13632WAT      O41137   0.256   7.810   7.800
13632WAT     H141138   0.331   7.875   7.782
13632WAT     H241139   0.251   7.791   7.898
13633WAT      O41140   3.601   9.263   1.871
13633WAT     H141141   3.562   9.319   1.944
13633WAT     H241142   3.701   9.272   1.872
13634WAT      O41143   1.142   1.461   1.759
13634WAT     H141144   1.135   1.545   1.813
13634WAT     H241145   1.087   1.470   1.676
13635WAT      O41146   9.236   1.974   6.547
13635WAT     H141147   9.251   2.069   6.573
13635WAT     H241148   9.276   1.957   6.457
13636WAT      O41149   7.288   9.276   7.410
13636WAT     H141150   7.326   9.268   7.502
13636WAT     H241151   7.210   9.339   7.411
13637WAT      O41152   3.546   4.654   3.884
13637WAT     H141153   3.622   4.698   3.931
13637WAT     H241154   3.528   4.703   3.798
13638WAT      O41155   2.880   2.481   7.911
13638WAT     H141156   2.802   2.466   7.972
13638WAT     H241157   2.965   2.467   7.962
13639WAT      O41158   1.633   2.957   3.509
13639WAT     H141159   1.701   2.923   3.574
13639WAT     H241160   1.572   2.882   3.484
13640WAT      O41161   2.945   8.618   2.716
13640WAT     H141162   3.003   8.577   2.646
13640WAT     H241163   2.904   8.702   2.682
13641WAT      O41164   4.095   6.768   6.823
13641WAT     H141165   4.087   6.781   6.724
13641WAT     H241166   4.177   6.715   6.843
13642WAT      O41167   4.536   7.475   1.901
13642WAT     H141168   4.538   7.547   1.970
13642WAT     H241169   4.570   7.390   1.941
13643WAT      O41170   9.002   0.910   8.880
13643WAT     H141171   9.063   0.862   8.942
13643WAT     H241172   8.965   0.991   8.925
13644WAT      O41173   2.607   8.021   0.399
13644WAT     H141174   2.689   8.079   0.399
13644WAT     H241175   2.614   7.953   0.326
13645WAT      O41176   5.466   8.916   3.062
13645WAT     H141177   5.489   8.824   3.031
13645WAT     H241178   5.367   8.920   3.081
13646WAT      O41179   8.063   6.125   2.574
13646WAT     H141180   8.021   6.109   2.664
13646WAT     H241181   8.121   6.206   2.579
13647WAT      O41182   2.942   7.445   5.294
13647WAT     H141183   2.857   7.435   5.346
13647WAT     H241184   2.948   7.539   5.260
13648WAT      O41185   5.459   2.460   3.306
13648WAT     H141186   5.443   2.558   3.311
13648WAT     H241187   5.371   2.412   3.311
13649WAT      O41188   5.100   3.623   8.537
13649WAT     H141189   5.170   3.669   8.592
13649WAT     H241190   5.120   3.637   8.440
13650WAT      O41191   6.320   8.391   5.454
13650WAT     H141192   6.277   8.301   5.445
13650WAT     H241193   6.307   8.443   5.369
13651WAT      O41194   1.923   3.827   3.293
13651WAT     H141195   2.007   3.881   3.294
13651WAT     H241196   1.845   3.886   3.272
13652WAT      O41197   0.334   0.529   0.559
13652WAT     H141198   0.378   0.439   0.556
13652WAT     H241199   0.387   0.590   0.617
13653WAT      O41200   6.285   2.962   0.844
13653WAT     H141201   6.204   2.919   0.884
13653WAT     H241202   6.333   2.897   0.786
13654WAT      O41203   1.942   7.232   1.342
13654WAT     H141204   1.926   7.263   1.435
13654WAT     H241205   2.036   7.197   1.334
13655WAT      O41206   5.681   0.851   3.832
13655WAT     H141207   5.706   0.763   3.793
13655WAT     H241208   5.731   0.866   3.917
13656WAT      O41209   1.934   3.428   3.983
13656WAT     H141210   1.935   3.421   4.082
13656WAT     H241211   1.840   3.423   3.949
13657WAT      O41212   9.827   7.878   0.311
13657WAT     H141213   9.760   7.843   0.246
13657WAT     H241214   9.796   7.966   0.346
13658WAT      O41215   3.504   5.163   1.819
13658WAT     H141216   3.519   5.218   1.901
13658WAT     H241217   3.418   5.115   1.827
13659WAT      O41218   0.693   0.049   9.440
13659WAT     H141219   0.601   0.032   9.404
13659WAT     H241220   0.691   0.132   9.496
13660WAT      O41221   6.551   1.101   7.622
13660WAT     H141222   6.541   1.025   7.558
13660WAT     H241223   6.647   1.125   7.632
13661WAT      O41224   1.072   8.822   4.385
13661WAT     H141225   1.035   8.903   4.340
13661WAT     H241226   1.085   8.841   4.482
13662WAT      O41227   1.375   5.285   4.157
13662WAT     H141228   1.343   5.230   4.234
13662WAT     H241229   1.475   5.285   4.156
13663WAT      O41230   5.529   1.310   0.958
13663WAT     H141231   5.471   1.384   0.924
13663WAT     H241232   5.487   1.222   0.937
13664WAT      O41233   8.133   7.486   1.990
13664WAT     H141234   8.075   7.563   1.966
13664WAT     H241235   8.093   7.436   2.067
13665WAT      O41236   0.116   4.625   4.507
13665WAT     H141237   0.131   4.528   4.489
13665WAT     H241238   0.188   4.658   4.568
13666WAT      O41239   8.222   5.934   3.514
13666WAT     H141240   8.317   5.943   3.544
13666WAT     H241241   8.182   5.852   3.555
13667WAT      O41242   3.048   0.877   0.790
13667WAT     H141243   3.050   0.974   0.766
13667WAT     H241244   3.138   0.837   0.775
13668WAT      O41245   5.801   0.288   6.622
13668WAT     H141246   5.729   0.266   6.555
13668WAT     H241247   5.890   0.287   6.577
13669WAT      O41248   9.855   5.025   5.733
13669WAT     H141249   9.837   4.962   5.808
13669WAT     H241250   9.848   5.119   5.766
13670WAT      O41251   4.980   7.501   7.766
13670WAT     H141252   4.913   7.435   7.799
13670WAT     H241253   4.934   7.587   7.745
13671WAT      O41254   7.014   5.360   1.741
13671WAT     H141255   6.945   5.354   1.669
13671WAT     H241256   7.059   5.450   1.736
13672WAT      O41257   2.582   2.271   5.321
13672WAT     H141258   2.483   2.280   5.321
13672WAT     H241259   2.613   2.240   5.411
13673WAT      O41260   3.736   9.392   8.155
13673WAT     H141261   3.791   9.444   8.090
13673WAT     H241262   3.754   9.294   8.144
13674WAT      O41263   5.588   8.297   0.600
13674WAT     H141264   5.604   8.305   0.699
13674WAT     H241265   5.498   8.335   0.579
13675WAT      O41266   0.384   1.514   2.793
13675WAT     H141267   0.470   1.465   2.782
13675WAT     H241268   0.388   1.570   2.876
13676WAT      O41269   1.080   9.099   0.539
13676WAT     H141270   1.165   9.070   0.496
13676WAT     H241271   1.078   9.069   0.634
13677WAT      O41272   1.932   8.349   0.146
13677WAT     H141273   1.917   8.296   0.062
13677WAT     H241274   1.844   8.361   0.193
13678WAT      O41275   9.529   9.659   9.116
13678WAT     H141276   9.567   9.689   9.029
13678WAT     H241277   9.548   9.727   9.186
13679WAT      O41278   3.634   1.646   7.128
13679WAT     H141279   3.555   1.645   7.066
13679WAT     H241280   3.613   1.705   7.206
13680WAT      O41281   2.730   8.937   1.321
13680WAT     H141282   2.740   8.885   1.236
13680WAT     H241283   2.765   8.882   1.397
13681WAT      O41284   9.807   6.980   6.885
13681WAT     H141285   9.885   6.939   6.838
13681WAT     H241286   9.762   7.045   6.824
13682WAT      O41287   7.912   3.472   0.806
13682WAT     H141288   7.986   3.413   0.838
13682WAT     H241289   7.915   3.560   0.853
13683WAT      O41290   3.650   0.544   5.511
13683WAT     H141291   3.564   0.565   5.465
13683WAT     H241292   3.656   0.445   5.526
13684WAT      O41293   4.340   6.429   8.478
13684WAT     H141294   4.338   6.359   8.407
13684WAT     H241295   4.386   6.510   8.443
13685WAT      O41296   6.539   6.852   1.570
13685WAT     H141297   6.505   6.764   1.537
13685WAT     H241298   6.543   6.917   1.494
13686WAT      O41299   5.970   4.233   7.931
13686WAT     H141300   5.919   4.299   7.876
13686WAT     H241301   6.059   4.271   7.954
13687WAT      O41302   1.620   9.600   3.187
13687WAT     H141303   1.534   9.644   3.213
13687WAT     H241304   1.696   9.644   3.235
13688WAT      O41305   7.107   9.338   9.055
13688WAT     H141306   7.143   9.297   9.139
13688WAT     H241307   7.104   9.437   9.064
13689WAT      O41308   5.100   2.029   2.426
13689WAT     H141309   5.014   2.080   2.424
13689WAT     H241310   5.170   2.079   2.376
13690WAT      O41311   5.168   3.784   5.731
13690WAT     H141312   5.093   3.847   5.715
13690WAT     H241313   5.154   3.735   5.817
13691WAT      O41314   8.416   2.582   8.266
13691WAT     H141315   8.435   2.680   8.271
13691WAT     H241316   8.392   2.558   8.172
13692WAT      O41317   5.922   3.950   1.977
13692WAT     H141318   5.917   4.047   1.956
13692WAT     H241319   5.937   3.898   1.892
13693WAT      O41320   6.428   3.403   5.136
13693WAT     H141321   6.380   3.329   5.183
13693WAT     H241322   6.373   3.487   5.141
13694WAT      O41323   7.200   5.624   5.202
13694WAT     H141324   7.128   5.680   5.162
13694WAT     H241325   7.176   5.601   5.296
13695WAT      O41326   6.930   0.033   9.747
13695WAT     H141327   6.964   0.114   9.794
13695WAT     H241328   6.931   0.048   9.648
13696WAT      O41329   5.115   5.597   4.328
13696WAT     H141330   5.161   5.684   4.348
13696WAT     H241331   5.162   5.523   4.376
13697WAT      O41332   4.289   9.159   9.117
13697WAT     H141333   4.212   9.098   9.100
13697WAT     H241334   4.364   9.107   9.158
13698WAT      O41335   5.145   6.016   0.747
13698WAT     H141336   5.242   5.997   0.730
13698WAT     H241337   5.132   6.115   0.755
13699WAT      O41338   6.076   7.213   7.789
13699WAT     H141339   6.044   7.306   7.769
13699WAT     H241340   6.040   7.184   7.877
13700WAT      O41341   4.961   0.680   9.314
13700WAT     H141342   4.928   0.766   9.275
13700WAT     H241343   5.053   0.661   9.281
13701WAT      O41344   9.488   6.010   2.584
13701WAT     H141345   9.512   5.955   2.505
13701WAT     H241346   9.411   6.070   2.561
13702WAT      O41347   1.978   9.002   4.333
13702WAT     H141348   2.062   8.972   4.289
13702WAT     H241349   1.983   8.985   4.431
13703WAT      O41350   1.667   6.226   7.246
13703WAT     H141351   1.705   6.169   7.319
13703WAT     H241352   1.567   6.224   7.251
13704WAT      O41353   2.863   1.275   4.097
13704WAT     H141354   2.908   1.316   4.018
13704WAT     H241355   2.931   1.252   4.167
13705WAT      O41356   5.620   4.095   5.651
13705WAT     H141357   5.625   4.040   5.568
13705WAT     H241358   5.701   4.153   5.659
13706WAT      O41359   0.891   1.010   3.543
13706WAT     H141360   0.813   0.969   3.495
13706WAT     H241361   0.960   0.939   3.560
13707WAT      O41362   3.976   2.707   5.606
13707WAT     H141363   3.883   2.707   5.641
13707WAT     H241364   4.040   2.709   5.683
13708WAT      O41365   7.848   9.007   1.144
13708WAT     H141366   7.849   8.979   1.049
13708WAT     H241367   7.923   9.071   1.162
13709WAT      O41368   2.895   0.018   8.872
13709WAT     H141369   2.926   0.108   8.905
13709WAT     H241370   2.835  -0.023   8.940
13710WAT      O41371   2.528   5.919   8.452
13710WAT     H141372   2.486   5.965   8.531
13710WAT     H241373   2.600   5.977   8.414
13711WAT      O41374   3.643   6.782   9.530
13711WAT     H141375   3.710   6.857   9.534
13711WAT     H241376   3.625   6.749   9.622
13712WAT      O41377   1.466   5.862   5.628
13712WAT     H141378   1.412   5.921   5.568
13712WAT     H241379   1.513   5.793   5.573
13713WAT      O41380   4.380   0.224   6.841
13713WAT     H141381   4.369   0.308   6.787
13713WAT     H241382   4.364   0.145   6.781
13714WAT      O41383   0.314   0.206   2.060
13714WAT     H141384   0.386   0.137   2.065
13714WAT     H241385   0.355   0.297   2.051
13715WAT      O41386   8.267   8.106   4.175
13715WAT     H141387   8.283   8.183   4.236
13715WAT     H241388   8.343   8.042   4.183
13716WAT      O41389   8.590   2.393   4.695
13716WAT     H141390   8.501   2.426   4.726
13716WAT     H241391   8.651   2.471   4.679
13717WAT      O41392   5.834   6.345   7.418
13717WAT     H141393   5.784   6.259   7.435
13717WAT     H241394   5.905   6.356   7.487
13718WAT      O41395   9.457   1.585   0.896
13718WAT     H141396   9.400   1.519   0.946
13718WAT     H241397   9.448   1.568   0.798
13719WAT      O41398   8.532   0.064   5.602
13719WAT     H141399   8.548   0.047   5.505
13719WAT     H241400   8.433   0.069   5.619
13720WAT      O41401   7.262   0.002   3.100
13720WAT     H141402   7.311  -0.001   3.013
13720WAT     H241403   7.196   0.077   3.099
13721WAT      O41404   9.387   0.426   1.286
13721WAT     H141405   9.439   0.340   1.288
13721WAT     H241406   9.341   0.434   1.198
13722WAT      O41407   2.583   3.934   6.416
13722WAT     H141408   2.683   3.933   6.411
13722WAT     H241409   2.549   4.023   6.387
13723WAT      O41410   0.849   1.413   9.203
13723WAT     H141411   0.876   1.369   9.288
13723WAT     H241412   0.816   1.345   9.139
13724WAT      O41413   2.515   7.735   8.555
13724WAT     H141414   2.603   7.779   8.571
13724WAT     H241415   2.456   7.747   8.635
13725WAT      O41416   6.568   7.245   9.085
13725WAT     H141417   6.558   7.240   8.985
13725WAT     H241418   6.478   7.239   9.128
13726WAT      O41419   4.104   3.616   9.425
13726WAT     H141420   4.033   3.616   9.355
13726WAT     H241421   4.061   3.614   9.515
13727WAT      O41422   4.603   1.702   6.957
13727WAT     H141423   4.581   1.724   6.861
13727WAT     H241424   4.595   1.603   6.970
13728WAT      O41425   2.222   2.217   0.574
13728WAT     H141426   2.181   2.221   0.483
13728WAT     H241427   2.254   2.124   0.592
13729WAT      O41428   8.809   2.574   2.981
13729WAT     H141429   8.892   2.518   2.977
13729WAT     H241430   8.731   2.519   2.954
13730WAT      O41431   5.612   3.003   5.812
13730WAT     H141432   5.694   2.984   5.758
13730WAT     H241433   5.607   2.939   5.888
13731WAT      O41434   5.926   6.344   0.523
13731WAT     H141435   5.853   6.330   0.590
13731WAT     H241436   5.894   6.406   0.452
13732WAT      O41437   9.098   5.174   5.140
13732WAT     H141438   9.114   5.083   5.178
13732WAT     H241439   9.088   5.240   5.214
13733WAT      O41440   6.684   9.229   8.587
13733WAT     H141441   6.777   9.262   8.570
13733WAT     H241442   6.628   9.304   8.622
13734WAT      O41443   3.285   6.273   2.556
13734WAT     H141444   3.242   6.355   2.519
13734WAT     H241445   3.217   6.216   2.602
13735WAT      O41446   3.715   7.609   6.976
13735WAT     H141447   3.618   7.604   6.952
13735WAT     H241448   3.763   7.664   6.907
13736WAT      O41449   7.962   0.942   1.615
13736WAT     H141450   7.998   0.987   1.534
13736WAT     H241451   7.980   0.998   1.696
13737WAT      O41452   7.312   6.944   1.430
13737WAT     H141453   7.276   6.915   1.342
13737WAT     H241454   7.407   6.975   1.420
13738WAT      O41455   5.776   0.126   5.895
13738WAT     H141456   5.861   0.129   5.842
13738WAT     H241457   5.738   0.218   5.901
13739WAT      O41458   2.273   4.518   1.324
13739WAT     H141459   2.231   4.531   1.234
13739WAT     H241460   2.327   4.434   1.323
13740WAT      O41461   3.498   7.362   8.995
13740WAT     H141462   3.492   7.293   8.923
13740WAT     H241463   3.437   7.439   8.972
13741WAT      O41464   9.631   4.505   4.287
13741WAT     H141465   9.615   4.529   4.383
13741WAT     H241466   9.697   4.430   4.281
13742WAT      O41467   7.895   6.992   4.181
13742WAT     H141468   7.884   7.007   4.082
13742WAT     H241469   7.845   7.063   4.230
13743WAT      O41470   4.182   7.370   0.914
13743WAT     H141471   4.280   7.388   0.901
13743WAT     H241472   4.153   7.296   0.853
13744WAT      O41473   6.121   6.569   5.611
13744WAT     H141474   6.075   6.580   5.699
13744WAT     H241475   6.054   6.545   5.541
13745WAT      O41476   9.095   4.357   6.310
13745WAT     H141477   9.048   4.355   6.398
13745WAT     H241478   9.028   4.370   6.236
13746WAT      O41479   8.484   5.001   4.812
13746WAT     H141480   8.543   5.077   4.784
13746WAT     H241481   8.529   4.914   4.789
13747WAT      O41482   6.314   0.557   2.269
13747WAT     H141483   6.233   0.615   2.275
13747WAT     H241484   6.354   0.547   2.360
13748WAT      O41485   5.755   8.729   5.855
13748WAT     H141486   5.682   8.796   5.868
13748WAT     H241487   5.753   8.662   5.929
13749WAT      O41488   2.498   5.654   5.528
13749WAT     H141489   2.526   5.560   5.543
13749WAT     H241490   2.575   5.715   5.548
13750WAT      O41491   9.191   1.171   1.966
13750WAT     H141492   9.255   1.105   1.927
13750WAT     H241493   9.191   1.162   2.066
13751WAT      O41494   4.154   0.279   4.023
13751WAT     H141495   4.166   0.290   3.924
13751WAT     H241496   4.191   0.360   4.070
13752WAT      O41497   6.825   1.840   3.801
13752WAT     H141498   6.907   1.785   3.786
13752WAT     H241499   6.752   1.807   3.741
13753WAT      O41500   4.808   3.625   9.276
13753WAT     H141501   4.870   3.689   9.230
13753WAT     H241502   4.735   3.599   9.213
13754WAT      O41503   6.063   5.131   7.973
13754WAT     H141504   6.031   5.168   8.060
13754WAT     H241505   6.052   5.200   7.901
13755WAT      O41506   5.328   8.738   5.920
13755WAT     H141507   5.234   8.713   5.894
13755WAT     H241508   5.380   8.655   5.940
13756WAT      O41509   3.377   9.686   3.637
13756WAT     H141510   3.393   9.664   3.540
13756WAT     H241511   3.404   9.781   3.654
13757WAT      O41512   1.193   7.144   6.232
13757WAT     H141513   1.171   7.119   6.138
13757WAT     H241514   1.109   7.158   6.284
13758WAT      O41515   0.473   5.584   6.182
13758WAT     H141516   0.565   5.600   6.145
13758WAT     H241517   0.468   5.622   6.274
13759WAT      O41518   0.966   4.327   0.823
13759WAT     H141519   1.031   4.306   0.750
13759WAT     H241520   1.015   4.335   0.910
13760WAT      O41521   1.412   1.777   6.384
13760WAT     H141522   1.376   1.871   6.385
13760WAT     H241523   1.495   1.772   6.439
13761WAT      O41524   2.511   0.852   8.121
13761WAT     H141525   2.542   0.782   8.057
13761WAT     H241526   2.589   0.883   8.176
13762WAT      O41527   5.180   7.745   6.962
13762WAT     H141528   5.086   7.728   6.933
13762WAT     H241529   5.238   7.668   6.934
13763WAT      O41530   9.069   8.831   4.162
13763WAT     H141531   9.011   8.806   4.239
13763WAT     H241532   9.164   8.837   4.191
13764WAT      O41533   6.179   9.806   2.242
13764WAT     H141534   6.122   9.812   2.324
13764WAT     H241535   6.216   9.714   2.234
13765WAT      O41536   6.349   4.417   9.650
13765WAT     H141537   6.268   4.475   9.648
13765WAT     H241538   6.430   4.473   9.671
13766WAT      O41539   9.627   9.535   6.974
13766WAT     H141540   9.696   9.603   6.998
13766WAT     H241541   9.586   9.558   6.886
13767WAT      O41542   9.704   4.245   5.046
13767WAT     H141543   9.752   4.324   5.083
13767WAT     H241544   9.610   4.242   5.082
13768WAT      O41545   4.147   1.699   7.434
13768WAT     H141546   4.116   1.783   7.388
13768WAT     H241547   4.068   1.646   7.465
13769WAT      O41548   0.397   6.143   1.534
13769WAT     H141549   0.322   6.079   1.547
13769WAT     H241550   0.367   6.218   1.474
13770WAT      O41551   7.369   6.688   3.554
13770WAT     H141552   7.344   6.761   3.490
13770WAT     H241553   7.465   6.663   3.541
13771WAT      O41554   7.077   9.521   4.064
13771WAT     H141555   7.094   9.620   4.068
13771WAT     H241556   7.005   9.497   4.129
13772WAT      O41557   4.737   6.046   8.230
13772WAT     H141558   4.710   6.023   8.137
13772WAT     H241559   4.835   6.033   8.241
13773WAT      O41560   5.733   6.468   5.894
13773WAT     H141561   5.679   6.496   5.973
13773WAT     H241562   5.707   6.375   5.868
13774WAT      O41563   4.522   4.008   5.412
13774WAT     H141564   4.599   3.966   5.364
13774WAT     H241565   4.483   3.942   5.477
13775WAT      O41566   4.965   1.452   9.666
13775WAT     H141567   4.997   1.529   9.721
13775WAT     H241568   4.901   1.397   9.720
13776WAT      O41569   0.827   6.975   5.934
13776WAT     H141570   0.745   6.925   5.961
13776WAT     H241571   0.803   7.042   5.863
13777WAT      O41572   8.249   1.916   5.208
13777WAT     H141573   8.287   1.932   5.117
13777WAT     H241574   8.162   1.963   5.216
13778WAT      O41575   9.444   7.162   1.899
13778WAT     H141576   9.492   7.076   1.882
13778WAT     H241577   9.370   7.147   1.965
13779WAT      O41578   1.037   7.867   5.290
13779WAT     H141579   0.955   7.826   5.331
13779WAT     H241580   1.104   7.886   5.362
13780WAT      O41581   5.629   7.395   1.964
13780WAT     H141582   5.609   7.345   2.049
13780WAT     H241583   5.682   7.477   1.985
13781WAT      O41584   5.861   3.248   3.923
13781WAT     H141585   5.781   3.300   3.953
13781WAT     H241586   5.907   3.296   3.848
13782WAT      O41587   8.904   5.000   7.558
13782WAT     H141588   8.995   4.988   7.597
13782WAT     H241589   8.868   5.090   7.584
13783WAT      O41590   9.554   6.347   6.846
13783WAT     H141591   9.584   6.433   6.804
13783WAT     H241592   9.547   6.360   6.945
13784WAT      O41593   4.219   1.029   8.733
13784WAT     H141594   4.135   1.026   8.678
13784WAT     H241595   4.252   0.936   8.749
13785WAT      O41596   4.417   6.684   0.044
13785WAT     H141597   4.416   6.630  -0.040
13785WAT     H241598   4.385   6.777   0.024
13786WAT      O41599   2.294   5.369   5.010
13786WAT     H141600   2.394   5.366   5.011
13786WAT     H241601   2.261   5.346   4.918
13787WAT      O41602   5.912   3.558   8.962
13787WAT     H141603   5.829   3.508   8.936
13787WAT     H241604   5.945   3.523   9.049
13788WAT      O41605   5.966   3.516   4.681
13788WAT     H141606   5.904   3.444   4.650
13788WAT     H241607   6.024   3.481   4.755
13789WAT      O41608   7.200   1.913   5.028
13789WAT     H141609   7.110   1.945   5.057
13789WAT     H241610   7.205   1.813   5.039
13790WAT      O41611   6.404   6.722   0.298
13790WAT     H141612   6.469   6.735   0.223
13790WAT     H241613   6.405   6.627   0.327
13791WAT      O41614   7.745   1.109   4.267
13791WAT     H141615   7.672   1.041   4.267
13791WAT     H241616   7.795   1.103   4.354
13792WAT      O41617   6.744   8.478   8.489
13792WAT     H141618   6.715   8.403   8.429
13792WAT     H241619   6.793   8.440   8.567
13793WAT      O41620   0.400   4.591   4.693
13793WAT     H141621   0.408   4.654   4.616
13793WAT     H241622   0.451   4.627   4.771
13794WAT      O41623   3.773   3.712   1.686
13794WAT     H141624   3.768   3.723   1.587
13794WAT     H241625   3.797   3.618   1.708
13795WAT      O41626   3.840   9.620   8.995
13795WAT     H141627   3.756   9.568   8.983
13795WAT     H241628   3.864   9.665   8.910
13796WAT      O41629   6.659   6.454   8.849
13796WAT     H141630   6.716   6.535   8.837
13796WAT     H241631   6.605   6.439   8.767
13797WAT      O41632   3.879   3.347   8.241
13797WAT     H141633   3.782   3.359   8.221
13797WAT     H241634   3.928   3.432   8.221
13798WAT      O41635   4.907   6.369   9.391
13798WAT     H141636   4.945   6.351   9.482
13798WAT     H241637   4.960   6.319   9.322
13799WAT      O41638   8.982   1.677   9.556
13799WAT     H141639   8.892   1.672   9.600
13799WAT     H241640   9.050   1.637   9.618
13800WAT      O41641   9.683   9.166   4.774
13800WAT     H141642   9.611   9.127   4.830
13800WAT     H241643   9.747   9.217   4.831
13801WAT      O41644   2.949   4.803   3.813
13801WAT     H141645   2.855   4.802   3.780
13801WAT     H241646   2.950   4.784   3.911
13802WAT      O41647   5.831   9.629   0.448
13802WAT     H141648   5.787   9.651   0.535
13802WAT     H241649   5.878   9.709   0.412
13803WAT      O41650   2.845   1.799   6.657
13803WAT     H141651   2.915   1.741   6.698
13803WAT     H241652   2.758   1.784   6.704
13804WAT      O41653   7.775   7.018   5.882
13804WAT     H141654   7.855   7.048   5.936
13804WAT     H241655   7.759   6.921   5.898
13805WAT      O41656   7.603   7.654   8.903
13805WAT     H141657   7.514   7.629   8.867
13805WAT     H241658   7.595   7.677   9.000
13806WAT      O41659   5.775   2.713   1.742
13806WAT     H141660   5.842   2.638   1.744
13806WAT     H241661   5.722   2.707   1.657
13807WAT      O41662   3.343   9.514   8.527
13807WAT     H141663   3.357   9.501   8.428
13807WAT     H241664   3.306   9.605   8.544
13808WAT      O41665   8.080   1.529   5.182
13808WAT     H141666   8.061   1.551   5.087
13808WAT     H241667   8.045   1.603   5.241
13809WAT      O41668   3.930   4.285   0.284
13809WAT     H141669   3.852   4.348   0.288
13809WAT     H241670   3.933   4.230   0.368
13810WAT      O41671   8.564   2.823   9.301
13810WAT     H141672   8.504   2.822   9.381
13810WAT     H241673   8.631   2.896   9.310
13811WAT      O41674   6.355   6.664   3.291
13811WAT     H141675   6.338   6.583   3.347
13811WAT     H241676   6.338   6.642   3.195
13812WAT      O41677   6.671   4.165   7.988
13812WAT     H141678   6.599   4.174   7.919
13812WAT     H241679   6.729   4.247   7.987
13813WAT      O41680   0.294   2.715   4.299
13813WAT     H141681   0.278   2.635   4.357
13813WAT     H241682   0.367   2.695   4.234
13814WAT      O41683   0.582   0.723   5.046
13814WAT     H141684   0.536   0.670   5.116
13814WAT     H241685   0.560   0.686   4.956
13815WAT      O41686   5.479   0.479   7.510
13815WAT     H141687   5.432   0.541   7.573
13815WAT     H241688   5.462   0.507   7.416
13816WAT      O41689   1.226   9.215   7.811
13816WAT     H141690   1.285   9.170   7.744
13816WAT     H241691   1.239   9.173   7.901
13817WAT      O41692   0.809   2.633   4.908
13817WAT     H141693   0.715   2.599   4.909
13817WAT     H241694   0.827   2.678   4.820
13818WAT      O41695   4.754   6.468   8.967
13818WAT     H141696   4.756   6.539   8.897
13818WAT     H241697   4.803   6.387   8.933
13819WAT      O41698   8.312   5.645   5.124
13819WAT     H141699   8.407   5.619   5.106
13819WAT     H241700   8.308   5.707   5.203
13820WAT      O41701   4.909   8.201   4.721
13820WAT     H141702   4.813   8.212   4.697
13820WAT     H241703   4.965   8.263   4.665
13821WAT      O41704   3.922   9.190   2.184
13821WAT     H141705   3.984   9.140   2.244
13821WAT     H241706   3.834   9.142   2.180
13822WAT      O41707   6.327   5.406   3.921
13822WAT     H141708   6.363   5.336   3.860
13822WAT     H241709   6.397   5.474   3.940
13823WAT      O41710   5.005   7.389   4.200
13823WAT     H141711   5.008   7.313   4.134
13823WAT     H241712   5.088   7.444   4.189
13824WAT      O41713   4.683   4.226   4.877
13824WAT     H141714   4.736   4.143   4.894
13824WAT     H241715   4.740   4.306   4.893
13825WAT      O41716   0.234   2.031   9.255
13825WAT     H141717   0.159   2.040   9.189
13825WAT     H241718   0.212   1.961   9.322
13826WAT      O41719   2.021   3.213   8.160
13826WAT     H141720   2.114   3.197   8.126
13826WAT     H241721   1.963   3.136   8.135
13827WAT      O41722   3.197   1.134   1.906
13827WAT     H141723   3.102   1.113   1.881
13827WAT     H241724   3.198   1.185   1.992
13828WAT      O41725   0.311   8.218   7.805
13828WAT     H141726   0.217   8.190   7.824
13828WAT     H241727   0.322   8.236   7.707
13829WAT      O41728   9.043   2.870   2.447
13829WAT     H141729   8.964   2.901   2.395
13829WAT     H241730   9.023   2.781   2.490
13830WAT      O41731   5.365   1.705   3.704
13830WAT     H141732   5.373   1.801   3.677
13830WAT     H241733   5.445   1.678   3.758
13831WAT      O41734   5.824   5.065   7.724
13831WAT     H141735   5.823   4.987   7.662
13831WAT     H241736   5.730   5.090   7.748
13832WAT      O41737   5.965   1.039   4.125
13832WAT     H141738   5.999   1.073   4.037
13832WAT     H241739   6.019   0.958   4.152
13833WAT      O41740   6.803   9.077   8.842
13833WAT     H141741   6.844   9.060   8.752
13833WAT     H241742   6.747   9.159   8.838
13834WAT      O41743   8.503   3.213   6.213
13834WAT     H141744   8.540   3.264   6.291
13834WAT     H241745   8.429   3.153   6.243
13835WAT      O41746   0.334   9.652   9.573
13835WAT     H141747   0.239   9.638   9.545
13835WAT     H241748   0.336   9.689   9.666
13836WAT      O41749   8.649   3.977   1.531
13836WAT     H141750   8.596   4.008   1.610
13836WAT     H241751   8.720   3.913   1.561
13837WAT      O41752   8.859   1.807   5.218
13837WAT     H141753   8.790   1.855   5.164
13837WAT     H241754   8.815   1.740   5.277
13838WAT      O41755   0.290   9.609   9.189
13838WAT     H141756   0.381   9.568   9.178
13838WAT     H241757   0.259   9.645   9.102
13839WAT      O41758   3.665   2.054   0.184
13839WAT     H141759   3.579   2.042   0.234
13839WAT     H241760   3.648   2.044   0.086
13840WAT      O41761   4.009   1.708   5.354
13840WAT     H141762   3.966   1.765   5.284
13840WAT     H241763   4.092   1.752   5.388
13841WAT      O41764   0.595   4.108   0.069
13841WAT     H141765   0.511   4.160   0.084
13841WAT     H241766   0.652   4.155   0.002
13842WAT      O41767   2.606   5.643   6.797
13842WAT     H141768   2.590   5.740   6.778
13842WAT     H241769   2.643   5.634   6.890
13843WAT      O41770   5.499   9.054   0.863
13843WAT     H141771   5.586   9.009   0.842
13843WAT     H241772   5.449   9.000   0.930
13844WAT      O41773   0.406   9.475   1.480
13844WAT     H141774   0.407   9.410   1.555
13844WAT     H241775   0.338   9.546   1.497
13845WAT      O41776   9.579   1.805   3.547
13845WAT     H141777   9.613   1.895   3.518
13845WAT     H241778   9.564   1.805   3.645
13846WAT      O41779   0.262   3.837   0.198
13846WAT     H141780   0.183   3.863   0.142
13846WAT     H241781   0.233   3.773   0.269
13847WAT      O41782   5.138   3.908   1.995
13847WAT     H141783   5.064   3.965   1.958
13847WAT     H241784   5.100   3.824   2.033
13848WAT      O41785   8.947   7.737   6.489
13848WAT     H141786   8.917   7.761   6.582
13848WAT     H241787   9.024   7.795   6.463
13849WAT      O41788   4.937   4.091   7.601
13849WAT     H141789   4.986   4.086   7.688
13849WAT     H241790   4.979   4.027   7.536
13850WAT      O41791   6.319   7.776   1.129
13850WAT     H141792   6.334   7.861   1.077
13850WAT     H241793   6.406   7.744   1.166
13851WAT      O41794   7.073   8.120   6.588
13851WAT     H141795   7.012   8.182   6.538
13851WAT     H241796   7.168   8.143   6.568
13852WAT      O41797   2.042   9.455   6.404
13852WAT     H141798   2.085   9.366   6.420
13852WAT     H241799   2.088   9.525   6.459
13853WAT      O41800   6.214   2.501   5.291
13853WAT     H141801   6.234   2.423   5.232
13853WAT     H241802   6.285   2.510   5.360
13854WAT      O41803   2.579   9.416   6.717
13854WAT     H141804   2.668   9.391   6.757
13854WAT     H241805   2.534   9.482   6.777
13855WAT      O41806   4.643   6.898   6.592
13855WAT     H141807   4.735   6.919   6.561
13855WAT     H241808   4.594   6.848   6.521
13856WAT      O41809   1.553   2.368   6.246
13856WAT     H141810   1.485   2.420   6.195
13856WAT     H241811   1.623   2.335   6.183
13857WAT      O41812   7.751   2.483   0.256
13857WAT     H141813   7.849   2.503   0.254
13857WAT     H241814   7.705   2.531   0.181
13858WAT      O41815   7.347   2.527   8.755
13858WAT     H141816   7.429   2.486   8.713
13858WAT     H241817   7.290   2.567   8.684
13859WAT      O41818   1.597   5.047   4.251
13859WAT     H141819   1.532   4.971   4.246
13859WAT     H241820   1.621   5.076   4.158
13860WAT      O41821   3.692   2.229   2.843
13860WAT     H141822   3.743   2.238   2.928
13860WAT     H241823   3.756   2.227   2.766
13861WAT      O41824   3.022   3.500   8.812
13861WAT     H141825   2.999   3.588   8.852
13861WAT     H241826   3.012   3.505   8.712
13862WAT      O41827   1.034   7.536   5.308
13862WAT     H141828   0.943   7.555   5.270
13862WAT     H241829   1.102   7.591   5.259
13863WAT      O41830   1.209   6.879   8.496
13863WAT     H141831   1.169   6.900   8.406
13863WAT     H241832   1.289   6.938   8.511
13864WAT      O41833   6.633   5.938   0.381
13864WAT     H141834   6.675   5.946   0.471
13864WAT     H241835   6.662   6.015   0.324
13865WAT      O41836   5.584   9.730   8.521
13865WAT     H141837   5.614   9.755   8.613
13865WAT     H241838   5.648   9.665   8.481
13866WAT      O41839   4.447   1.471   2.402
13866WAT     H141840   4.520   1.498   2.340
13866WAT     H241841   4.413   1.380   2.376
13867WAT      O41842   7.808   6.132   9.473
13867WAT     H141843   7.905   6.126   9.498
13867WAT     H241844   7.799   6.180   9.385
13868WAT      O41845   2.374   1.283   9.310
13868WAT     H141846   2.409   1.286   9.403
13868WAT     H241847   2.298   1.218   9.305
13869WAT      O41848   3.391   1.988   0.769
13869WAT     H141849   3.362   2.066   0.714
13869WAT     H241850   3.490   1.975   0.759
13870WAT      O41851   1.618   8.929   2.605
13870WAT     H141852   1.705   8.890   2.574
13870WAT     H241853   1.626   9.028   2.611
13871WAT      O41854   6.519   0.599   2.085
13871WAT     H141855   6.473   0.681   2.051
13871WAT     H241856   6.458   0.550   2.147
13872WAT      O41857   9.690   4.792   6.714
13872WAT     H141858   9.745   4.794   6.797
13872WAT     H241859   9.656   4.699   6.698
13873WAT      O41860   8.858   3.330   3.655
13873WAT     H141861   8.805   3.323   3.740
13873WAT     H241862   8.808   3.387   3.590
13874WAT      O41863   8.819   8.197   1.877
13874WAT     H141864   8.751   8.200   1.951
13874WAT     H241865   8.867   8.109   1.880
13875WAT      O41866   9.408   8.237   5.192
13875WAT     H141867   9.410   8.311   5.259
13875WAT     H241868   9.336   8.172   5.216
13876WAT      O41869   5.841   0.569   9.842
13876WAT     H141870   5.867   0.483   9.798
13876WAT     H241871   5.922   0.608   9.886
13877WAT      O41872   5.463   0.071   0.603
13877WAT     H141873   5.458   0.145   0.670
13877WAT     H241874   5.400  -0.002   0.629
13878WAT      O41875   5.197   6.952   9.381
13878WAT     H141876   5.263   6.993   9.444
13878WAT     H241877   5.108   6.943   9.427
13879WAT      O41878   0.657   8.399   2.122
13879WAT     H141879   0.671   8.300   2.123
13879WAT     H241880   0.653   8.431   2.027
13880WAT      O41881   3.532   4.284   6.192
13880WAT     H141882   3.630   4.300   6.203
13880WAT     H241883   3.482   4.345   6.253
13881WAT      O41884   8.678   7.548   1.650
13881WAT     H141885   8.620   7.468   1.650
13881WAT     H241886   8.751   7.536   1.583
13882WAT      O41887   5.832   9.557   9.825
13882WAT     H141888   5.793   9.487   9.884
13882WAT     H241889   5.759   9.616   9.790
13883WAT      O41890   1.656   8.405   5.460
13883WAT     H141891   1.575   8.460   5.480
13883WAT     H241892   1.733   8.437   5.515
13884WAT      O41893   4.312   2.007   4.846
13884WAT     H141894   4.344   1.980   4.937
13884WAT     H241895   4.389   2.003   4.782
13885WAT      O41896   0.352   7.222   4.802
13885WAT     H141897   0.270   7.279   4.794
13885WAT     H241898   0.425   7.274   4.845
13886WAT      O41899   8.727   7.089   9.439
13886WAT     H141900   8.690   7.034   9.513
13886WAT     H241901   8.824   7.107   9.456
13887WAT      O41902   1.081   3.224   9.396
13887WAT     H141903   1.152   3.153   9.394
13887WAT     H241904   1.031   3.219   9.483
13888WAT      O41905   5.629   3.632   3.781
13888WAT     H141906   5.670   3.599   3.696
13888WAT     H241907   5.697   3.681   3.834
13889WAT      O41908   7.112   2.676   7.048
13889WAT     H141909   7.197   2.722   7.020
13889WAT     H241910   7.083   2.614   6.975
13890WAT      O41911   0.652   2.168   4.823
13890WAT     H141912   0.739   2.159   4.775
13890WAT     H241913   0.664   2.227   4.903
13891WAT      O41914   8.431   8.475   3.512
13891WAT     H141915   8.465   8.508   3.424
13891WAT     H241916   8.488   8.399   3.543
13892WAT      O41917   2.462   4.579   3.790
13892WAT     H141918   2.435   4.506   3.728
13892WAT     H241919   2.413   4.568   3.877
13893WAT      O41920   9.263   1.981   3.471
13893WAT     H141921   9.294   2.013   3.382
13893WAT     H241922   9.319   2.023   3.543
13894WAT      O41923   6.890   1.881   3.431
13894WAT     H141924   6.918   1.805   3.488
13894WAT     H241925   6.965   1.947   3.423
13895WAT      O41926   6.692   6.400   2.703
13895WAT     H141927   6.636   6.416   2.784
13895WAT     H241928   6.642   6.342   2.639
13896WAT      O41929   5.733   9.019   7.352
13896WAT     H141930   5.648   8.966   7.348
13896WAT     H241931   5.811   8.958   7.333
13897WAT      O41932   6.702   0.717   1.395
13897WAT     H141933   6.712   0.669   1.308
13897WAT     H241934   6.786   0.707   1.448
13898WAT      O41935   9.752   9.756   1.839
13898WAT     H141936   9.782   9.736   1.746
13898WAT     H241937   9.808   9.703   1.904
13899WAT      O41938   6.492   3.249   6.586
13899WAT     H141939   6.411   3.295   6.621
13899WAT     H241940   6.473   3.213   6.494
13900WAT      O41941   8.883   3.076   3.317
13900WAT     H141942   8.922   3.040   3.233
13900WAT     H241943   8.803   3.023   3.343
13901WAT      O41944   2.061   8.347   1.064
13901WAT     H141945   2.130   8.362   1.135
13901WAT     H241946   1.974   8.323   1.108
13902WAT      O41947   7.405   9.186   3.754
13902WAT     H141948   7.459   9.136   3.687
13902WAT     H241949   7.347   9.122   3.804
13903WAT      O41950   4.562   4.208   5.251
13903WAT     H141951   4.575   4.301   5.284
13903WAT     H241952   4.574   4.144   5.327
13904WAT      O41953   6.193   2.379   4.219
13904WAT     H141954   6.101   2.396   4.255
13904WAT     H241955   6.231   2.465   4.184
13905WAT      O41956   2.604   7.770   4.064
13905WAT     H141957   2.588   7.724   4.152
13905WAT     H241958   2.519   7.812   4.032
13906WAT      O41959   7.183   7.638   2.198
13906WAT     H141960   7.261   7.699   2.186
13906WAT     H241961   7.141   7.656   2.288
13907WAT      O41962   9.116   1.232   9.486
13907WAT     H141963   9.055   1.266   9.414
13907WAT     H241964   9.092   1.138   9.508
13908WAT      O41965   1.448   7.433   5.157
13908WAT     H141966   1.369   7.459   5.103
13908WAT     H241967   1.441   7.337   5.184
13909WAT      O41968   4.728   3.823   9.448
13909WAT     H141969   4.744   3.724   9.443
13909WAT     H241970   4.810   3.868   9.484
13910WAT      O41971   6.467   5.578   2.591
13910WAT     H141972   6.497   5.494   2.546
13910WAT     H241973   6.488   5.573   2.688
13911WAT      O41974   8.389   4.100   7.656
13911WAT     H141975   8.358   4.043   7.580
13911WAT     H241976   8.476   4.064   7.691
13912WAT      O41977   4.088   8.681   8.461
13912WAT     H141978   4.131   8.755   8.512
13912WAT     H241979   4.074   8.603   8.521
13913WAT      O41980   5.347   3.710   8.618
13913WAT     H141981   5.439   3.693   8.584
13913WAT     H241982   5.334   3.809   8.631
13914WAT      O41983   6.475   1.271   7.068
13914WAT     H141984   6.501   1.360   7.031
13914WAT     H241985   6.504   1.198   7.005
13915WAT      O41986   3.850   4.638   4.861
13915WAT     H141987   3.863   4.542   4.885
13915WAT     H241988   3.841   4.693   4.944
13916WAT      O41989   9.633   4.010   6.550
13916WAT     H141990   9.633   3.910   6.557
13916WAT     H241991   9.575   4.037   6.473
13917WAT      O41992   7.481   0.106   7.627
13917WAT     H141993   7.417   0.182   7.640
13917WAT     H241994   7.431   0.019   7.631
13918WAT      O41995   9.417   0.856   1.351
13918WAT     H141996   9.329   0.898   1.329
13918WAT     H241997   9.424   0.842   1.449
13919WAT      O41998   9.235   6.496   0.238
13919WAT     H141999   9.203   6.568   0.176
13919WAT     H242000   9.158   6.436   0.261
13920WAT      O42001   5.955   2.428   1.975
13920WAT     H142002   5.969   2.483   1.893
13920WAT     H242003   5.862   2.441   2.009
13921WAT      O42004   2.556   3.961   9.047
13921WAT     H142005   2.464   3.995   9.062
13921WAT     H242006   2.559   3.907   8.963
13922WAT      O42007   5.922   3.862   9.862
13922WAT     H142008   5.978   3.801   9.920
13922WAT     H242009   5.829   3.825   9.856
13923WAT      O42010   6.705   5.809   9.028
13923WAT     H142011   6.658   5.724   9.053
13923WAT     H242012   6.638   5.883   9.018
13924WAT      O42013   5.476   9.814   7.536
13924WAT     H142014   5.516   9.742   7.592
13924WAT     H242015   5.461   9.779   7.443
13925WAT      O42016   4.291   8.064   4.744
13925WAT     H142017   4.323   7.987   4.799
13925WAT     H242018   4.331   8.149   4.780
13926WAT      O42019   2.379   1.167   3.850
13926WAT     H142020   2.440   1.159   3.929
13926WAT     H242021   2.399   1.094   3.785
13927WAT      O42022   1.272   6.510   5.010
13927WAT     H142023   1.354   6.492   5.064
13927WAT     H242024   1.267   6.445   4.934
13928WAT      O42025   8.842   0.048   9.442
13928WAT     H142026   8.896  -0.029   9.408
13928WAT     H242027   8.752   0.015   9.469
13929WAT      O42028   5.592   7.620   7.721
13929WAT     H142029   5.585   7.664   7.810
13929WAT     H242030   5.500   7.600   7.686
13930WAT      O42031   6.675   5.234   5.608
13930WAT     H142032   6.696   5.189   5.522
13930WAT     H242033   6.601   5.300   5.594
13931WAT      O42034   2.509   9.508   7.914
13931WAT     H142035   2.476   9.505   8.008
13931WAT     H242036   2.543   9.418   7.887
13932WAT      O42037   7.496   0.338   4.676
13932WAT     H142038   7.402   0.308   4.695
13932WAT     H242039   7.519   0.416   4.735
13933WAT      O42040   9.794   3.278   2.615
13933WAT     H142041   9.766   3.183   2.621
13933WAT     H242042   9.813   3.313   2.707
13934WAT      O42043   4.785   1.116   6.324
13934WAT     H142044   4.708   1.055   6.341
13934WAT     H242045   4.866   1.061   6.303
13935WAT      O42046   5.529   9.130   6.067
13935WAT     H142047   5.593   9.205   6.049
13935WAT     H242048   5.518   9.120   6.166
13936WAT      O42049   1.692   4.197   5.747
13936WAT     H142050   1.668   4.293   5.764
13936WAT     H242051   1.785   4.180   5.779
13937WAT      O42052   5.877   8.194   1.018
13937WAT     H142053   5.930   8.111   1.038
13937WAT     H242054   5.799   8.199   1.080
13938WAT      O42055   5.777   4.108   6.895
13938WAT     H142056   5.740   4.068   6.812
13938WAT     H242057   5.870   4.075   6.910
13939WAT      O42058   2.256   8.593   9.663
13939WAT     H142059   2.232   8.495   9.662
13939WAT     H242060   2.175   8.646   9.688
13940WAT      O42061   4.283   2.290   9.323
13940WAT     H142062   4.281   2.316   9.420
13940WAT     H242063   4.373   2.254   9.299
13941WAT      O42064   3.548   0.836   3.451
13941WAT     H142065   3.564   0.916   3.507
13941WAT     H242066   3.572   0.856   3.356
13942WAT      O42067   5.096   0.355   6.898
13942WAT     H142068   5.037   0.320   6.825
13942WAT     H242069   5.046   0.354   6.984
13943WAT      O42070   2.950   7.554   8.723
13943WAT     H142071   3.017   7.567   8.650
13943WAT     H242072   2.998   7.540   8.810
13944WAT      O42073   7.313   3.221   8.325
13944WAT     H142074   7.348   3.198   8.416
13944WAT     H242075   7.389   3.243   8.264
13945WAT      O42076   8.182   4.002   8.892
13945WAT     H142077   8.209   3.945   8.815
13945WAT     H242078   8.148   4.090   8.859
13946WAT      O42079   7.619   8.736   3.798
13946WAT     H142080   7.702   8.681   3.796
13946WAT     H242081   7.558   8.702   3.869
13947WAT      O42082   4.286   4.790   3.150
13947WAT     H142083   4.332   4.709   3.186
13947WAT     H242084   4.353   4.856   3.118
13948WAT      O42085   1.107   5.063   6.726
13948WAT     H142086   1.056   4.991   6.772
13948WAT     H242087   1.145   5.126   6.794
13949WAT      O42088   2.660   9.334   0.872
13949WAT     H142089   2.603   9.258   0.840
13949WAT     H242090   2.642   9.350   0.969
13950WAT      O42091   4.114   8.192   2.706
13950WAT     H142092   4.187   8.253   2.739
13950WAT     H242093   4.030   8.212   2.756
13951WAT      O42094   2.386   2.197   9.718
13951WAT     H142095   2.417   2.219   9.625
13951WAT     H242096   2.462   2.210   9.782
13952WAT      O42097   3.535   0.708   5.085
13952WAT     H142098   3.439   0.687   5.101
13952WAT     H242099   3.593   0.639   5.128
13953WAT      O42100   6.232   5.621   4.275
13953WAT     H142101   6.145   5.670   4.285
13953WAT     H242102   6.217   5.537   4.224
13954WAT      O42103   4.506   9.680   9.399
13954WAT     H142104   4.563   9.762   9.393
13954WAT     H242105   4.413   9.707   9.426
13955WAT      O42106   0.478   1.440   5.148
13955WAT     H142107   0.503   1.377   5.222
13955WAT     H242108   0.539   1.519   5.149
13956WAT      O42109   8.530   8.796   4.610
13956WAT     H142110   8.503   8.765   4.519
13956WAT     H242111   8.450   8.794   4.670
13957WAT      O42112   8.209   2.940   7.745
13957WAT     H142113   8.156   2.887   7.679
13957WAT     H242114   8.222   2.885   7.828
13958WAT      O42115   7.598   2.866   8.121
13958WAT     H142116   7.663   2.939   8.144
13958WAT     H242117   7.606   2.845   8.023
13959WAT      O42118   4.887   1.390   3.076
13959WAT     H142119   4.968   1.373   3.021
13959WAT     H242120   4.894   1.480   3.119
13960WAT      O42121   8.021   5.661   0.508
13960WAT     H142122   7.952   5.708   0.563
13960WAT     H242123   8.023   5.699   0.416
13961WAT      O42124   8.256   6.692   1.863
13961WAT     H142125   8.269   6.659   1.957
13961WAT     H242126   8.342   6.686   1.814
13962WAT      O42127   4.112   6.423   7.230
13962WAT     H142128   4.196   6.429   7.177
13962WAT     H242129   4.087   6.327   7.241
13963WAT      O42130   2.068   8.338   9.262
13963WAT     H142131   2.004   8.404   9.223
13963WAT     H242132   2.161   8.359   9.231
13964WAT      O42133   9.659   3.619   1.433
13964WAT     H142134   9.614   3.549   1.489
13964WAT     H242135   9.756   3.623   1.458
13965WAT      O42136   3.174   3.301   8.235
13965WAT     H142137   3.082   3.338   8.225
13965WAT     H242138   3.218   3.343   8.315
13966WAT      O42139   4.125   3.934   3.794
13966WAT     H142140   4.037   3.967   3.828
13966WAT     H242141   4.193   4.007   3.804
13967WAT      O42142   7.504   3.822   5.595
13967WAT     H142143   7.475   3.917   5.602
13967WAT     H242144   7.577   3.804   5.661
13968WAT      O42145   9.786   2.445   3.608
13968WAT     H142146   9.750   2.416   3.696
13968WAT     H242147   9.868   2.394   3.586
13969WAT      O42148   2.534   1.344   2.445
13969WAT     H142149   2.448   1.382   2.414
13969WAT     H242150   2.593   1.324   2.367
13970WAT      O42151   9.770   3.463   5.023
13970WAT     H142152   9.696   3.482   4.957
13970WAT     H242153   9.832   3.541   5.026
13971WAT      O42154   4.045   0.179   4.818
13971WAT     H142155   3.988   0.230   4.754
13971WAT     H242156   4.058   0.233   4.901
13972WAT      O42157   3.774   9.479   2.456
13972WAT     H142158   3.719   9.442   2.381
13972WAT     H242159   3.749   9.575   2.471
13973WAT      O42160   5.093   1.608   0.185
13973WAT     H142161   5.138   1.680   0.238
13973WAT     H242162   5.159   1.535   0.166
13974WAT      O42163   3.546   6.108   6.563
13974WAT     H142164   3.618   6.169   6.596
13974WAT     H242165   3.480   6.160   6.508
13975WAT      O42166   0.308   0.282   9.585
13975WAT     H142167   0.366   0.343   9.639
13975WAT     H242168   0.339   0.280   9.490
13976WAT      O42169   9.291   7.583   8.826
13976WAT     H142170   9.204   7.633   8.831
13976WAT     H242171   9.366   7.648   8.814
13977WAT      O42172   5.595   2.528   4.012
13977WAT     H142173   5.692   2.540   4.034
13977WAT     H242174   5.566   2.600   3.949
13978WAT      O42175   3.291   0.782   3.679
13978WAT     H142176   3.352   0.803   3.755
13978WAT     H242177   3.338   0.720   3.615
13979WAT      O42178   0.644   6.516   7.493
13979WAT     H142179   0.735   6.480   7.513
13979WAT     H242180   0.613   6.481   7.404
13980WAT      O42181   4.653   9.327   0.189
13980WAT     H142182   4.607   9.242   0.163
13980WAT     H242183   4.611   9.404   0.142
13981WAT      O42184   8.890   9.349   9.040
13981WAT     H142185   8.922   9.444   9.043
13981WAT     H242186   8.881   9.314   9.133
13982WAT      O42187   9.709   7.393   8.796
13982WAT     H142188   9.729   7.297   8.774
13982WAT     H242189   9.773   7.426   8.864
13983WAT      O42190   8.979   3.502   8.530
13983WAT     H142191   8.959   3.416   8.484
13983WAT     H242192   9.056   3.489   8.593
13984WAT      O42193   3.618   3.015   2.638
13984WAT     H142194   3.657   3.066   2.715
13984WAT     H242195   3.673   2.933   2.621
13985WAT      O42196   6.624   3.104   3.426
13985WAT     H142197   6.719   3.126   3.406
13985WAT     H242198   6.619   3.051   3.511
13986WAT      O42199   6.162   5.585   9.147
13986WAT     H142200   6.085   5.611   9.205
13986WAT     H242201   6.242   5.641   9.169
13987WAT      O42202   1.890   9.037   9.654
13987WAT     H142203   1.849   9.089   9.579
13987WAT     H242204   1.885   8.939   9.634
13988WAT      O42205   2.567   6.830   6.985
13988WAT     H142206   2.480   6.816   7.032
13988WAT     H242207   2.641   6.787   7.038
13989WAT      O42208   8.175   9.099   4.570
13989WAT     H142209   8.119   9.136   4.496
13989WAT     H242210   8.151   9.144   4.656
13990WAT      O42211   0.855   6.358   7.597
13990WAT     H142212   0.905   6.383   7.680
13990WAT     H242213   0.921   6.339   7.524
13991WAT      O42214   8.017   3.992   4.601
13991WAT     H142215   8.061   3.905   4.626
13991WAT     H242216   7.954   3.977   4.525
13992WAT      O42217   6.653   0.079   7.039
13992WAT     H142218   6.722   0.139   6.998
13992WAT     H242219   6.685  -0.016   7.035
13993WAT      O42220   8.205   9.831   5.028
13993WAT     H142221   8.202   9.740   5.068
13993WAT     H242222   8.168   9.829   4.935
13994WAT      O42223   8.681   9.362   1.461
13994WAT     H142224   8.754   9.316   1.512
13994WAT     H242225   8.658   9.307   1.381
13995WAT      O42226   3.696   0.348   3.693
13995WAT     H142227   3.791   0.364   3.666
13995WAT     H242228   3.653   0.286   3.627
13996WAT      O42229   5.385   2.562   1.199
13996WAT     H142230   5.429   2.475   1.180
13996WAT     H242231   5.298   2.546   1.246
13997WAT      O42232   3.249   4.964   8.531
13997WAT     H142233   3.236   5.052   8.485
13997WAT     H242234   3.257   4.978   8.629
13998WAT      O42235   6.622   8.654   0.003
13998WAT     H142236   6.677   8.663  -0.080
13998WAT     H242237   6.609   8.744   0.045
13999WAT      O42238   6.998   2.760   1.906
13999WAT     H142239   7.089   2.802   1.902
13999WAT     H242240   6.960   2.754   1.813
14000WAT      O42241   6.275   1.247   6.166
14000WAT     H142242   6.193   1.273   6.217
14000WAT     H242243   6.267   1.153   6.135
14001WAT      O42244   5.339   9.410   4.586
14001WAT     H142245   5.432   9.375   4.580
14001WAT     H242246   5.340   9.510   4.583
14002WAT      O42247   6.908   8.429   2.507
14002WAT     H142248   6.949   8.491   2.440
14002WAT     H242249   6.834   8.476   2.555
14003WAT      O42250   6.593   4.451   2.284
14003WAT     H142251   6.675   4.402   2.315
14003WAT     H242252   6.573   4.425   2.189
14004WAT      O42253   5.659   1.206   4.560
14004WAT     H142254   5.715   1.260   4.497
14004WAT     H242255   5.590   1.265   4.602
14005WAT      O42256   5.917   5.296   2.032
14005WAT     H142257   5.844   5.249   1.981
14005WAT     H242258   5.968   5.355   1.970
14006WAT      O42259   7.874   1.941   8.380
14006WAT     H142260   7.788   1.905   8.345
14006WAT     H242261   7.893   2.030   8.338
14007WAT      O42262   0.006   7.091   3.727
14007WAT     H142263   0.099   7.089   3.690
14007WAT     H242264  -0.054   7.035   3.671
14008WAT      O42265   9.084   4.557   4.579
14008WAT     H142266   9.176   4.595   4.577
14008WAT     H242267   9.083   4.469   4.532
14009WAT      O42268   5.112   7.758   9.807
14009WAT     H142269   5.013   7.751   9.802
14009WAT     H242270   5.153   7.666   9.803
14010WAT      O42271   9.128   7.647   6.849
14010WAT     H142272   9.076   7.720   6.806
14010WAT     H242273   9.223   7.652   6.819
14011WAT      O42274   9.714   3.555   2.135
14011WAT     H142275   9.629   3.511   2.163
14011WAT     H242276   9.694   3.631   2.073
14012WAT      O42277   7.178   6.128   8.673
14012WAT     H142278   7.256   6.182   8.704
14012WAT     H242279   7.196   6.031   8.690
14013WAT      O42280   2.447   3.634   4.514
14013WAT     H142281   2.528   3.684   4.483
14013WAT     H242282   2.373   3.648   4.449
14014WAT      O42283   0.778   4.106   2.761
14014WAT     H142284   0.758   4.043   2.685
14014WAT     H242285   0.731   4.074   2.843
14015WAT      O42286   6.467   1.877   0.645
14015WAT     H142287   6.462   1.884   0.545
14015WAT     H242288   6.549   1.827   0.671
14016WAT      O42289   4.340   6.969   3.208
14016WAT     H142290   4.260   6.934   3.257
14016WAT     H242291   4.389   7.034   3.265
14017WAT      O42292   5.479   5.731   6.596
14017WAT     H142293   5.440   5.642   6.617
14017WAT     H242294   5.408   5.801   6.598
14018WAT      O42295   9.795   6.808   0.152
14018WAT     H142296   9.880   6.784   0.104
14018WAT     H242297   9.816   6.868   0.229
14019WAT      O42298   2.196   4.052   1.023
14019WAT     H142299   2.251   4.133   1.007
14019WAT     H242300   2.240   3.994   1.092
14020WAT      O42301   2.668   7.183   8.111
14020WAT     H142302   2.586   7.139   8.076
14020WAT     H242303   2.684   7.154   8.205
14021WAT      O42304   1.438   3.162   8.741
14021WAT     H142305   1.450   3.191   8.836
14021WAT     H242306   1.416   3.242   8.685
14022WAT      O42307   7.367   7.509   7.313
14022WAT     H142308   7.425   7.454   7.373
14022WAT     H242309   7.373   7.605   7.340
14023WAT      O42310   4.997   2.015   3.425
14023WAT     H142311   4.923   2.035   3.489
14023WAT     H242312   5.082   2.058   3.456
14024WAT      O42313   8.670   2.174   1.735
14024WAT     H142314   8.704   2.222   1.654
14024WAT     H242315   8.694   2.077   1.728
14025WAT      O42316   8.992   1.728   8.257
14025WAT     H142317   8.951   1.819   8.264
14025WAT     H242318   9.090   1.736   8.241
14026WAT      O42319   0.884   2.554   1.094
14026WAT     H142320   0.790   2.578   1.118
14026WAT     H242321   0.934   2.635   1.064
14027WAT      O42322   8.743   1.340   4.820
14027WAT     H142323   8.676   1.266   4.818
14027WAT     H242324   8.832   1.303   4.849
14028WAT      O42325   4.915   5.111   0.243
14028WAT     H142326   4.845   5.169   0.200
14028WAT     H242327   4.989   5.095   0.179
14029WAT      O42328   7.110   1.685   3.168
14029WAT     H142329   7.096   1.589   3.143
14029WAT     H242330   7.028   1.738   3.147
14030WAT      O42331   2.655   4.713   4.581
14030WAT     H142332   2.754   4.711   4.564
14030WAT     H242333   2.637   4.677   4.672
14031WAT      O42334   5.511   8.074   6.020
14031WAT     H142335   5.547   8.018   5.945
14031WAT     H242336   5.440   8.136   5.984
14032WAT      O42337   7.382   6.228   1.266
14032WAT     H142338   7.324   6.213   1.346
14032WAT     H242339   7.364   6.156   1.199
14033WAT      O42340   7.267   8.116   4.661
14033WAT     H142341   7.204   8.113   4.738
14033WAT     H242342   7.355   8.152   4.691
14034WAT      O42343   4.872   1.539   9.410
14034WAT     H142344   4.913   1.524   9.500
14034WAT     H242345   4.799   1.471   9.396
14035WAT      O42346   7.924   3.972   5.799
14035WAT     H142347   7.919   4.042   5.870
14035WAT     H242348   7.879   4.004   5.716
14036WAT      O42349   4.053   8.549   2.870
14036WAT     H142350   3.965   8.506   2.855
14036WAT     H242351   4.127   8.483   2.854
14037WAT      O42352   0.933   3.209   6.894
14037WAT     H142353   0.871   3.131   6.897
14037WAT     H242354   0.886   3.291   6.927
14038WAT      O42355   4.111   3.843   4.257
14038WAT     H142356   4.201   3.825   4.216
14038WAT     H242357   4.061   3.757   4.266
14039WAT      O42358   0.343   1.879   4.939
14039WAT     H142359   0.308   1.858   5.031
14039WAT     H242360   0.342   1.796   4.884
14040WAT      O42361   0.275   3.937   4.250
14040WAT     H142362   0.197   3.995   4.271
14040WAT     H242363   0.245   3.842   4.240
14041WAT      O42364   5.602   0.628   6.186
14041WAT     H142365   5.624   0.534   6.211
14041WAT     H242366   5.529   0.662   6.246
14042WAT      O42367   9.303   4.384   2.973
14042WAT     H142368   9.367   4.347   3.040
14042WAT     H242369   9.354   4.423   2.896
14043WAT      O42370   6.941   7.274   1.781
14043WAT     H142371   6.898   7.314   1.700
14043WAT     H242372   7.013   7.334   1.814
14044WAT      O42373   6.459   7.683   6.327
14044WAT     H142374   6.496   7.735   6.404
14044WAT     H242375   6.359   7.693   6.326
14045WAT      O42376   1.677   7.087   9.345
14045WAT     H142377   1.747   7.025   9.310
14045WAT     H242378   1.712   7.136   9.425
14046WAT      O42379   1.467   1.525   4.379
14046WAT     H142380   1.420   1.584   4.313
14046WAT     H242381   1.416   1.439   4.387
14047WAT      O42382   0.421   3.134   2.049
14047WAT     H142383   0.484   3.166   1.978
14047WAT     H242384   0.374   3.051   2.016
14048WAT      O42385   2.611   8.358   9.350
14048WAT     H142386   2.588   8.454   9.332
14048WAT     H242387   2.613   8.308   9.263
14049WAT      O42388   6.638   3.842   1.314
14049WAT     H142389   6.697   3.801   1.245
14049WAT     H242390   6.559   3.884   1.269
14050WAT      O42391   5.734   8.945   0.721
14050WAT     H142392   5.690   8.966   0.634
14050WAT     H242393   5.796   9.020   0.746
14051WAT      O42394   7.321   8.821   8.340
14051WAT     H142395   7.370   8.907   8.324
14051WAT     H242396   7.387   8.749   8.359
14052WAT      O42397   8.281   2.888   6.696
14052WAT     H142398   8.236   2.851   6.615
14052WAT     H242399   8.358   2.829   6.721
14053WAT      O42400   8.459   1.320   9.822
14053WAT     H142401   8.360   1.327   9.837
14053WAT     H242402   8.484   1.224   9.807
14054WAT      O42403   7.532   4.979   3.001
14054WAT     H142404   7.505   5.007   2.909
14054WAT     H242405   7.623   5.016   3.021
14055WAT      O42406   6.687   8.293   2.104
14055WAT     H142407   6.752   8.254   2.038
14055WAT     H242408   6.702   8.391   2.112
14056WAT      O42409   6.694   3.737   0.765
14056WAT     H142410   6.657   3.829   0.765
14056WAT     H242411   6.748   3.723   0.682
14057WAT      O42412   3.272   6.715   2.279
14057WAT     H142413   3.240   6.642   2.219
14057WAT     H242414   3.319   6.784   2.225
14058WAT      O42415   2.948   9.745   9.179
14058WAT     H142416   2.858   9.773   9.146
14058WAT     H242417   2.956   9.766   9.276
14059WAT      O42418   0.654   4.586   1.077
14059WAT     H142419   0.682   4.522   1.148
14059WAT     H242420   0.727   4.595   1.009
14060WAT      O42421   9.318   4.603   4.429
14060WAT     H142422   9.304   4.583   4.332
14060WAT     H242423   9.355   4.695   4.439
14061WAT      O42424   6.001   1.000   4.718
14061WAT     H142425   6.017   0.936   4.644
14061WAT     H242426   6.088   1.024   4.761
14062WAT      O42427   1.705   0.508   0.195
14062WAT     H142428   1.794   0.521   0.238
14062WAT     H242429   1.716   0.508   0.096
14063WAT      O42430   2.069   4.171   0.539
14063WAT     H142431   2.013   4.121   0.605
14063WAT     H242432   2.137   4.109   0.500
14064WAT      O42433   6.787   7.551   8.042
14064WAT     H142434   6.690   7.529   8.031
14064WAT     H242435   6.800   7.607   8.123
14065WAT      O42436   8.045   9.350   8.899
14065WAT     H142437   8.019   9.292   8.976
14065WAT     H242438   7.974   9.419   8.883
14066WAT      O42439   2.201   8.776   3.817
14066WAT     H142440   2.134   8.827   3.762
14066WAT     H242441   2.291   8.819   3.808
14067WAT      O42442   6.433   3.257   3.593
14067WAT     H142443   6.411   3.338   3.539
14067WAT     H242444   6.481   3.191   3.536
14068WAT      O42445   2.112   4.786   9.073
14068WAT     H142446   2.113   4.694   9.113
14068WAT     H242447   2.199   4.802   9.027
14069WAT      O42448   3.053   4.114   8.776
14069WAT     H142449   3.102   4.197   8.801
14069WAT     H242450   2.955   4.126   8.794
14070WAT      O42451   8.303   6.578   0.581
14070WAT     H142452   8.284   6.592   0.678
14070WAT     H242453   8.228   6.616   0.527
14071WAT      O42454   7.428   5.226   6.212
14071WAT     H142455   7.514   5.275   6.196
14071WAT     H242456   7.363   5.248   6.140
14072WAT      O42457   9.588   9.565   1.377
14072WAT     H142458   9.660   9.630   1.402
14072WAT     H242459   9.499   9.610   1.381
14073WAT      O42460   0.438   8.452   5.913
14073WAT     H142461   0.386   8.479   5.994
14073WAT     H242462   0.417   8.357   5.889
14074WAT      O42463   7.797   2.876   6.517
14074WAT     H142464   7.813   2.808   6.588
14074WAT     H242465   7.869   2.870   6.448
14075WAT      O42466   2.229   1.970   2.049
14075WAT     H142467   2.147   2.027   2.048
14075WAT     H242468   2.284   1.989   1.967
14076WAT      O42469   1.632   6.625   4.074
14076WAT     H142470   1.606   6.578   4.159
14076WAT     H242471   1.626   6.561   3.998
14077WAT      O42472   5.185   5.968   0.003
14077WAT     H142473   5.152   6.022   0.081
14077WAT     H242474   5.154   6.010  -0.082
14078WAT      O42475   2.041   3.792   4.919
14078WAT     H142476   2.013   3.888   4.915
14078WAT     H242477   2.138   3.786   4.944
14079WAT      O42478   1.876   5.129   2.838
14079WAT     H142479   1.790   5.151   2.884
14079WAT     H242480   1.892   5.193   2.763
14080WAT      O42481   5.457   5.660   6.118
14080WAT     H142482   5.530   5.726   6.135
14080WAT     H242483   5.405   5.646   6.202
14081WAT      O42484   8.513   2.480   1.395
14081WAT     H142485   8.444   2.436   1.338
14081WAT     H242486   8.480   2.483   1.490
14082WAT      O42487   2.275   9.514   9.418
14082WAT     H142488   2.239   9.594   9.371
14082WAT     H242489   2.317   9.452   9.351
14083WAT      O42490   7.934   5.666   9.665
14083WAT     H142491   7.913   5.570   9.647
14083WAT     H242492   7.876   5.699   9.740
14084WAT      O42493   8.352   4.404   0.474
14084WAT     H142494   8.319   4.343   0.401
14084WAT     H242495   8.451   4.396   0.482
14085WAT      O42496   9.447   4.953   1.989
14085WAT     H142497   9.449   4.853   1.991
14085WAT     H242498   9.476   4.985   1.899
14086WAT      O42499   2.588   4.982   7.359
14086WAT     H142500   2.678   5.011   7.326
14086WAT     H242501   2.520   5.050   7.332
14087WAT      O42502   8.682   4.057   1.059
14087WAT     H142503   8.749   4.026   0.991
14087WAT     H242504   8.613   3.986   1.073
14088WAT      O42505   1.524   1.424   6.241
14088WAT     H142506   1.569   1.432   6.152
14088WAT     H242507   1.578   1.472   6.310
14089WAT      O42508   7.723   3.790   3.423
14089WAT     H142509   7.776   3.866   3.461
14089WAT     H242510   7.704   3.723   3.494
14090WAT      O42511   6.409   4.209   2.664
14090WAT     H142512   6.457   4.138   2.611
14090WAT     H242513   6.337   4.250   2.608
14091WAT      O42514   2.812   7.792   6.353
14091WAT     H142515   2.846   7.818   6.263
14091WAT     H242516   2.839   7.698   6.373
14092WAT      O42517   7.669   3.303   6.313
14092WAT     H142518   7.674   3.317   6.412
14092WAT     H242519   7.757   3.321   6.272
14093WAT      O42520   1.746   4.404   6.030
14093WAT     H142521   1.778   4.422   5.937
14093WAT     H242522   1.685   4.477   6.059
14094WAT      O42523   7.486   3.577   7.845
14094WAT     H142524   7.435   3.557   7.929
14094WAT     H242525   7.575   3.616   7.869
14095WAT      O42526   1.187   7.023   3.615
14095WAT     H142527   1.091   7.027   3.588
14095WAT     H242528   1.225   6.934   3.591
14096WAT      O42529   7.182   6.930   6.942
14096WAT     H142530   7.221   7.018   6.972
14096WAT     H242531   7.085   6.927   6.966
14097WAT      O42532   3.067   2.330   1.135
14097WAT     H142533   3.001   2.308   1.063
14097WAT     H242534   3.055   2.268   1.212
14098WAT      O42535   3.201   1.971   6.729
14098WAT     H142536   3.151   2.053   6.700
14098WAT     H242537   3.279   1.956   6.668
14099WAT      O42538   6.067   8.810   6.857
14099WAT     H142539   6.029   8.748   6.925
14099WAT     H242540   6.011   8.807   6.774
14100WAT      O42541   3.122   2.445   9.153
14100WAT     H142542   3.109   2.484   9.062
14100WAT     H242543   3.154   2.351   9.145
14101WAT      O42544   6.328   0.464   4.883
14101WAT     H142545   6.239   0.508   4.867
14101WAT     H242546   6.336   0.383   4.824
14102WAT      O42547   5.449   5.089   9.623
14102WAT     H142548   5.509   5.078   9.544
14102WAT     H242549   5.493   5.053   9.704
14103WAT      O42550   1.116   1.893   0.202
14103WAT     H142551   1.185   1.966   0.208
14103WAT     H242552   1.088   1.882   0.107
14104WAT      O42553   6.732   0.485   7.428
14104WAT     H142554   6.653   0.432   7.397
14104WAT     H242555   6.701   0.554   7.494
14105WAT      O42556   8.674   2.559   0.666
14105WAT     H142557   8.602   2.574   0.599
14105WAT     H242558   8.721   2.645   0.685
14106WAT      O42559   6.161   3.828   2.035
14106WAT     H142560   6.075   3.878   2.045
14106WAT     H242561   6.168   3.792   1.941
14107WAT      O42562   6.678   2.825   5.083
14107WAT     H142563   6.713   2.741   5.123
14107WAT     H242564   6.731   2.903   5.118
14108WAT      O42565   1.801   2.976   4.092
14108WAT     H142566   1.703   2.973   4.073
14108WAT     H242567   1.816   2.998   4.188
14109WAT      O42568   3.495   2.318   6.113
14109WAT     H142569   3.486   2.406   6.067
14109WAT     H242570   3.585   2.312   6.157
14110WAT      O42571   5.312   4.509   7.046
14110WAT     H142572   5.251   4.529   6.969
14110WAT     H242573   5.405   4.497   7.012
14111WAT      O42574   2.509   0.570   4.678
14111WAT     H142575   2.476   0.500   4.741
14111WAT     H242576   2.492   0.542   4.584
14112WAT      O42577   2.817   5.758   8.008
14112WAT     H142578   2.755   5.768   7.930
14112WAT     H242579   2.902   5.715   7.978
14113WAT      O42580   7.878   9.519   0.617
14113WAT     H142581   7.978   9.516   0.604
14113WAT     H242582   7.854   9.601   0.668
14114WAT      O42583   6.704   5.842   3.285
14114WAT     H142584   6.795   5.865   3.249
14114WAT     H242585   6.645   5.922   3.278
14115WAT      O42586   3.051   6.815   3.918
14115WAT     H142587   2.966   6.859   3.889
14115WAT     H242588   3.117   6.885   3.946
14116WAT      O42589   0.136   0.702   0.717
14116WAT     H142590   0.173   0.795   0.722
14116WAT     H242591   0.211   0.636   0.729
14117WAT      O42592   7.154   5.006   1.884
14117WAT     H142593   7.123   5.075   1.949
14117WAT     H242594   7.088   4.931   1.881
14118WAT      O42595   0.230   8.659   3.771
14118WAT     H142596   0.277   8.739   3.808
14118WAT     H242597   0.212   8.673   3.674
14119WAT      O42598   8.596   6.892   0.646
14119WAT     H142599   8.508   6.926   0.615
14119WAT     H242600   8.583   6.810   0.701
14120WAT      O42601   6.254   0.812   3.562
14120WAT     H142602   6.164   0.829   3.603
14120WAT     H242603   6.324   0.817   3.632
14121WAT      O42604   2.088   0.655   4.611
14121WAT     H142605   2.114   0.743   4.572
14121WAT     H242606   1.996   0.661   4.649
14122WAT      O42607   4.476   6.131   0.572
14122WAT     H142608   4.556   6.092   0.527
14122WAT     H242609   4.494   6.226   0.596
14123WAT      O42610   3.787   2.116   4.706
14123WAT     H142611   3.731   2.078   4.633
14123WAT     H242612   3.750   2.088   4.795
14124WAT      O42613   4.052   0.217   9.422
14124WAT     H142614   3.958   0.202   9.391
14124WAT     H242615   4.065   0.173   9.511
14125WAT      O42616   6.426   2.868   5.178
14125WAT     H142617   6.379   2.811   5.245
14125WAT     H242618   6.487   2.812   5.123
14126WAT      O42619   1.453   0.024   0.085
14126WAT     H142620   1.434  -0.062   0.132
14126WAT     H242621   1.381   0.042   0.018
14127WAT      O42622   6.163   3.201   7.058
14127WAT     H142623   6.076   3.208   7.108
14127WAT     H242624   6.186   3.105   7.045
14128WAT      O42625   2.616   9.814   5.693
14128WAT     H142626   2.569   9.882   5.749
14128WAT     H242627   2.615   9.725   5.739
14129WAT      O42628   6.848   0.577   3.621
14129WAT     H142629   6.775   0.645   3.632
14129WAT     H242630   6.924   0.600   3.681
14130WAT      O42631   4.497   2.255   7.473
14130WAT     H142632   4.564   2.307   7.527
14130WAT     H242633   4.411   2.251   7.522
14131WAT      O42634   7.424   2.752   6.266
14131WAT     H142635   7.518   2.751   6.230
14131WAT     H242636   7.374   2.674   6.229
14132WAT      O42637   5.848   4.820   0.111
14132WAT     H142638   5.764   4.766   0.103
14132WAT     H242639   5.839   4.886   0.185
14133WAT      O42640   2.495   5.549   2.019
14133WAT     H142641   2.586   5.585   2.001
14133WAT     H242642   2.433   5.624   2.044
14134WAT      O42643   4.500   4.082   0.980
14134WAT     H142644   4.527   4.176   0.999
14134WAT     H242645   4.402   4.071   0.996
14135WAT      O42646   5.953   1.189   8.754
14135WAT     H142647   6.033   1.207   8.811
14135WAT     H242648   5.884   1.140   8.807
14136WAT      O42649   5.321   1.772   2.433
14136WAT     H142650   5.264   1.801   2.357
14136WAT     H242651   5.289   1.683   2.466
14137WAT      O42652   5.291   9.534   7.934
14137WAT     H142653   5.253   9.451   7.894
14137WAT     H242654   5.346   9.510   8.014
14138WAT      O42655   8.522   8.495   9.130
14138WAT     H142656   8.425   8.473   9.144
14138WAT     H242657   8.579   8.431   9.180
14139WAT      O42658   3.668   1.627   3.323
14139WAT     H142659   3.691   1.709   3.272
14139WAT     H242660   3.678   1.547   3.264
14140WAT      O42661   3.396   9.602   3.359
14140WAT     H142662   3.368   9.655   3.279
14140WAT     H242663   3.372   9.506   3.345
14141WAT      O42664   3.127   3.641   7.309
14141WAT     H142665   3.178   3.635   7.395
14141WAT     H242666   3.050   3.577   7.312
14142WAT      O42667   6.251   8.842   8.290
14142WAT     H142668   6.221   8.929   8.330
14142WAT     H242669   6.319   8.860   8.218
14143WAT      O42670   9.544   5.519   2.985
14143WAT     H142671   9.580   5.442   3.037
14143WAT     H242672   9.453   5.495   2.949
14144WAT      O42673   5.479   6.371   9.438
14144WAT     H142674   5.431   6.448   9.479
14144WAT     H242675   5.458   6.287   9.489
14145WAT      O42676   4.532   5.348   8.568
14145WAT     H142677   4.573   5.264   8.605
14145WAT     H242678   4.530   5.343   8.468
14146WAT      O42679   6.205   1.475   7.575
14146WAT     H142680   6.247   1.493   7.663
14146WAT     H242681   6.160   1.558   7.542
14147WAT      O42682   2.790   4.148   5.021
14147WAT     H142683   2.748   4.121   5.108
14147WAT     H242684   2.866   4.211   5.038
14148WAT      O42685   6.295   3.222   5.278
14148WAT     H142686   6.243   3.277   5.343
14148WAT     H242687   6.355   3.159   5.327
14149WAT      O42688   6.795   2.804   7.955
14149WAT     H142689   6.857   2.725   7.961
14149WAT     H242690   6.756   2.808   7.864
14150WAT      O42691   0.855   3.040   0.954
14150WAT     H142692   0.946   3.078   0.968
14150WAT     H242693   0.810   3.088   0.878
14151WAT      O42694   5.078   5.440   2.111
14151WAT     H142695   5.171   5.437   2.075
14151WAT     H242696   5.050   5.349   2.141
14152WAT      O42697   5.143   6.285   4.682
14152WAT     H142698   5.124   6.376   4.645
14152WAT     H242699   5.097   6.275   4.770
14153WAT      O42700   7.552   1.093   2.080
14153WAT     H142701   7.480   1.025   2.096
14153WAT     H242702   7.618   1.057   2.014
14154WAT      O42703   8.474   5.072   9.775
14154WAT     H142704   8.534   5.137   9.728
14154WAT     H242705   8.499   4.979   9.749
14155WAT      O42706   5.015   1.577   0.555
14155WAT     H142707   5.004   1.490   0.507
14155WAT     H242708   4.981   1.651   0.499
14156WAT      O42709   6.462   1.425   5.741
14156WAT     H142710   6.529   1.371   5.792
14156WAT     H242711   6.495   1.442   5.649
14157WAT      O42712   1.957   0.083   1.002
14157WAT     H142713   2.008   0.069   1.087
14157WAT     H242714   1.860   0.096   1.023
14158WAT      O42715   2.662   1.138   6.820
14158WAT     H142716   2.563   1.129   6.830
14158WAT     H242717   2.708   1.079   6.887
14159WAT      O42718   2.733   3.962   1.103
14159WAT     H142719   2.742   3.869   1.140
14159WAT     H242720   2.771   4.027   1.168
14160WAT      O42721   0.062   5.742   4.411
14160WAT     H142722   0.009   5.825   4.426
14160WAT     H242723   0.143   5.742   4.469
14161WAT      O42724   8.955   7.479   8.793
14161WAT     H142725   8.934   7.433   8.879
14161WAT     H242726   8.980   7.574   8.812
14162WAT      O42727   9.134   0.998   6.175
14162WAT     H142728   9.123   0.939   6.255
14162WAT     H242729   9.212   1.059   6.189
14163WAT      O42730   6.031   3.927   5.926
14163WAT     H142731   6.059   4.023   5.934
14163WAT     H242732   6.078   3.885   5.849
14164WAT      O42733   6.250   6.825   1.175
14164WAT     H142734   6.260   6.866   1.084
14164WAT     H242735   6.235   6.896   1.243
14165WAT      O42736   5.284   4.228   0.812
14165WAT     H142737   5.305   4.240   0.715
14165WAT     H242738   5.201   4.280   0.835
14166WAT      O42739   3.217   5.312   4.998
14166WAT     H142740   3.242   5.357   4.913
14166WAT     H242741   3.226   5.376   5.074
14167WAT      O42742   8.218   2.885   9.718
14167WAT     H142743   8.138   2.943   9.703
14167WAT     H242744   8.272   2.920   9.794
14168WAT      O42745   0.367   9.001   8.325
14168WAT     H142746   0.401   8.948   8.247
14168WAT     H242747   0.444   9.031   8.381
14169WAT      O42748   1.218   0.426   0.114
14169WAT     H142749   1.124   0.390   0.116
14169WAT     H242750   1.271   0.384   0.188
14170WAT      O42751   7.671   6.952   2.479
14170WAT     H142752   7.598   6.924   2.541
14170WAT     H242753   7.759   6.917   2.512
14171WAT      O42754   8.697   7.990   8.343
14171WAT     H142755   8.652   7.987   8.253
14171WAT     H242756   8.792   8.021   8.331
14172WAT      O42757   8.740   8.145   2.145
14172WAT     H142758   8.840   8.147   2.148
14172WAT     H242759   8.704   8.184   2.230
14173WAT      O42760   9.154   7.615   5.452
14173WAT     H142761   9.248   7.619   5.418
14173WAT     H242762   9.090   7.633   5.378
14174WAT      O42763   3.302   0.956   9.716
14174WAT     H142764   3.394   0.934   9.682
14174WAT     H242765   3.288   1.054   9.712
14175WAT      O42766   6.634   1.533   2.568
14175WAT     H142767   6.706   1.496   2.508
14175WAT     H242768   6.673   1.604   2.626
14176WAT      O42769   4.033   8.575   3.931
14176WAT     H142770   3.982   8.521   3.864
14176WAT     H242771   4.001   8.554   4.023
14177WAT      O42772   9.013   5.468   6.556
14177WAT     H142773   8.977   5.398   6.618
14177WAT     H242774   9.079   5.525   6.605
14178WAT      O42775   6.193   0.825   6.619
14178WAT     H142776   6.211   0.908   6.566
14178WAT     H242777   6.107   0.835   6.668
14179WAT      O42778   1.532   8.396   9.819
14179WAT     H142779   1.529   8.486   9.864
14179WAT     H242780   1.510   8.325   9.886
14180WAT      O42781   0.198   5.763   6.754
14180WAT     H142782   0.214   5.861   6.753
14180WAT     H242783   0.136   5.739   6.829
14181WAT      O42784   1.922   3.135   8.692
14181WAT     H142785   1.849   3.203   8.704
14181WAT     H242786   1.966   3.118   8.780
14182WAT      O42787   9.815   4.515   1.696
14182WAT     H142788   9.807   4.506   1.795
14182WAT     H242789   9.910   4.501   1.669
14183WAT      O42790   5.398   0.980   3.413
14183WAT     H142791   5.384   0.934   3.325
14183WAT     H242792   5.482   0.946   3.455
14184WAT      O42793   9.116   6.605   6.681
14184WAT     H142794   9.170   6.533   6.725
14184WAT     H242795   9.134   6.692   6.727
14185WAT      O42796   7.022   0.508   6.606
14185WAT     H142797   7.118   0.519   6.632
14185WAT     H242798   6.988   0.420   6.638
14186WAT      O42799   8.104   9.067   6.895
14186WAT     H142800   8.008   9.056   6.869
14186WAT     H242801   8.162   9.035   6.820
14187WAT      O42802   3.182   7.109   4.942
14187WAT     H142803   3.168   7.140   5.036
14187WAT     H242804   3.128   7.166   4.880
14188WAT      O42805   4.849   2.599   4.894
14188WAT     H142806   4.821   2.691   4.924
14188WAT     H242807   4.776   2.534   4.916
14189WAT      O42808   1.180   1.476   4.996
14189WAT     H142809   1.244   1.499   4.923
14189WAT     H242810   1.098   1.532   4.988
14190WAT      O42811   7.991   5.849   1.366
14190WAT     H142812   7.929   5.879   1.293
14190WAT     H242813   8.041   5.928   1.401
14191WAT      O42814   9.208   4.436   7.660
14191WAT     H142815   9.265   4.354   7.661
14191WAT     H242816   9.171   4.452   7.752
14192WAT      O42817   6.317   6.987   8.406
14192WAT     H142818   6.407   7.023   8.430
14192WAT     H242819   6.261   6.979   8.489
14193WAT      O42820   9.542   7.058   1.435
14193WAT     H142821   9.486   7.141   1.439
14193WAT     H242822   9.520   6.998   1.511
14194WAT      O42823   0.711   1.470   3.307
14194WAT     H142824   0.747   1.394   3.362
14194WAT     H242825   0.731   1.557   3.353
14195WAT      O42826   7.119   2.765   3.720
14195WAT     H142827   7.197   2.743   3.778
14195WAT     H242828   7.140   2.846   3.665
14196WAT      O42829   1.255   7.927   6.954
14196WAT     H142830   1.276   8.006   7.011
14196WAT     H242831   1.292   7.844   6.996
14197WAT      O42832   3.743   9.271   3.343
14197WAT     H142833   3.706   9.364   3.349
14197WAT     H242834   3.803   9.264   3.263
14198WAT      O42835   8.454   4.520   8.605
14198WAT     H142836   8.444   4.522   8.506
14198WAT     H242837   8.365   4.537   8.648
14199WAT      O42838   8.278   2.011   2.005
14199WAT     H142839   8.284   1.924   1.957
14199WAT     H242840   8.364   2.061   1.995
14200WAT      O42841   8.843   9.208   9.283
14200WAT     H142842   8.781   9.263   9.339
14200WAT     H242843   8.806   9.115   9.274
14201WAT      O42844   4.567   3.230   6.357
14201WAT     H142845   4.481   3.205   6.401
14201WAT     H242846   4.622   3.285   6.420
14202WAT      O42847   8.322   7.587   7.695
14202WAT     H142848   8.288   7.595   7.601
14202WAT     H242849   8.245   7.588   7.758
14203WAT      O42850   2.021   3.170   2.976
14203WAT     H142851   2.078   3.102   2.930
14203WAT     H242852   1.952   3.124   3.032
14204WAT      O42853   1.581   2.970   5.434
14204WAT     H142854   1.660   3.005   5.484
14204WAT     H242855   1.603   2.881   5.395
14205WAT      O42856   0.841   3.252   0.534
14205WAT     H142857   0.898   3.325   0.571
14205WAT     H242858   0.770   3.228   0.601
14206WAT      O42859   9.625   8.172   1.778
14206WAT     H142860   9.543   8.208   1.823
14206WAT     H242861   9.625   8.199   1.682
14207WAT      O42862   8.763   7.306   8.114
14207WAT     H142863   8.812   7.381   8.071
14207WAT     H242864   8.665   7.313   8.092
14208WAT      O42865   2.723   4.693   3.698
14208WAT     H142866   2.722   4.710   3.600
14208WAT     H242867   2.643   4.638   3.723
14209WAT      O42868   2.112   9.520   7.402
14209WAT     H142869   2.123   9.429   7.363
14209WAT     H242870   2.020   9.555   7.381
14210WAT      O42871   1.269   0.881   8.383
14210WAT     H142872   1.261   0.880   8.283
14210WAT     H242873   1.189   0.836   8.423
14211WAT      O42874   3.705   5.611   6.223
14211WAT     H142875   3.735   5.593   6.317
14211WAT     H242876   3.747   5.696   6.191
14212WAT      O42877   9.252   1.607   2.255
14212WAT     H142878   9.219   1.655   2.174
14212WAT     H242879   9.203   1.639   2.336
14213WAT      O42880   3.875   8.466   4.169
14213WAT     H142881   3.803   8.398   4.182
14213WAT     H242882   3.846   8.554   4.207
14214WAT      O42883   8.260   4.788   2.639
14214WAT     H142884   8.355   4.814   2.622
14214WAT     H242885   8.256   4.732   2.722
14215WAT      O42886   1.069   3.797   2.056
14215WAT     H142887   0.993   3.826   2.115
14215WAT     H242888   1.051   3.704   2.023
14216WAT      O42889   9.316   5.912   5.491
14216WAT     H142890   9.259   5.993   5.492
14216WAT     H242891   9.391   5.923   5.557
14217WAT      O42892   8.856   2.583   1.928
14217WAT     H142893   8.797   2.580   1.848
14217WAT     H242894   8.802   2.598   2.010
14218WAT      O42895   1.056   4.344   0.379
14218WAT     H142896   0.957   4.347   0.392
14218WAT     H242897   1.080   4.261   0.327
14219WAT      O42898   2.701   3.067   4.793
14219WAT     H142899   2.618   3.038   4.841
14219WAT     H242900   2.782   3.039   4.845
14220WAT      O42901   5.087   9.251   4.958
14220WAT     H142902   5.114   9.271   4.863
14220WAT     H242903   5.075   9.337   5.007
14221WAT      O42904   2.237   0.469   9.035
14221WAT     H142905   2.288   0.436   9.114
14221WAT     H242906   2.218   0.392   8.973
14222WAT      O42907   4.064   5.604   1.290
14222WAT     H142908   4.116   5.582   1.208
14222WAT     H242909   4.075   5.531   1.357
14223WAT      O42910   5.547   3.085   6.939
14223WAT     H142911   5.528   3.028   7.019
14223WAT     H242912   5.576   3.027   6.863
14224WAT      O42913   8.483   1.671   0.836
14224WAT     H142914   8.548   1.599   0.810
14224WAT     H242915   8.532   1.756   0.854
14225WAT      O42916   9.816   4.780   1.027
14225WAT     H142917   9.815   4.808   1.123
14225WAT     H242918   9.819   4.861   0.969
14226WAT      O42919   6.768   1.391   5.293
14226WAT     H142920   6.835   1.323   5.324
14226WAT     H242921   6.792   1.480   5.331
14227WAT      O42922   5.883   0.114   5.491
14227WAT     H142923   5.917   0.137   5.582
14227WAT     H242924   5.868   0.015   5.485
14228WAT      O42925   8.858   2.571   4.048
14228WAT     H142926   8.844   2.609   4.140
14228WAT     H242927   8.951   2.533   4.042
14229WAT      O42928   8.499   9.202   8.004
14229WAT     H142929   8.448   9.282   7.974
14229WAT     H242930   8.446   9.154   8.075
14230WAT      O42931   6.576   7.407   0.896
14230WAT     H142932   6.582   7.505   0.915
14230WAT     H242933   6.516   7.392   0.817
14231WAT      O42934   7.174   8.960   9.746
14231WAT     H142935   7.206   9.032   9.685
14231WAT     H242936   7.220   8.966   9.834
14232WAT      O42937   6.980   3.258   6.499
14232WAT     H142938   7.037   3.338   6.520
14232WAT     H242939   6.888   3.273   6.533
14233WAT      O42940   5.980   7.834   5.832
14233WAT     H142941   6.068   7.863   5.794
14233WAT     H242942   5.917   7.813   5.757
14234WAT      O42943   5.392   6.616   2.333
14234WAT     H142944   5.429   6.533   2.291
14234WAT     H242945   5.317   6.651   2.277
14235WAT      O42946   1.962   0.957   2.608
14235WAT     H142947   1.891   0.915   2.666
14235WAT     H242948   1.954   0.921   2.515
14236WAT      O42949   8.411   3.832   5.589
14236WAT     H142950   8.393   3.930   5.578
14236WAT     H242951   8.483   3.804   5.526
14237WAT      O42952   4.205   8.300   2.019
14237WAT     H142953   4.256   8.246   1.952
14237WAT     H242954   4.242   8.283   2.111
14238WAT      O42955   6.835   3.358   5.790
14238WAT     H142956   6.777   3.312   5.858
14238WAT     H242957   6.930   3.352   5.818
14239WAT      O42958   5.729   3.331   8.591
14239WAT     H142959   5.793   3.257   8.614
14239WAT     H242960   5.648   3.292   8.548
14240WAT      O42961   5.498   5.972   9.244
14240WAT     H142962   5.508   5.895   9.182
14240WAT     H242963   5.571   6.038   9.227
14241WAT      O42964   6.261   6.420   2.144
14241WAT     H142965   6.201   6.498   2.127
14241WAT     H242966   6.315   6.401   2.062
14242WAT      O42967   5.183   5.756   6.303
14242WAT     H142968   5.140   5.675   6.342
14242WAT     H242969   5.215   5.816   6.377
14243WAT      O42970   8.552   1.390   0.798
14243WAT     H142971   8.472   1.410   0.742
14243WAT     H242972   8.534   1.310   0.855
14244WAT      O42973   3.673   4.435   3.236
14244WAT     H142974   3.605   4.457   3.307
14244WAT     H242975   3.730   4.515   3.218
14245WAT      O42976   2.621   9.386   1.146
14245WAT     H142977   2.567   9.460   1.106
14245WAT     H242978   2.659   9.416   1.233
14246WAT      O42979   3.144   3.786   8.536
14246WAT     H142980   3.175   3.815   8.626
14246WAT     H242981   3.066   3.841   8.508
14247WAT      O42982   0.429   9.235   2.733
14247WAT     H142983   0.470   9.263   2.647
14247WAT     H242984   0.340   9.191   2.715
14248WAT      O42985   3.766   6.228   6.616
14248WAT     H142986   3.780   6.247   6.518
14248WAT     H242987   3.748   6.314   6.664
14249WAT      O42988   6.886   2.075   1.988
14249WAT     H142989   6.951   2.002   1.967
14249WAT     H242990   6.874   2.082   2.087
14250WAT      O42991   2.090   9.691   9.043
14250WAT     H142992   2.011   9.639   9.075
14250WAT     H242993   2.172   9.636   9.054
14251WAT      O42994   2.221   3.228   2.655
14251WAT     H142995   2.264   3.236   2.565
14251WAT     H242996   2.268   3.288   2.720
14252WAT      O42997   6.783   1.908   9.236
14252WAT     H142998   6.704   1.957   9.200
14252WAT     H242999   6.867   1.958   9.214
14253WAT      O43000   0.134   3.455   8.497
14253WAT     H143001   0.091   3.367   8.517
14253WAT     H243002   0.199   3.443   8.422
14254WAT      O43003   2.013   7.973   1.244
14254WAT     H143004   2.070   7.926   1.176
14254WAT     H243005   1.950   8.035   1.198
14255WAT      O43006   5.328   3.662   1.344
14255WAT     H143007   5.277   3.679   1.259
14255WAT     H243008   5.403   3.599   1.325
14256WAT      O43009   5.765   5.774   3.111
14256WAT     H143010   5.744   5.767   3.208
14256WAT     H243011   5.809   5.689   3.080
14257WAT      O43012   8.808   0.697   9.156
14257WAT     H143013   8.782   0.669   9.248
14257WAT     H243014   8.858   0.784   9.160
14258WAT      O43015   6.363   8.093   4.762
14258WAT     H143016   6.367   8.023   4.833
14258WAT     H243017   6.274   8.089   4.717
14259WAT      O43018   6.815   6.087   2.739
14259WAT     H143019   6.736   6.127   2.784
14259WAT     H243020   6.791   5.999   2.698
14260WAT      O43021   0.974   5.609   6.348
14260WAT     H143022   1.054   5.586   6.403
14260WAT     H243023   1.003   5.649   6.261
14261WAT      O43024   5.620   4.010   6.285
14261WAT     H143025   5.531   4.055   6.279
14261WAT     H243026   5.655   3.995   6.192
14262WAT      O43027   0.422   7.325   3.520
14262WAT     H143028   0.381   7.398   3.576
14262WAT     H243029   0.502   7.361   3.472
14263WAT      O43030   8.854   7.526   4.808
14263WAT     H143031   8.776   7.550   4.866
14263WAT     H243032   8.862   7.427   4.800
14264WAT      O43033   3.792   9.677   0.632
14264WAT     H143034   3.806   9.776   0.641
14264WAT     H243035   3.765   9.639   0.721
14265WAT      O43036   2.317   5.758   2.165
14265WAT     H143037   2.352   5.832   2.108
14265WAT     H243038   2.376   5.746   2.244
14266WAT      O43039   5.104   4.706   8.708
14266WAT     H143040   5.185   4.758   8.683
14266WAT     H243041   5.035   4.768   8.747
14267WAT      O43042   5.011   7.229   7.902
14267WAT     H143043   5.032   7.311   7.849
14267WAT     H243044   5.022   7.249   7.999
14268WAT      O43045   2.492   3.553   7.173
14268WAT     H143046   2.475   3.544   7.075
14268WAT     H243047   2.519   3.464   7.211
14269WAT      O43048   7.320   5.339   4.243
14269WAT     H143049   7.348   5.384   4.328
14269WAT     H243050   7.230   5.373   4.216
14270WAT      O43051   1.492   1.298   5.400
14270WAT     H143052   1.397   1.329   5.409
14270WAT     H243053   1.510   1.274   5.304
14271WAT      O43054   7.728   2.362   2.676
14271WAT     H143055   7.694   2.319   2.592
14271WAT     H243056   7.743   2.291   2.745
14272WAT      O43057   2.836   3.489   0.913
14272WAT     H143058   2.835   3.464   0.816
14272WAT     H243059   2.744   3.516   0.941
14273WAT      O43060   5.604   6.331   8.633
14273WAT     H143061   5.533   6.391   8.670
14273WAT     H243062   5.652   6.286   8.708
14274WAT      O43063   9.213   0.869   7.531
14274WAT     H143064   9.146   0.884   7.458
14274WAT     H243065   9.184   0.917   7.614
14275WAT      O43066   8.593   9.822   4.605
14275WAT     H143067   8.501   9.862   4.602
14275WAT     H243068   8.590   9.738   4.660
14276WAT      O43069   0.950   1.141   4.981
14276WAT     H143070   0.949   1.046   4.949
14276WAT     H243071   1.045   1.172   4.990
14277WAT      O43072   8.997   1.930   0.641
14277WAT     H143073   9.029   1.898   0.730
14277WAT     H243074   8.909   1.976   0.652
14278WAT      O43075   2.954   7.923   5.409
14278WAT     H143076   2.947   8.007   5.356
14278WAT     H243077   2.869   7.871   5.400
14279WAT      O43078   6.311   4.728   8.435
14279WAT     H143079   6.339   4.757   8.344
14279WAT     H243080   6.319   4.629   8.443
14280WAT      O43081   1.288   6.367   3.324
14280WAT     H143082   1.238   6.303   3.266
14280WAT     H243083   1.354   6.418   3.268
14281WAT      O43084   7.223   2.961   3.547
14281WAT     H143085   7.202   2.910   3.463
14281WAT     H243086   7.288   3.034   3.526
14282WAT      O43087   2.592   6.086   9.239
14282WAT     H143088   2.527   6.157   9.266
14282WAT     H243089   2.615   6.029   9.318
14283WAT      O43090   4.587   7.191   1.559
14283WAT     H143091   4.657   7.179   1.630
14283WAT     H243092   4.615   7.144   1.476
14284WAT      O43093   1.681   5.075   1.124
14284WAT     H143094   1.684   5.147   1.193
14284WAT     H243095   1.714   4.990   1.163
14285WAT      O43096   2.621   8.997   3.438
14285WAT     H143097   2.521   9.005   3.445
14285WAT     H243098   2.646   8.901   3.426
14286WAT      O43099   9.606   4.664   1.279
14286WAT     H143100   9.527   4.673   1.219
14286WAT     H243101   9.668   4.741   1.264
14287WAT      O43102   8.845   3.515   2.729
14287WAT     H143103   8.903   3.594   2.708
14287WAT     H243104   8.893   3.455   2.793
14288WAT      O43105   1.638   1.743   5.473
14288WAT     H143106   1.548   1.734   5.432
14288WAT     H243107   1.654   1.667   5.536
14289WAT      O43108   4.496   5.638   4.916
14289WAT     H143109   4.422   5.639   4.849
14289WAT     H243110   4.497   5.550   4.963
14290WAT      O43111   0.440   0.523   8.470
14290WAT     H143112   0.529   0.565   8.451
14290WAT     H243113   0.425   0.448   8.406
14291WAT      O43114   7.162   7.643   0.010
14291WAT     H143115   7.077   7.659  -0.039
14291WAT     H243116   7.214   7.729   0.014
14292WAT      O43117   8.298   9.363   1.824
14292WAT     H143118   8.217   9.308   1.805
14292WAT     H243119   8.306   9.377   1.923
14293WAT      O43120   1.659   9.833   6.712
14293WAT     H143121   1.746   9.814   6.756
14293WAT     H243122   1.590   9.853   6.782
14294WAT      O43123   6.348   6.265   8.343
14294WAT     H143124   6.328   6.201   8.417
14294WAT     H243125   6.267   6.319   8.322
14295WAT      O43126   9.263   5.897   1.946
14295WAT     H143127   9.174   5.861   1.915
14295WAT     H243128   9.252   5.940   2.035
14296WAT      O43129   6.262   9.761   5.397
14296WAT     H143130   6.187   9.760   5.331
14296WAT     H243131   6.321   9.681   5.382
14297WAT      O43132   4.549   5.001   7.716
14297WAT     H143133   4.581   5.084   7.671
14297WAT     H243134   4.450   5.006   7.730
14298WAT      O43135   2.885   6.700   0.940
14298WAT     H143136   2.938   6.650   1.009
14298WAT     H243137   2.788   6.693   0.962
14299WAT      O43138   1.687   9.571   6.610
14299WAT     H143139   1.666   9.666   6.631
14299WAT     H243140   1.602   9.518   6.605
14300WAT      O43141   2.103   6.805   5.701
14300WAT     H143142   2.069   6.801   5.607
14300WAT     H243143   2.189   6.755   5.707
14301WAT      O43144   7.096   5.461   9.070
14301WAT     H143145   7.011   5.432   9.115
14301WAT     H243146   7.171   5.402   9.100
14302WAT      O43147   6.469   7.919   8.230
14302WAT     H143148   6.398   7.983   8.260
14302WAT     H243149   6.447   7.887   8.138
14303WAT      O43150   8.830   5.559   9.716
14303WAT     H143151   8.846   5.629   9.785
14303WAT     H243152   8.790   5.600   9.634
14304WAT      O43153   4.718   3.181   6.708
14304WAT     H143154   4.650   3.245   6.671
14304WAT     H243155   4.807   3.227   6.714
14305WAT      O43156   7.252   5.298   5.978
14305WAT     H143157   7.166   5.262   6.013
14305WAT     H243158   7.306   5.223   5.938
14306WAT      O43159   5.549   5.123   7.044
14306WAT     H143160   5.523   5.051   7.109
14306WAT     H243161   5.512   5.211   7.075
14307WAT      O43162   5.184   6.324   1.149
14307WAT     H143163   5.129   6.404   1.175
14307WAT     H243164   5.280   6.343   1.168
14308WAT      O43165   9.062   2.188   9.543
14308WAT     H143166   9.014   2.256   9.489
14308WAT     H243167   9.019   2.180   9.633
14309WAT      O43168   2.411   9.512   0.256
14309WAT     H143169   2.323   9.512   0.304
14309WAT     H243170   2.439   9.606   0.237
14310WAT      O43171   2.559   1.385   5.972
14310WAT     H143172   2.480   1.328   5.995
14310WAT     H243173   2.529   1.480   5.959
14311WAT      O43174   7.723   0.220   7.372
14311WAT     H143175   7.788   0.154   7.412
14311WAT     H243176   7.630   0.186   7.384
14312WAT      O43177   3.311   2.518   2.180
14312WAT     H143178   3.320   2.506   2.278
14312WAT     H243179   3.400   2.509   2.136
14313WAT      O43180   4.402   9.752   4.071
14313WAT     H143181   4.319   9.801   4.099
14313WAT     H243182   4.474   9.769   4.138
14314WAT      O43183   6.634   4.515   6.301
14314WAT     H143184   6.613   4.506   6.399
14314WAT     H243185   6.573   4.584   6.261
14315WAT      O43186   6.637   8.067   5.624
14315WAT     H143187   6.662   7.972   5.605
14315WAT     H243188   6.702   8.128   5.578
14316WAT      O43189   2.881   9.688   8.499
14316WAT     H143190   2.909   9.646   8.585
14316WAT     H243191   2.823   9.625   8.448
14317WAT      O43192   2.811   4.153   9.801
14317WAT     H143193   2.770   4.123   9.715
14317WAT     H243194   2.748   4.215   9.848
14318WAT      O43195   2.608   5.750   7.798
14318WAT     H143196   2.516   5.787   7.792
14318WAT     H243197   2.630   5.700   7.713
14319WAT      O43198   8.122   8.789   2.957
14319WAT     H143199   8.089   8.878   2.989
14319WAT     H243200   8.063   8.755   2.885
14320WAT      O43201   1.168   6.413   2.878
14320WAT     H143202   1.180   6.348   2.953
14320WAT     H243203   1.116   6.492   2.911
14321WAT      O43204   6.459   8.389   8.335
14321WAT     H143205   6.534   8.335   8.296
14321WAT     H243206   6.466   8.483   8.301
14322WAT      O43207   4.944   1.841   4.246
14322WAT     H143208   4.980   1.826   4.154
14322WAT     H243209   4.846   1.823   4.246
14323WAT      O43210   8.669   7.776   4.100
14323WAT     H143211   8.729   7.853   4.124
14323WAT     H243212   8.722   7.692   4.095
14324WAT      O43213   2.344   9.673   7.461
14324WAT     H143214   2.261   9.623   7.437
14324WAT     H243215   2.342   9.696   7.559
14325WAT      O43216   6.070   8.006   3.249
14325WAT     H143217   6.114   7.919   3.229
14325WAT     H243218   5.986   7.990   3.301
14326WAT      O43219   2.648   8.701   8.018
14326WAT     H143220   2.735   8.650   8.021
14326WAT     H243221   2.574   8.638   7.997
14327WAT      O43222   0.454   3.990   3.955
14327WAT     H143223   0.381   3.981   3.887
14327WAT     H243224   0.415   3.985   4.047
14328WAT      O43225   4.663   2.835   1.909
14328WAT     H143226   4.599   2.869   1.840
14328WAT     H243227   4.715   2.912   1.947
14329WAT      O43228   8.313   7.820   4.811
14329WAT     H143229   8.354   7.731   4.793
14329WAT     H243230   8.214   7.809   4.827
14330WAT      O43231   5.330   1.459   0.381
14330WAT     H143232   5.314   1.380   0.440
14330WAT     H243233   5.290   1.541   0.423
14331WAT      O43234   4.771   1.304   9.819
14331WAT     H143235   4.718   1.377   9.774
14331WAT     H243236   4.773   1.322   9.917
14332WAT      O43237   3.275   4.498   8.304
14332WAT     H143238   3.195   4.498   8.364
14332WAT     H243239   3.300   4.403   8.282
14333WAT      O43240   4.143   2.219   1.861
14333WAT     H143241   4.215   2.229   1.793
14333WAT     H243242   4.182   2.187   1.947
14334WAT      O43243   4.967   9.399   3.879
14334WAT     H143244   4.907   9.474   3.852
14334WAT     H243245   4.934   9.360   3.965
14335WAT      O43246   1.626   0.788   1.622
14335WAT     H143247   1.671   0.815   1.707
14335WAT     H243248   1.686   0.808   1.544
14336WAT      O43249   3.394   6.735   3.365
14336WAT     H143250   3.369   6.647   3.405
14336WAT     H243251   3.333   6.756   3.289
14337WAT      O43252   9.561   3.231   4.527
14337WAT     H143253   9.537   3.146   4.480
14337WAT     H243254   9.517   3.233   4.617
14338WAT      O43255   5.121   7.506   5.702
14338WAT     H143256   5.125   7.416   5.659
14338WAT     H243257   5.205   7.521   5.756
14339WAT      O43258   4.608   2.107   7.100
14339WAT     H143259   4.595   2.132   7.004
14339WAT     H243260   4.700   2.135   7.129
14340WAT      O43261   7.111   7.875   6.512
14340WAT     H143262   7.105   7.969   6.545
14340WAT     H243263   7.019   7.838   6.501
14341WAT      O43264   5.894   4.370   7.056
14341WAT     H143265   5.879   4.271   7.060
14341WAT     H243266   5.865   4.405   6.967
14342WAT      O43267   5.893   0.856   6.397
14342WAT     H143268   5.822   0.848   6.328
14342WAT     H243269   5.857   0.827   6.486
14343WAT      O43270   5.329   2.969   2.324
14343WAT     H143271   5.376   2.995   2.239
14343WAT     H243272   5.365   2.882   2.356
14344WAT      O43273   1.177   0.192   6.295
14344WAT     H143274   1.267   0.160   6.322
14344WAT     H243275   1.138   0.131   6.226
14345WAT      O43276   9.860   0.164   8.325
14345WAT     H143277   9.892   0.158   8.230
14345WAT     H243278   9.801   0.087   8.346
14346WAT      O43279   3.743   7.726   0.416
14346WAT     H143280   3.650   7.691   0.431
14346WAT     H243281   3.771   7.780   0.495
14347WAT      O43282   7.716   6.220   5.904
14347WAT     H143283   7.648   6.267   5.961
14347WAT     H243284   7.793   6.282   5.886
14348WAT      O43285   0.544   7.675   7.201
14348WAT     H143286   0.450   7.657   7.229
14348WAT     H243287   0.552   7.664   7.102
14349WAT      O43288   0.066   0.142   8.072
14349WAT     H143289   0.090   0.051   8.039
14349WAT     H243290  -0.001   0.183   8.010
14350WAT      O43291   3.322   1.103   4.259
14350WAT     H143292   3.229   1.133   4.278
14350WAT     H243293   3.342   1.019   4.310
14351WAT      O43294   2.155   9.161   0.161
14351WAT     H143295   2.174   9.259   0.148
14351WAT     H243296   2.225   9.107   0.114
14352WAT      O43297   6.522   0.218   1.112
14352WAT     H143298   6.562   0.271   1.037
14352WAT     H243299   6.588   0.151   1.145
14353WAT      O43300   4.659   1.901   0.524
14353WAT     H143301   4.586   1.918   0.590
14353WAT     H243302   4.654   1.969   0.451
14354WAT      O43303   3.504   8.075   6.332
14354WAT     H143304   3.579   8.032   6.281
14354WAT     H243305   3.431   8.009   6.344
14355WAT      O43306   6.347   5.761   8.304
14355WAT     H143307   6.392   5.736   8.389
14355WAT     H243308   6.248   5.766   8.318
14356WAT      O43309   0.829   9.001   9.769
14356WAT     H143310   0.732   9.021   9.758
14356WAT     H243311   0.882   9.054   9.703
14357WAT      O43312   1.969   2.126   6.825
14357WAT     H143313   1.922   2.105   6.740
14357WAT     H243314   1.928   2.206   6.868
14358WAT      O43315   8.864   4.871   4.480
14358WAT     H143316   8.870   4.771   4.473
14358WAT     H243317   8.811   4.896   4.561
14359WAT      O43318   0.983   3.596   9.846
14359WAT     H143319   0.969   3.529   9.919
14359WAT     H243320   1.047   3.666   9.876
14360WAT      O43321   5.587   0.575   9.622
14360WAT     H143322   5.634   0.628   9.693
14360WAT     H243323   5.641   0.494   9.599
14361WAT      O43324   6.709   4.360   6.802
14361WAT     H143325   6.791   4.320   6.842
14361WAT     H243326   6.639   4.289   6.793
14362WAT      O43327   7.409   4.238   9.855
14362WAT     H143328   7.405   4.336   9.836
14362WAT     H243329   7.483   4.196   9.803
14363WAT      O43330   5.977   5.343   3.756
14363WAT     H143331   6.056   5.333   3.696
14363WAT     H243332   6.007   5.371   3.847
14364WAT      O43333   6.765   1.833   1.364
14364WAT     H143334   6.720   1.888   1.434
14364WAT     H243335   6.831   1.772   1.407
14365WAT      O43336   6.543   0.713   7.235
14365WAT     H143337   6.550   0.765   7.321
14365WAT     H243338   6.494   0.768   7.168
14366WAT      O43339   6.379   2.922   7.532
14366WAT     H143340   6.301   2.980   7.511
14366WAT     H243341   6.370   2.885   7.625
14367WAT      O43342   8.116   6.918   1.924
14367WAT     H143343   8.141   6.981   1.850
14367WAT     H243344   8.140   6.825   1.898
14368WAT      O43345   3.156   0.748   4.026
14368WAT     H143346   3.205   0.835   4.034
14368WAT     H243347   3.116   0.740   3.935
14369WAT      O43348   7.310   8.381   1.940
14369WAT     H143349   7.355   8.325   2.008
14369WAT     H243350   7.357   8.469   1.932
14370WAT      O43351   7.519   1.637   8.558
14370WAT     H143352   7.507   1.605   8.464
14370WAT     H243353   7.431   1.661   8.597
14371WAT      O43354   5.817   2.401   2.921
14371WAT     H143355   5.892   2.437   2.866
14371WAT     H243356   5.850   2.324   2.976
14372WAT      O43357   4.001   1.462   8.326
14372WAT     H143358   4.064   1.537   8.309
14372WAT     H243359   3.922   1.470   8.265
14373WAT      O43360   6.280   2.609   5.772
14373WAT     H143361   6.186   2.619   5.806
14373WAT     H243362   6.307   2.513   5.778
14374WAT      O43363   6.048   9.360   5.307
14374WAT     H143364   6.138   9.395   5.333
14374WAT     H243365   6.046   9.260   5.320
14375WAT      O43366   6.595   3.772   3.334
14375WAT     H143367   6.576   3.812   3.244
14375WAT     H243368   6.630   3.679   3.323
14376WAT      O43369   9.484   3.616   0.135
14376WAT     H143370   9.415   3.671   0.183
14376WAT     H243371   9.441   3.565   0.061
14377WAT      O43372   3.072   1.245   7.870
14377WAT     H143373   3.115   1.157   7.887
14377WAT     H243374   3.026   1.244   7.781
14378WAT      O43375   5.877   8.834   6.653
14378WAT     H143376   5.898   8.911   6.593
14378WAT     H243377   5.784   8.844   6.689
14379WAT      O43378   9.696   8.790   0.807
14379WAT     H143379   9.674   8.797   0.710
14379WAT     H243380   9.613   8.774   0.859
14380WAT      O43381   5.904   8.430   9.780
14380WAT     H143382   5.820   8.472   9.814
14380WAT     H243383   5.881   8.364   9.709
14381WAT      O43384   6.246   7.614   1.899
14381WAT     H143385   6.155   7.591   1.933
14381WAT     H243386   6.296   7.529   1.878
14382WAT      O43387   7.549   4.826   9.564
14382WAT     H143388   7.602   4.817   9.480
14382WAT     H243389   7.589   4.899   9.621
14383WAT      O43390   6.069   3.338   8.268
14383WAT     H143391   6.000   3.267   8.257
14383WAT     H243392   6.139   3.307   8.333
14384WAT      O43393   3.956   8.294   7.053
14384WAT     H143394   3.965   8.380   7.002
14384WAT     H243395   4.020   8.227   7.016
14385WAT      O43396   7.307   1.171   3.642
14385WAT     H143397   7.217   1.162   3.685
14385WAT     H243398   7.296   1.184   3.543
14386WAT      O43399   3.011   3.939   3.705
14386WAT     H143400   2.997   3.998   3.784
14386WAT     H243401   3.071   3.984   3.639
14387WAT      O43402   4.869   7.941   9.564
14387WAT     H143403   4.900   7.933   9.469
14387WAT     H243404   4.921   7.877   9.621
14388WAT      O43405   9.400   3.300   2.808
14388WAT     H143406   9.316   3.254   2.837
14388WAT     H243407   9.404   3.392   2.847
14389WAT      O43408   8.476   2.748   3.472
14389WAT     H143409   8.382   2.780   3.487
14389WAT     H243410   8.482   2.651   3.493
14390WAT      O43411   0.156   6.383   5.923
14390WAT     H143412   0.115   6.368   5.833
14390WAT     H243413   0.087   6.421   5.985
14391WAT      O43414   6.845   2.615   8.494
14391WAT     H143415   6.821   2.531   8.543
14391WAT     H243416   6.810   2.610   8.401
14392WAT      O43417   0.717   0.628   8.986
14392WAT     H143418   0.727   0.623   8.887
14392WAT     H243419   0.624   0.599   9.011
14393WAT      O43420   6.788   4.013   8.385
14393WAT     H143421   6.769   4.089   8.322
14393WAT     H243422   6.722   3.939   8.368
14394WAT      O43423   7.112   9.386   1.687
14394WAT     H143424   7.193   9.431   1.648
14394WAT     H243425   7.118   9.386   1.787
14395WAT      O43426   0.920   9.689   4.974
14395WAT     H143427   0.891   9.741   5.054
14395WAT     H243428   1.020   9.681   4.974
14396WAT      O43429   1.410   4.902   0.479
14396WAT     H143430   1.381   4.939   0.391
14396WAT     H243431   1.345   4.833   0.509
14397WAT      O43432   3.176   1.987   7.535
14397WAT     H143433   3.079   2.006   7.547
14397WAT     H243434   3.230   2.069   7.555
14398WAT      O43435   0.156   7.948   9.665
14398WAT     H143436   0.175   7.902   9.579
14398WAT     H243437   0.182   7.888   9.741
14399WAT      O43438   3.972   4.077   0.979
14399WAT     H143439   3.966   4.017   0.900
14399WAT     H243440   3.887   4.128   0.989
14400WAT      O43441   7.414   8.593   3.295
14400WAT     H143442   7.449   8.521   3.234
14400WAT     H243443   7.490   8.630   3.349
14401WAT      O43444   0.303   3.593   6.997
14401WAT     H143445   0.303   3.693   7.000
14401WAT     H243446   0.386   3.562   6.951
14402WAT      O43447   4.317   2.608   0.057
14402WAT     H143448   4.407   2.651   0.045
14402WAT     H243449   4.329   2.510   0.070
14403WAT      O43450   2.698   7.438   2.016
14403WAT     H143451   2.723   7.471   1.925
14403WAT     H243452   2.716   7.340   2.022
14404WAT      O43453   1.498   6.525   3.192
14404WAT     H143454   1.552   6.441   3.187
14404WAT     H243455   1.526   6.587   3.119
14405WAT      O43456   0.142   2.737   4.711
14405WAT     H143457   0.132   2.757   4.808
14405WAT     H243458   0.127   2.820   4.658
14406WAT      O43459   2.611   3.817   7.119
14406WAT     H143460   2.568   3.736   7.159
14406WAT     H243461   2.616   3.805   7.020
14407WAT      O43462   4.017   3.012   9.713
14407WAT     H143463   3.954   2.950   9.760
14407WAT     H243464   4.103   3.018   9.764
14408WAT      O43465   0.638   1.509   5.591
14408WAT     H143466   0.626   1.434   5.526
14408WAT     H243467   0.558   1.568   5.590
14409WAT      O43468   3.439   5.806   4.053
14409WAT     H143469   3.457   5.723   4.107
14409WAT     H243470   3.420   5.882   4.114
14410WAT      O43471   5.238   1.105   1.290
14410WAT     H143472   5.167   1.035   1.282
14410WAT     H243473   5.206   1.190   1.249
14411WAT      O43474   3.165   6.580   5.939
14411WAT     H143475   3.213   6.505   5.982
14411WAT     H243476   3.229   6.655   5.921
14412WAT      O43477   6.531   7.731   9.686
14412WAT     H143478   6.482   7.644   9.682
14412WAT     H243479   6.578   7.747   9.599
14413WAT      O43480   5.202   6.113   3.181
14413WAT     H143481   5.280   6.091   3.122
14413WAT     H243482   5.119   6.114   3.126
14414WAT      O43483   5.559   8.274   4.782
14414WAT     H143484   5.585   8.357   4.830
14414WAT     H243485   5.578   8.284   4.684
14415WAT      O43486   0.733   4.026   7.836
14415WAT     H143487   0.831   4.010   7.824
14415WAT     H243488   0.719   4.090   7.911
14416WAT      O43489   2.001   6.869   6.608
14416WAT     H143490   1.995   6.959   6.651
14416WAT     H243491   1.916   6.851   6.558
14417WAT      O43492   5.665   8.552   4.911
14417WAT     H143493   5.693   8.647   4.893
14417WAT     H243494   5.744   8.491   4.899
14418WAT      O43495   1.502   4.285   4.711
14418WAT     H143496   1.483   4.272   4.809
14418WAT     H243497   1.600   4.302   4.698
14419WAT      O43498   5.573   3.512   4.916
14419WAT     H143499   5.649   3.552   4.967
14419WAT     H243500   5.490   3.513   4.973
14420WAT      O43501   6.355   0.647   7.743
14420WAT     H143502   6.419   0.657   7.667
14420WAT     H243503   6.406   0.639   7.828
14421WAT      O43504   3.508   8.340   1.729
14421WAT     H143505   3.417   8.362   1.693
14421WAT     H243506   3.566   8.305   1.655
14422WAT      O43507   4.430   8.421   1.660
14422WAT     H143508   4.348   8.473   1.684
14422WAT     H243509   4.409   8.324   1.661
14423WAT      O43510   9.307   2.333   7.523
14423WAT     H143511   9.240   2.390   7.570
14423WAT     H243512   9.399   2.359   7.551
14424WAT      O43513   1.118   7.497   0.719
14424WAT     H143514   1.112   7.593   0.693
14424WAT     H243515   1.200   7.456   0.680
14425WAT      O43516   7.538   7.232   7.900
14425WAT     H143517   7.471   7.159   7.909
14425WAT     H243518   7.587   7.244   7.986
14426WAT      O43519   5.618   1.817   3.279
14426WAT     H143520   5.532   1.765   3.284
14426WAT     H243521   5.597   1.914   3.268
14427WAT      O43522   1.671   5.380   3.175
14427WAT     H143523   1.675   5.445   3.251
14427WAT     H243524   1.764   5.352   3.150
14428WAT      O43525   1.515   5.219   7.514
14428WAT     H143526   1.455   5.181   7.584
14428WAT     H243527   1.598   5.163   7.508
14429WAT      O43528   1.310   8.321   1.573
14429WAT     H143529   1.294   8.297   1.478
14429WAT     H243530   1.286   8.244   1.632
14430WAT      O43531   3.193   0.422   2.711
14430WAT     H143532   3.253   0.501   2.705
14430WAT     H243533   3.117   0.433   2.647
14431WAT      O43534   7.211   9.708   8.779
14431WAT     H143535   7.242   9.733   8.687
14431WAT     H243536   7.271   9.750   8.847
14432WAT      O43537   7.308   2.870   0.908
14432WAT     H143538   7.225   2.871   0.853
14432WAT     H243539   7.362   2.789   0.887
14433WAT      O43540   0.056   6.632   1.261
14433WAT     H143541   0.110   6.716   1.258
14433WAT     H243542   0.011   6.617   1.173
14434WAT      O43543   6.214   6.799   7.909
14434WAT     H143544   6.306   6.801   7.872
14434WAT     H243545   6.200   6.714   7.960
14435WAT      O43546   1.659   8.904   5.850
14435WAT     H143547   1.675   8.991   5.897
14435WAT     H243548   1.720   8.834   5.888
14436WAT      O43549   0.660   2.871   8.169
14436WAT     H143550   0.749   2.898   8.205
14436WAT     H243551   0.672   2.801   8.099
14437WAT      O43552   3.205   6.719   2.709
14437WAT     H143553   3.175   6.814   2.705
14437WAT     H243554   3.305   6.716   2.713
14438WAT      O43555   6.395   8.525   6.242
14438WAT     H143556   6.298   8.541   6.261
14438WAT     H243557   6.415   8.551   6.148
14439WAT      O43558   4.485   9.694   5.034
14439WAT     H143559   4.441   9.784   5.039
14439WAT     H243560   4.445   9.642   4.959
14440WAT      O43561   3.875   0.740   3.119
14440WAT     H143562   3.941   0.686   3.066
14440WAT     H243563   3.851   0.691   3.203
14441WAT      O43564   4.850   4.862   1.713
14441WAT     H143565   4.813   4.800   1.644
14441WAT     H243566   4.883   4.945   1.669
14442WAT      O43567   5.073   7.093   1.138
14442WAT     H143568   5.102   7.145   1.058
14442WAT     H243569   5.125   7.008   1.143
14443WAT      O43570   1.455   8.147   2.942
14443WAT     H143571   1.415   8.074   2.888
14443WAT     H243572   1.434   8.236   2.900
14444WAT      O43573   3.210   7.286   1.007
14444WAT     H143574   3.130   7.338   0.977
14444WAT     H243575   3.186   7.230   1.087
14445WAT      O43576   9.563   9.106   0.536
14445WAT     H143577   9.599   9.032   0.480
14445WAT     H243578   9.583   9.194   0.492
14446WAT      O43579   2.690   3.812   4.208
14446WAT     H143580   2.784   3.801   4.239
14446WAT     H243581   2.637   3.860   4.277
14447WAT      O43582   9.574   4.846   9.055
14447WAT     H143583   9.554   4.842   8.957
14447WAT     H243584   9.620   4.762   9.083
14448WAT      O43585   5.909   1.274   1.743
14448WAT     H143586   5.943   1.340   1.676
14448WAT     H243587   5.982   1.252   1.808
14449WAT      O43588   6.179   5.670   6.368
14449WAT     H143589   6.244   5.666   6.292
14449WAT     H243590   6.106   5.735   6.345
14450WAT      O43591   1.641   0.579   6.364
14450WAT     H143592   1.632   0.481   6.346
14450WAT     H243593   1.567   0.609   6.424
14451WAT      O43594   0.498   2.339   4.330
14451WAT     H143595   0.556   2.388   4.265
14451WAT     H243596   0.484   2.246   4.297
14452WAT      O43597   4.071   2.754   6.509
14452WAT     H143598   4.024   2.841   6.521
14452WAT     H243599   4.008   2.687   6.468
14453WAT      O43600   2.068   1.365   9.145
14453WAT     H143601   2.078   1.346   9.047
14453WAT     H243602   2.080   1.281   9.197
14454WAT      O43603   6.502   6.000   3.212
14454WAT     H143604   6.468   5.934   3.144
14454WAT     H243605   6.503   6.091   3.172
14455WAT      O43606   6.792   9.429   7.407
14455WAT     H143607   6.730   9.504   7.433
14455WAT     H243608   6.744   9.342   7.417
14456WAT      O43609   4.451   2.405   5.968
14456WAT     H143610   4.465   2.327   6.030
14456WAT     H243611   4.385   2.468   6.008
14457WAT      O43612   0.302   8.683   0.888
14457WAT     H143613   0.342   8.606   0.938
14457WAT     H243614   0.202   8.672   0.885
14458WAT      O43615   5.530   7.469   6.410
14458WAT     H143616   5.539   7.506   6.317
14458WAT     H243617   5.586   7.523   6.473
14459WAT      O43618   5.116   4.973   2.365
14459WAT     H143619   5.113   4.888   2.312
14459WAT     H243620   5.069   4.959   2.452
14460WAT      O43621   0.880   8.778   0.473
14460WAT     H143622   0.797   8.833   0.484
14460WAT     H243623   0.938   8.820   0.403
14461WAT      O43624   2.109   5.612   5.034
14461WAT     H143625   2.089   5.652   4.945
14461WAT     H243626   2.154   5.523   5.021
14462WAT      O43627   7.179   4.829   0.987
14462WAT     H143628   7.276   4.833   1.009
14462WAT     H243629   7.137   4.918   1.006
14463WAT      O43630   1.909   0.685   2.853
14463WAT     H143631   1.893   0.770   2.903
14463WAT     H243632   1.827   0.627   2.860
14464WAT      O43633   2.508   0.716   8.762
14464WAT     H143634   2.443   0.745   8.832
14464WAT     H243635   2.460   0.697   8.677
14465WAT      O43636   5.175   4.847   0.179
14465WAT     H143637   5.223   4.932   0.157
14465WAT     H243638   5.194   4.779   0.108
14466WAT      O43639   3.685   3.851   4.407
14466WAT     H143640   3.720   3.793   4.334
14466WAT     H243641   3.587   3.866   4.394
14467WAT      O43642   1.128   6.071   0.606
14467WAT     H143643   1.056   6.109   0.549
14467WAT     H243644   1.094   5.988   0.651
14468WAT      O43645   6.019   9.305   4.533
14468WAT     H143646   5.975   9.218   4.557
14468WAT     H243647   6.103   9.287   4.483
14469WAT      O43648   1.697   6.740   1.761
14469WAT     H143649   1.680   6.695   1.848
14469WAT     H243650   1.692   6.674   1.687
14470WAT      O43651   6.828   4.530   3.678
14470WAT     H143652   6.792   4.450   3.726
14470WAT     H243653   6.784   4.612   3.713
14471WAT      O43654   9.628   8.190   7.458
14471WAT     H143655   9.563   8.190   7.382
14471WAT     H243656   9.701   8.256   7.440
14472WAT      O43657   8.523   9.287   2.571
14472WAT     H143658   8.470   9.370   2.554
14472WAT     H243659   8.462   9.213   2.600
14473WAT      O43660   4.885   7.739   2.612
14473WAT     H143661   4.958   7.757   2.678
14473WAT     H243662   4.925   7.721   2.522
14474WAT      O43663   7.293   4.076   7.431
14474WAT     H143664   7.354   4.048   7.357
14474WAT     H243665   7.237   3.998   7.459
14475WAT      O43666   5.946   4.171   9.875
14475WAT     H143667   5.929   4.073   9.885
14475WAT     H243668   5.945   4.195   9.778
14476WAT      O43669   2.736   8.234   6.283
14476WAT     H143670   2.800   8.278   6.221
14476WAT     H243671   2.684   8.303   6.333
14477WAT      O43672   2.682   0.872   1.619
14477WAT     H143673   2.604   0.815   1.594
14477WAT     H243674   2.746   0.877   1.543
14478WAT      O43675   2.201   6.474   8.701
14478WAT     H143676   2.249   6.475   8.788
14478WAT     H243677   2.226   6.392   8.650
14479WAT      O43678   1.684   6.416   4.588
14479WAT     H143679   1.678   6.327   4.635
14479WAT     H243680   1.777   6.451   4.593
14480WAT      O43681   9.600   1.754   6.459
14480WAT     H143682   9.571   1.694   6.533
14480WAT     H243683   9.661   1.705   6.397
14481WAT      O43684   6.709   6.915   4.174
14481WAT     H143685   6.760   6.907   4.088
14481WAT     H243686   6.772   6.943   4.247
14482WAT      O43687   3.315   3.415   1.969
14482WAT     H143688   3.351   3.322   1.980
14482WAT     H243689   3.391   3.480   1.964
14483WAT      O43690   5.085   5.785   1.431
14483WAT     H143691   5.064   5.759   1.337
14483WAT     H243692   5.135   5.711   1.476
14484WAT      O43693   7.807   4.037   5.568
14484WAT     H143694   7.773   3.972   5.500
14484WAT     H243695   7.816   4.128   5.526
14485WAT      O43696   8.293   2.675   0.722
14485WAT     H143697   8.196   2.691   0.700
14485WAT     H243698   8.317   2.581   0.698
14486WAT      O43699   5.170   3.407   5.699
14486WAT     H143700   5.210   3.364   5.618
14486WAT     H243701   5.241   3.457   5.749
14487WAT      O43702   3.201   0.135   2.314
14487WAT     H143703   3.145   0.133   2.398
14487WAT     H243704   3.140   0.136   2.234
14488WAT      O43705   5.449   0.558   5.238
14488WAT     H143706   5.405   0.606   5.162
14488WAT     H243707   5.380   0.528   5.303
14489WAT      O43708   2.103   0.289   7.372
14489WAT     H143709   2.066   0.304   7.464
14489WAT     H243710   2.086   0.194   7.345
14490WAT      O43711   6.969   4.301   5.028
14490WAT     H143712   6.932   4.284   5.119
14490WAT     H243713   7.069   4.311   5.034
14491WAT      O43714   1.728   7.355   6.837
14491WAT     H143715   1.821   7.363   6.872
14491WAT     H243716   1.710   7.428   6.772
14492WAT      O43717   3.113   1.123   0.675
14492WAT     H143718   3.195   1.107   0.620
14492WAT     H243719   3.049   1.180   0.625
14493WAT      O43720   5.655   0.169   0.087
14493WAT     H143721   5.634   0.264   0.065
14493WAT     H243722   5.616   0.146   0.176
14494WAT      O43723   4.236   4.635   2.486
14494WAT     H143724   4.310   4.603   2.545
14494WAT     H243725   4.169   4.561   2.474
14495WAT      O43726   8.459   2.394   2.067
14495WAT     H143727   8.482   2.305   2.107
14495WAT     H243728   8.363   2.415   2.089
14496WAT      O43729   6.811   2.680   1.482
14496WAT     H143730   6.882   2.739   1.521
14496WAT     H243731   6.739   2.737   1.443
14497WAT      O43732   3.963   0.790   2.706
14497WAT     H143733   3.912   0.828   2.783
14497WAT     H243734   3.910   0.802   2.622
14498WAT      O43735   7.730   5.017   6.331
14498WAT     H143736   7.679   4.997   6.248
14498WAT     H243737   7.669   5.060   6.398
14499WAT      O43738   7.688   5.177   7.995
14499WAT     H143739   7.755   5.126   8.049
14499WAT     H243740   7.622   5.113   7.956
14500WAT      O43741   4.172   0.149   7.155
14500WAT     H143742   4.096   0.128   7.217
14500WAT     H243743   4.212   0.237   7.180
14501WAT      O43744   4.552   8.636   5.089
14501WAT     H143745   4.646   8.630   5.055
14501WAT     H243746   4.545   8.711   5.155
14502WAT      O43747   2.618   1.800   2.721
14502WAT     H143748   2.559   1.782   2.801
14502WAT     H243749   2.713   1.787   2.747
14503WAT      O43750   7.748   9.651   9.868
14503WAT     H143751   7.720   9.686   9.779
14503WAT     H243752   7.714   9.557   9.879
14504WAT      O43753   6.562   4.622   9.033
14504WAT     H143754   6.644   4.619   8.976
14504WAT     H243755   6.485   4.656   8.979
14505WAT      O43756   8.729   5.511   3.026
14505WAT     H143757   8.787   5.507   3.108
14505WAT     H243758   8.705   5.419   2.998
14506WAT      O43759   0.346   5.130   3.624
14506WAT     H143760   0.250   5.108   3.610
14506WAT     H243761   0.359   5.229   3.620
14507WAT      O43762   1.657   7.767   8.817
14507WAT     H143763   1.682   7.803   8.727
14507WAT     H243764   1.600   7.833   8.865
14508WAT      O43765   7.920   5.745   1.943
14508WAT     H143766   7.999   5.685   1.929
14508WAT     H243767   7.946   5.821   2.003
14509WAT      O43768   4.440   7.126   4.185
14509WAT     H143769   4.457   7.200   4.121
14509WAT     H243770   4.357   7.145   4.237
14510WAT      O43771   0.661   1.799   2.103
14510WAT     H143772   0.622   1.729   2.044
14510WAT     H243773   0.595   1.874   2.115
14511WAT      O43774   0.766   4.540   2.103
14511WAT     H143775   0.840   4.578   2.047
14511WAT     H243776   0.747   4.446   2.072
14512WAT      O43777   1.659   4.060   2.937
14512WAT     H143778   1.632   4.116   2.859
14512WAT     H243779   1.700   3.975   2.905
14513WAT      O43780   0.111   8.380   6.302
14513WAT     H143781   0.090   8.478   6.308
14513WAT     H243782   0.039   8.334   6.250
14514WAT      O43783   0.491   0.740   7.242
14514WAT     H143784   0.496   0.706   7.148
14514WAT     H243785   0.582   0.772   7.271
14515WAT      O43786   7.546   8.346   6.257
14515WAT     H143787   7.543   8.336   6.157
14515WAT     H243788   7.519   8.438   6.282
14516WAT      O43789   0.457   3.827   8.942
14516WAT     H143790   0.453   3.887   9.023
14516WAT     H243791   0.551   3.798   8.927
14517WAT      O43792   1.519   5.715   7.325
14517WAT     H143793   1.448   5.781   7.301
14517WAT     H243794   1.591   5.718   7.256
14518WAT      O43795   0.864   6.887   4.854
14518WAT     H143796   0.805   6.892   4.935
14518WAT     H243797   0.948   6.939   4.871
14519WAT      O43798   7.343   9.764   5.981
14519WAT     H143799   7.245   9.749   5.995
14519WAT     H243800   7.369   9.737   5.888
14520WAT      O43801   4.068   4.106   6.148
14520WAT     H143802   4.062   4.170   6.071
14520WAT     H243803   4.164   4.079   6.161
14521WAT      O43804   2.853   6.103   3.995
14521WAT     H143805   2.811   6.095   4.086
14521WAT     H243806   2.952   6.112   4.005
14522WAT      O43807   2.981   5.776   4.608
14522WAT     H143808   2.994   5.874   4.591
14522WAT     H243809   2.883   5.757   4.619
14523WAT      O43810   4.512   5.988   2.749
14523WAT     H143811   4.609   5.972   2.771
14523WAT     H243812   4.455   5.936   2.812
14524WAT      O43813   2.106   8.346   2.974
14524WAT     H143814   2.178   8.398   2.928
14524WAT     H243815   2.023   8.347   2.918
14525WAT      O43816   7.230   6.063   7.339
14525WAT     H143817   7.222   6.157   7.304
14525WAT     H243818   7.277   6.064   7.427
14526WAT      O43819   9.578   3.011   4.381
14526WAT     H143820   9.583   2.929   4.439
14526WAT     H243821   9.515   2.994   4.306
14527WAT      O43822   1.218   5.901   2.945
14527WAT     H143823   1.238   5.866   3.036
14527WAT     H243824   1.136   5.958   2.948
14528WAT      O43825   2.209   0.915   5.099
14528WAT     H143826   2.263   0.894   5.180
14528WAT     H243827   2.132   0.851   5.093
14529WAT      O43828   0.084   5.634   3.056
14529WAT     H143829   0.003   5.647   2.998
14529WAT     H243830   0.106   5.720   3.101
14530WAT      O43831   9.255   2.933   0.126
14530WAT     H143832   9.253   2.974   0.217
14530WAT     H243833   9.163   2.931   0.088
14531WAT      O43834   1.522   6.123   6.206
14531WAT     H143835   1.447   6.155   6.265
14531WAT     H243836   1.600   6.185   6.215
14532WAT      O43837   4.895   1.637   8.676
14532WAT     H143838   4.893   1.583   8.592
14532WAT     H243839   4.988   1.641   8.711
14533WAT      O43840   6.208   6.138   5.021
14533WAT     H143841   6.230   6.114   4.927
14533WAT     H243842   6.176   6.233   5.025
14534WAT      O43843   2.978   8.655   5.899
14534WAT     H143844   3.045   8.636   5.828
14534WAT     H243845   2.922   8.734   5.873
14535WAT      O43846   9.649   8.049   4.226
14535WAT     H143847   9.715   8.124   4.227
14535WAT     H243848   9.689   7.969   4.272
14536WAT      O43849   0.366   8.378   0.210
14536WAT     H143850   0.438   8.389   0.141
14536WAT     H243851   0.276   8.390   0.167
14537WAT      O43852   7.979   2.580   7.654
14537WAT     H143853   7.924   2.499   7.632
14537WAT     H243854   7.929   2.637   7.718
14538WAT      O43855   9.776   9.032   9.162
14538WAT     H143856   9.876   9.034   9.149
14538WAT     H243857   9.741   9.125   9.168
14539WAT      O43858   7.039   6.030   7.833
14539WAT     H143859   7.073   6.059   7.922
14539WAT     H243860   6.953   6.076   7.812
14540WAT      O43861   1.531   4.886   4.640
14540WAT     H143862   1.531   4.892   4.740
14540WAT     H243863   1.577   4.802   4.612
14541WAT      O43864   8.553   1.986   7.237
14541WAT     H143865   8.630   2.038   7.276
14541WAT     H243866   8.502   1.943   7.311
14542WAT      O43867   7.350   6.090   1.015
14542WAT     H143868   7.304   6.118   0.931
14542WAT     H243869   7.427   6.031   0.993
14543WAT      O43870   9.161   7.742   5.671
14543WAT     H143871   9.171   7.682   5.592
14543WAT     H243872   9.177   7.689   5.755
14544WAT      O43873   0.008   6.653   8.658
14544WAT     H143874  -0.009   6.592   8.736
14544WAT     H243875   0.067   6.606   8.591
14545WAT      O43876   5.955   5.175   5.690
14545WAT     H143877   5.930   5.129   5.605
14545WAT     H243878   5.939   5.273   5.681
14546WAT      O43879   1.516   4.061   6.649
14546WAT     H143880   1.481   4.106   6.732
14546WAT     H243881   1.470   4.098   6.569
14547WAT      O43882   2.092   8.405   5.865
14547WAT     H143883   2.191   8.417   5.869
14547WAT     H243884   2.049   8.459   5.937
14548WAT      O43885   0.193   7.212   2.903
14548WAT     H143886   0.223   7.133   2.957
14548WAT     H243887   0.272   7.270   2.881
14549WAT      O43888   4.038   3.796   3.100
14549WAT     H143889   4.086   3.729   3.043
14549WAT     H243890   4.102   3.866   3.131
14550WAT      O43891   2.596   4.606   8.511
14550WAT     H143892   2.540   4.557   8.444
14550WAT     H243893   2.538   4.640   8.585
14551WAT      O43894   9.647   9.491   9.413
14551WAT     H143895   9.661   9.405   9.462
14551WAT     H243896   9.724   9.508   9.352
14552WAT      O43897   6.224   8.439   1.267
14552WAT     H143898   6.221   8.339   1.263
14552WAT     H243899   6.306   8.468   1.317
14553WAT      O43900   9.355   3.938   3.181
14553WAT     H143901   9.285   4.010   3.176
14553WAT     H243902   9.326   3.868   3.246
14554WAT      O43903   3.947   5.989   5.058
14554WAT     H143904   3.900   5.980   5.146
14554WAT     H243905   4.023   6.053   5.066
14555WAT      O43906   6.094   6.875   0.593
14555WAT     H143907   6.189   6.849   0.574
14555WAT     H243908   6.055   6.918   0.512
14556WAT      O43909   9.303   6.311   1.811
14556WAT     H143910   9.353   6.226   1.801
14556WAT     H243911   9.354   6.373   1.871
14557WAT      O43912   2.024   9.028   1.573
14557WAT     H143913   2.103   9.048   1.631
14557WAT     H243914   2.054   8.977   1.493
14558WAT      O43915   4.250   9.245   5.426
14558WAT     H143916   4.189   9.306   5.376
14558WAT     H243917   4.320   9.209   5.365
14559WAT      O43918   5.402   5.798   8.109
14559WAT     H143919   5.332   5.775   8.042
14559WAT     H243920   5.458   5.873   8.073
14560WAT      O43921   5.365   2.717   3.252
14560WAT     H143922   5.277   2.745   3.288
14560WAT     H243923   5.374   2.745   3.157
14561WAT      O43924   9.031   0.859   2.839
14561WAT     H143925   9.123   0.875   2.875
14561WAT     H243926   8.969   0.840   2.915
14562WAT      O43927   6.693   0.150   2.640
14562WAT     H143928   6.780   0.102   2.625
14562WAT     H243929   6.690   0.232   2.583
14563WAT      O43930   2.193   6.183   2.978
14563WAT     H143931   2.253   6.252   2.938
14563WAT     H243932   2.244   6.098   2.991
14564WAT      O43933   2.775   0.113   1.494
14564WAT     H143934   2.762   0.016   1.476
14564WAT     H243935   2.784   0.162   1.407
14565WAT      O43936   9.782   1.223   8.038
14565WAT     H143937   9.805   1.315   8.070
14565WAT     H243938   9.689   1.221   8.004
14566WAT      O43939   7.392   5.694   8.040
14566WAT     H143940   7.325   5.643   7.985
14566WAT     H243941   7.483   5.681   8.000
14567WAT      O43942   1.833   2.313   1.136
14567WAT     H143943   1.910   2.278   1.083
14567WAT     H243944   1.749   2.303   1.082
14568WAT      O43945   1.901   5.509   4.021
14568WAT     H143946   1.884   5.529   3.925
14568WAT     H243947   1.927   5.413   4.031
14569WAT      O43948   9.456   7.474   1.154
14569WAT     H143949   9.418   7.438   1.068
14569WAT     H243950   9.538   7.527   1.134
14570WAT      O43951   7.730   6.343   4.068
14570WAT     H143952   7.771   6.252   4.064
14570WAT     H243953   7.783   6.401   4.129
14571WAT      O43954   2.447   5.031   1.357
14571WAT     H143955   2.390   5.073   1.286
14571WAT     H243956   2.404   5.044   1.446
14572WAT      O43957   1.160   3.344   2.010
14572WAT     H143958   1.091   3.273   2.017
14572WAT     H243959   1.219   3.343   2.091
14573WAT      O43960   6.633   6.718   3.284
14573WAT     H143961   6.538   6.687   3.290
14573WAT     H243962   6.642   6.806   3.330
14574WAT      O43963   0.159   6.102   3.342
14574WAT     H143964   0.084   6.142   3.395
14574WAT     H243965   0.155   6.137   3.248
14575WAT      O43966   1.555   6.296   4.845
14575WAT     H143967   1.642   6.277   4.890
14575WAT     H243968   1.512   6.210   4.818
14576WAT      O43969   3.390   8.464   3.767
14576WAT     H143970   3.454   8.390   3.785
14576WAT     H243971   3.335   8.442   3.687
14577WAT      O43972   3.215   1.506   1.220
14577WAT     H143973   3.248   1.412   1.234
14577WAT     H243974   3.244   1.539   1.130
14578WAT      O43975   5.607   5.610   1.477
14578WAT     H143976   5.691   5.634   1.527
14578WAT     H243977   5.603   5.510   1.466
14579WAT      O43978   1.245   6.840   1.628
14579WAT     H143979   1.246   6.785   1.712
14579WAT     H243980   1.151   6.855   1.599
14580WAT      O43981   2.849   2.163   8.581
14580WAT     H143982   2.874   2.069   8.558
14580WAT     H243983   2.925   2.224   8.560
14581WAT      O43984   7.595   2.749   9.254
14581WAT     H143985   7.664   2.744   9.181
14581WAT     H243986   7.641   2.744   9.343
14582WAT      O43987   2.011   2.793   5.676
14582WAT     H143988   2.093   2.832   5.636
14582WAT     H243989   1.954   2.754   5.604
14583WAT      O43990   2.962   4.681   9.648
14583WAT     H143991   2.867   4.699   9.673
14583WAT     H243992   2.985   4.586   9.672
14584WAT      O43993   3.625   4.718   8.433
14584WAT     H143994   3.545   4.679   8.480
14584WAT     H243995   3.670   4.647   8.379
14585WAT      O43996   8.195   1.161   8.892
14585WAT     H143997   8.259   1.140   8.818
14585WAT     H243998   8.147   1.077   8.919
14586WAT      O43999   9.266   7.336   6.461
14586WAT     H144000   9.183   7.322   6.406
14586WAT     H244001   9.260   7.423   6.509
14587WAT      O44002   4.926   6.267   7.801
14587WAT     H144003   4.854   6.296   7.738
14587WAT     H244004   4.925   6.325   7.883
14588WAT      O44005   0.658   7.456   3.427
14588WAT     H144006   0.740   7.400   3.415
14588WAT     H244007   0.653   7.488   3.522
14589WAT      O44008   1.325   6.807   7.242
14589WAT     H144009   1.401   6.798   7.178
14589WAT     H244010   1.358   6.794   7.335
14590WAT      O44011   3.911   5.751   0.125
14590WAT     H144012   3.884   5.719   0.215
14590WAT     H244013   3.840   5.810   0.087
14591WAT      O44014   6.683   0.809   4.480
14591WAT     H144015   6.603   0.804   4.419
14591WAT     H244016   6.741   0.729   4.466
14592WAT      O44017   6.346   7.611   0.605
14592WAT     H144018   6.324   7.596   0.702
14592WAT     H244019   6.263   7.605   0.551
14593WAT      O44020   7.903   5.261   3.876
14593WAT     H144021   7.869   5.354   3.890
14593WAT     H244022   7.870   5.202   3.950
14594WAT      O44023   6.748   5.354   9.658
14594WAT     H144024   6.743   5.437   9.603
14594WAT     H244025   6.844   5.338   9.684
14595WAT      O44026   2.273   4.873   7.125
14595WAT     H144027   2.210   4.884   7.202
14595WAT     H244028   2.294   4.776   7.112
14596WAT      O44029   9.087   6.927   9.042
14596WAT     H144030   9.118   6.854   9.103
14596WAT     H244031   9.166   6.969   8.998
14597WAT      O44032   2.379   4.969   6.376
14597WAT     H144033   2.413   4.888   6.328
14597WAT     H244034   2.281   4.977   6.362
14598WAT      O44035   5.430   1.815   5.588
14598WAT     H144036   5.491   1.865   5.526
14598WAT     H244037   5.337   1.850   5.578
14599WAT      O44038   5.396   4.544   1.955
14599WAT     H144039   5.352   4.455   1.941
14599WAT     H244040   5.490   4.529   1.988
14600WAT      O44041   8.120   0.871   1.938
14600WAT     H144042   8.072   0.784   1.946
14600WAT     H244043   8.176   0.886   2.019
14601WAT      O44044   7.513   1.988   6.818
14601WAT     H144045   7.594   2.045   6.829
14601WAT     H244046   7.431   2.044   6.830
14602WAT      O44047   1.174   2.523   5.644
14602WAT     H144048   1.095   2.462   5.632
14602WAT     H244049   1.219   2.502   5.730
14603WAT      O44050   6.431   3.895   0.663
14603WAT     H144051   6.374   3.974   0.689
14603WAT     H244052   6.450   3.900   0.565
14604WAT      O44053   6.846   7.937   5.908
14604WAT     H144054   6.850   7.975   6.001
14604WAT     H244055   6.753   7.904   5.890
14605WAT      O44056   8.983   3.992   8.666
14605WAT     H144057   8.910   3.941   8.622
14605WAT     H244058   8.982   3.974   8.765
14606WAT      O44059   3.424   8.352   6.033
14606WAT     H144060   3.336   8.352   6.082
14606WAT     H244061   3.425   8.427   5.967
14607WAT      O44062   8.907   7.067   3.436
14607WAT     H144063   8.825   7.047   3.489
14607WAT     H244064   8.963   7.135   3.484
14608WAT      O44065   4.745   2.871   2.286
14608WAT     H144066   4.828   2.816   2.277
14608WAT     H244067   4.755   2.954   2.231
14609WAT      O44068   7.840   4.466   2.802
14609WAT     H144069   7.834   4.520   2.718
14609WAT     H244070   7.826   4.525   2.881
14610WAT      O44071   5.579   6.516   4.869
14610WAT     H144072   5.597   6.458   4.948
14610WAT     H244073   5.517   6.590   4.896
14611WAT      O44074   2.557   0.265   6.861
14611WAT     H144075   2.471   0.216   6.870
14611WAT     H244076   2.540   0.358   6.827
14612WAT      O44077   1.862   5.027   9.146
14612WAT     H144078   1.777   5.081   9.151
14612WAT     H244079   1.934   5.073   9.198
14613WAT      O44080   5.009   3.549   0.913
14613WAT     H144081   4.917   3.508   0.916
14613WAT     H244082   5.008   3.629   0.854
14614WAT      O44083   2.154   7.551   9.565
14614WAT     H144084   2.076   7.490   9.580
14614WAT     H244085   2.122   7.646   9.570
14615WAT      O44086   0.302   2.640   1.841
14615WAT     H144087   0.400   2.632   1.821
14615WAT     H244088   0.249   2.600   1.766
14616WAT      O44089   5.075   1.607   4.722
14616WAT     H144090   5.141   1.678   4.745
14616WAT     H244091   4.989   1.649   4.694
14617WAT      O44092   9.834   8.457   5.919
14617WAT     H144093   9.750   8.403   5.924
14617WAT     H244094   9.913   8.398   5.935
14618WAT      O44095   3.918   9.046   2.685
14618WAT     H144096   3.869   9.129   2.709
14618WAT     H244097   3.999   9.069   2.631
14619WAT      O44098   8.111   0.709   3.968
14619WAT     H144099   8.095   0.723   4.066
14619WAT     H244100   8.196   0.754   3.942
14620WAT      O44101   8.685   3.011   2.513
14620WAT     H144102   8.666   2.916   2.539
14620WAT     H244103   8.605   3.068   2.535
14621WAT      O44104   4.230   7.896   2.992
14621WAT     H144105   4.217   7.821   3.055
14621WAT     H244106   4.183   7.876   2.906
14622WAT      O44107   2.208   6.274   7.375
14622WAT     H144108   2.292   6.327   7.377
14622WAT     H244109   2.136   6.325   7.422
14623WAT      O44110   1.490   0.096   3.848
14623WAT     H144111   1.429   0.140   3.914
14623WAT     H244112   1.514   0.161   3.776
14624WAT      O44113   5.566   0.759   7.632
14624WAT     H144114   5.587   0.661   7.631
14624WAT     H244115   5.645   0.808   7.669
14625WAT      O44116   7.539   2.350   2.202
14625WAT     H144117   7.560   2.447   2.191
14625WAT     H244118   7.448   2.332   2.165
14626WAT      O44119   9.349   0.584   5.276
14626WAT     H144120   9.294   0.562   5.356
14626WAT     H244121   9.438   0.619   5.304
14627WAT      O44122   0.343   8.701   8.684
14627WAT     H144123   0.255   8.709   8.637
14627WAT     H244124   0.336   8.739   8.776
14628WAT      O44125   4.179   3.864   0.325
14628WAT     H144126   4.210   3.848   0.231
14628WAT     H244127   4.255   3.851   0.388
14629WAT      O44128   2.957   6.187   1.470
14629WAT     H144129   3.033   6.128   1.443
14629WAT     H244130   2.879   6.130   1.498
14630WAT      O44131   2.127   8.242   5.453
14630WAT     H144132   2.189   8.165   5.467
14630WAT     H244133   2.136   8.277   5.361
14631WAT      O44134   7.183   7.767   3.120
14631WAT     H144135   7.183   7.696   3.190
14631WAT     H244136   7.197   7.857   3.164
14632WAT      O44137   4.439   8.533   6.836
14632WAT     H144138   4.464   8.498   6.746
14632WAT     H244139   4.516   8.585   6.874
14633WAT      O44140   3.641   7.649   5.434
14633WAT     H144141   3.557   7.632   5.485
14633WAT     H244142   3.632   7.610   5.342
14634WAT      O44143   5.211   6.729   2.150
14634WAT     H144144   5.111   6.732   2.151
14634WAT     H244145   5.247   6.821   2.135
14635WAT      O44146   0.703   3.683   7.051
14635WAT     H144147   0.638   3.706   6.979
14635WAT     H244148   0.739   3.767   7.092
14636WAT      O44149   5.542   1.326   2.385
14636WAT     H144150   5.622   1.285   2.341
14636WAT     H244151   5.463   1.320   2.324
14637WAT      O44152   3.783   7.977   8.506
14637WAT     H144153   3.687   7.961   8.531
14637WAT     H244154   3.794   8.071   8.473
14638WAT      O44155   4.398   3.762   1.557
14638WAT     H144156   4.332   3.754   1.632
14638WAT     H244157   4.432   3.856   1.554
14639WAT      O44158   2.224   9.676   8.211
14639WAT     H144159   2.136   9.632   8.229
14639WAT     H244160   2.234   9.756   8.270
14640WAT      O44161   3.813   1.021   9.139
14640WAT     H144162   3.758   1.094   9.097
14640WAT     H244163   3.776   0.932   9.112
14641WAT      O44164   9.549   5.889   3.806
14641WAT     H144165   9.489   5.873   3.884
14641WAT     H244166   9.612   5.963   3.827
14642WAT      O44167   9.385   3.330   7.176
14642WAT     H144168   9.384   3.232   7.193
14642WAT     H244169   9.327   3.376   7.242
14643WAT      O44170   0.834   5.358   0.840
14643WAT     H144171   0.763   5.299   0.802
14643WAT     H244172   0.887   5.307   0.908
14644WAT      O44173   4.817   7.838   5.520
14644WAT     H144174   4.806   7.789   5.434
14644WAT     H244175   4.835   7.772   5.594
14645WAT      O44176   0.062   6.402   4.204
14645WAT     H144177   0.033   6.415   4.299
14645WAT     H244178   0.033   6.480   4.150
14646WAT      O44179   5.800   7.520   7.244
14646WAT     H144180   5.877   7.506   7.181
14646WAT     H244181   5.729   7.453   7.225
14647WAT      O44182   6.613   8.372   3.955
14647WAT     H144183   6.580   8.395   3.863
14647WAT     H244184   6.541   8.324   4.005
14648WAT      O44185   8.680   9.156   6.907
14648WAT     H144186   8.727   9.146   6.994
14648WAT     H244187   8.736   9.118   6.834
14649WAT      O44188   8.015   9.209   4.364
14649WAT     H144189   7.918   9.206   4.389
14649WAT     H244190   8.033   9.292   4.312
14650WAT      O44191   3.279   8.308   2.720
14650WAT     H144192   3.218   8.247   2.671
14650WAT     H244193   3.267   8.296   2.819
14651WAT      O44194   0.368   2.500   2.751
14651WAT     H144195   0.401   2.472   2.660
14651WAT     H244196   0.268   2.497   2.752
14652WAT      O44197   8.544   0.835   5.491
14652WAT     H144198   8.503   0.892   5.419
14652WAT     H244199   8.575   0.749   5.452
14653WAT      O44200   0.589   7.506   9.560
14653WAT     H144201   0.658   7.533   9.492
14653WAT     H244202   0.529   7.583   9.579
14654WAT      O44203   0.030   7.453   2.662
14654WAT     H144204  -0.004   7.495   2.746
14654WAT     H244205   0.117   7.495   2.636
14655WAT      O44206   6.259   7.981   3.015
14655WAT     H144207   6.273   7.922   3.095
14655WAT     H244208   6.181   7.947   2.962
14656WAT      O44209   3.930   2.797   8.187
14656WAT     H144210   3.867   2.733   8.142
14656WAT     H244211   3.905   2.891   8.163
14657WAT      O44212   3.750   3.468   5.151
14657WAT     H144213   3.695   3.423   5.081
14657WAT     H244214   3.704   3.459   5.240
14658WAT      O44215   8.466   0.489   7.981
14658WAT     H144216   8.453   0.392   7.958
14658WAT     H244217   8.478   0.499   8.080
14659WAT      O44218   5.448   9.130   3.593
14659WAT     H144219   5.439   9.077   3.509
14659WAT     H244220   5.504   9.211   3.575
14660WAT      O44221   1.948   0.375   2.072
14660WAT     H144222   1.940   0.350   2.169
14660WAT     H244223   1.882   0.447   2.051
14661WAT      O44224   7.744   1.942   9.153
14661WAT     H144225   7.839   1.933   9.124
14661WAT     H244226   7.724   2.037   9.174
14662WAT      O44227   1.885   2.230   7.373
14662WAT     H144228   1.817   2.268   7.435
14662WAT     H244229   1.975   2.263   7.398
14663WAT      O44230   6.898   3.189   1.094
14663WAT     H144231   6.899   3.095   1.129
14663WAT     H244232   6.942   3.249   1.161
14664WAT      O44233   4.019   6.404   2.761
14664WAT     H144234   3.920   6.392   2.770
14664WAT     H244235   4.060   6.417   2.851
14665WAT      O44236   4.471   7.627   1.117
14665WAT     H144237   4.518   7.691   1.177
14665WAT     H244238   4.521   7.540   1.115
14666WAT      O44239   1.809   6.318   4.917
14666WAT     H144240   1.784   6.299   5.012
14666WAT     H244241   1.902   6.355   4.915
14667WAT      O44242   0.686   4.213   5.851
14667WAT     H144243   0.690   4.133   5.912
14667WAT     H244244   0.654   4.292   5.903
14668WAT      O44245   0.348   4.101   0.290
14668WAT     H144246   0.299   4.053   0.217
14668WAT     H244247   0.316   4.196   0.294
14669WAT      O44248   8.257   2.920   8.254
14669WAT     H144249   8.297   2.851   8.313
14669WAT     H244250   8.257   3.008   8.301
14670WAT      O44251   6.830   5.187   6.927
14670WAT     H144252   6.889   5.133   6.867
14670WAT     H244253   6.784   5.258   6.874
14671WAT      O44254   4.786   5.970   2.767
14671WAT     H144255   4.829   5.881   2.749
14671WAT     H244256   4.858   6.040   2.772
14672WAT      O44257   5.084   3.109   2.914
14672WAT     H144258   5.123   3.083   3.002
14672WAT     H244259   4.987   3.129   2.924
14673WAT      O44260   7.824   3.138   1.318
14673WAT     H144261   7.848   3.182   1.231
14673WAT     H244262   7.735   3.094   1.309
14674WAT      O44263   5.426   4.622   6.204
14674WAT     H144264   5.440   4.591   6.110
14674WAT     H244265   5.443   4.721   6.209
14675WAT      O44266   3.505   1.059   1.525
14675WAT     H144267   3.547   0.991   1.587
14675WAT     H244268   3.564   1.139   1.519
14676WAT      O44269   2.811   8.830   6.239
14676WAT     H144270   2.886   8.873   6.188
14676WAT     H244271   2.787   8.743   6.196
14677WAT      O44272   7.552   6.345   8.064
14677WAT     H144273   7.522   6.273   8.001
14677WAT     H244274   7.502   6.430   8.045
14678WAT      O44275   8.673   4.081   9.434
14678WAT     H144276   8.660   3.991   9.476
14678WAT     H244277   8.638   4.080   9.341
14679WAT      O44278   0.324   3.903   6.685
14679WAT     H144279   0.265   3.822   6.692
14679WAT     H244280   0.268   3.986   6.687
14680WAT      O44281   4.877   2.977   9.151
14680WAT     H144282   4.816   3.027   9.090
14680WAT     H244283   4.972   2.993   9.124
14681WAT      O44284   2.324   4.470   7.314
14681WAT     H144285   2.337   4.514   7.403
14681WAT     H244286   2.353   4.375   7.319
14682WAT      O44287   1.586   9.071   6.245
14682WAT     H144288   1.535   9.155   6.228
14682WAT     H244289   1.550   9.025   6.325
14683WAT      O44290   8.444   0.580   0.128
14683WAT     H144291   8.525   0.640   0.134
14683WAT     H244292   8.452   0.507   0.196
14684WAT      O44293   1.519   9.061   8.598
14684WAT     H144294   1.478   9.141   8.553
14684WAT     H244295   1.504   9.067   8.697
14685WAT      O44296   1.780   6.073   3.618
14685WAT     H144297   1.844   6.130   3.567
14685WAT     H244298   1.686   6.102   3.599
14686WAT      O44299   3.460   8.674   8.984
14686WAT     H144300   3.540   8.617   9.000
14686WAT     H244301   3.378   8.617   8.982
14687WAT      O44302   9.788   5.025   3.225
14687WAT     H144303   9.748   4.938   3.195
14687WAT     H244304   9.886   5.012   3.239
14688WAT      O44305   1.964   6.007   2.267
14688WAT     H144306   1.896   6.033   2.336
14688WAT     H244307   2.037   5.955   2.312
14689WAT      O44308   1.111   7.580   7.804
14689WAT     H144309   1.098   7.679   7.811
14689WAT     H244310   1.022   7.535   7.809
14690WAT      O44311   7.265   0.561   9.345
14690WAT     H144312   7.259   0.474   9.394
14690WAT     H244313   7.211   0.556   9.262
14691WAT      O44314   3.844   4.639   5.816
14691WAT     H144315   3.755   4.619   5.776
14691WAT     H244316   3.894   4.703   5.757
14692WAT      O44317   3.073   8.525   7.217
14692WAT     H144318   3.008   8.573   7.275
14692WAT     H244319   3.109   8.446   7.266
14693WAT      O44320   4.568   9.278   4.422
14693WAT     H144321   4.619   9.356   4.387
14693WAT     H244322   4.629   9.199   4.429
14694WAT      O44323   7.419   0.441   6.152
14694WAT     H144324   7.345   0.382   6.119
14694WAT     H244325   7.503   0.420   6.103
14695WAT      O44326   0.811   2.080   0.437
14695WAT     H144327   0.890   2.098   0.378
14695WAT     H244328   0.833   2.106   0.531
14696WAT      O44329   9.769   2.168   7.430
14696WAT     H144330   9.869   2.160   7.432
14696WAT     H244331   9.729   2.078   7.447
14697WAT      O44332   3.613   4.771   2.791
14697WAT     H144333   3.711   4.752   2.790
14697WAT     H244334   3.570   4.729   2.711
14698WAT      O44335   5.685   0.806   2.747
14698WAT     H144336   5.702   0.885   2.689
14698WAT     H244337   5.736   0.815   2.832
14699WAT      O44338   9.752   3.444   2.835
14699WAT     H144339   9.693   3.371   2.867
14699WAT     H244340   9.698   3.512   2.785
14700WAT      O44341   3.321   7.935   9.866
14700WAT     H144342   3.401   7.906   9.917
14700WAT     H244343   3.310   8.034   9.872
14701WAT      O44344   3.556   8.636   2.098
14701WAT     H144345   3.636   8.691   2.075
14701WAT     H244346   3.496   8.629   2.019
14702WAT      O44347   5.212   2.321   4.435
14702WAT     H144348   5.248   2.390   4.498
14702WAT     H244349   5.285   2.292   4.373
14703WAT      O44350   3.171   7.721   7.558
14703WAT     H144351   3.259   7.683   7.586
14703WAT     H244352   3.180   7.762   7.467
14704WAT      O44353   7.110   1.842   5.481
14704WAT     H144354   7.149   1.750   5.481
14704WAT     H244355   7.032   1.846   5.419
14705WAT      O44356   9.569   7.278   2.160
14705WAT     H144357   9.595   7.197   2.108
14705WAT     H244358   9.513   7.250   2.238
14706WAT      O44359   2.397   7.382   4.688
14706WAT     H144360   2.470   7.446   4.664
14706WAT     H244361   2.310   7.415   4.651
14707WAT      O44362   0.890   8.770   4.897
14707WAT     H144363   0.915   8.675   4.912
14707WAT     H244364   0.792   8.776   4.876
14708WAT      O44365   7.343   2.871   6.987
14708WAT     H144366   7.383   2.884   6.897
14708WAT     H244367   7.398   2.805   7.039
14709WAT      O44368   6.874   4.052   5.628
14709WAT     H144369   6.788   4.103   5.629
14709WAT     H244370   6.855   3.955   5.643
14710WAT      O44371   4.628   4.281   8.606
14710WAT     H144372   4.624   4.182   8.591
14710WAT     H244373   4.548   4.310   8.659
14711WAT      O44374   5.910   5.009   7.319
14711WAT     H144375   5.820   4.965   7.328
14711WAT     H244376   5.899   5.108   7.317
14712WAT      O44377   6.518   2.826   6.068
14712WAT     H144378   6.426   2.822   6.108
14712WAT     H244379   6.514   2.797   5.972
14713WAT      O44380   2.880   4.396   3.703
14713WAT     H144381   2.877   4.341   3.786
14713WAT     H244382   2.807   4.464   3.706
14714WAT      O44383   6.992   5.805   5.606
14714WAT     H144384   6.973   5.885   5.662
14714WAT     H244385   6.930   5.804   5.527
14715WAT      O44386   1.329   6.661   0.331
14715WAT     H144387   1.417   6.706   0.346
14715WAT     H244388   1.315   6.591   0.401
14716WAT      O44389   2.127   7.863   3.423
14716WAT     H144390   2.178   7.948   3.431
14716WAT     H244391   2.133   7.813   3.509
14717WAT      O44392   8.293   2.723   1.006
14717WAT     H144393   8.293   2.686   0.913
14717WAT     H244394   8.240   2.663   1.066
14718WAT      O44395   5.708   4.025   9.584
14718WAT     H144396   5.706   3.929   9.557
14718WAT     H244397   5.722   4.082   9.502
14719WAT      O44398   3.759   9.274   6.363
14719WAT     H144399   3.754   9.374   6.364
14719WAT     H244400   3.854   9.245   6.352
14720WAT      O44401   3.780   6.677   0.585
14720WAT     H144402   3.816   6.634   0.503
14720WAT     H244403   3.839   6.753   0.611
14721WAT      O44404   0.672   7.370   4.283
14721WAT     H144405   0.703   7.352   4.376
14721WAT     H244406   0.581   7.412   4.286
14722WAT      O44407   3.941   6.457   9.183
14722WAT     H144408   3.911   6.477   9.090
14722WAT     H244409   3.962   6.542   9.231
14723WAT      O44410   0.179   4.092   4.842
14723WAT     H144411   0.173   4.034   4.923
14723WAT     H244412   0.235   4.172   4.862
14724WAT      O44413   6.046   4.081   3.184
14724WAT     H144414   6.121   4.094   3.248
14724WAT     H244415   5.998   4.168   3.170
14725WAT      O44416   9.739   6.519   5.455
14725WAT     H144417   9.686   6.583   5.510
14725WAT     H244418   9.837   6.541   5.464
14726WAT      O44419   3.705   7.351   7.548
14726WAT     H144420   3.794   7.365   7.593
14726WAT     H244421   3.672   7.259   7.570
14727WAT      O44422   1.859   7.834   6.964
14727WAT     H144423   1.796   7.761   6.992
14727WAT     H244424   1.928   7.848   7.035
14728WAT      O44425   2.756   6.356   5.962
14728WAT     H144426   2.718   6.433   6.012
14728WAT     H244427   2.688   6.283   5.954
14729WAT      O44428   1.411   5.928   6.667
14729WAT     H144429   1.377   5.888   6.581
14729WAT     H244430   1.334   5.964   6.720
14730WAT      O44431   1.103   9.729   1.099
14730WAT     H144432   1.200   9.713   1.078
14730WAT     H244433   1.057   9.641   1.111
14731WAT      O44434   2.002   7.206   8.419
14731WAT     H144435   2.080   7.243   8.368
14731WAT     H244436   2.007   7.237   8.514
14732WAT      O44437   2.928   6.071   8.409
14732WAT     H144438   2.835   6.105   8.416
14732WAT     H244439   2.945   6.039   8.315
14733WAT      O44440   0.170   3.393   1.645
14733WAT     H144441   0.162   3.331   1.723
14733WAT     H244442   0.173   3.339   1.561
14734WAT      O44443   3.687   3.038   5.184
14734WAT     H144444   3.786   3.052   5.194
14734WAT     H244445   3.669   2.940   5.178
14735WAT      O44446   0.095   0.262   5.842
14735WAT     H144447   0.002   0.296   5.829
14735WAT     H244448   0.113   0.250   5.940
14736WAT      O44449   3.625   3.048   2.154
14736WAT     H144450   3.626   2.969   2.215
14736WAT     H244451   3.673   3.026   2.069
14737WAT      O44452   2.169   5.647   6.113
14737WAT     H144453   2.117   5.614   6.035
14737WAT     H244454   2.179   5.747   6.107
14738WAT      O44455   6.098   2.986   9.553
14738WAT     H144456   6.011   3.032   9.535
14738WAT     H244457   6.106   2.969   9.652
14739WAT      O44458   8.346   3.001   0.513
14739WAT     H144459   8.334   3.006   0.414
14739WAT     H244460   8.405   2.923   0.535
14740WAT      O44461   9.472   2.210   2.887
14740WAT     H144462   9.480   2.201   2.987
14740WAT     H244463   9.547   2.163   2.843
14741WAT      O44464   2.029   3.992   7.394
14741WAT     H144465   2.010   4.090   7.386
14741WAT     H244466   2.001   3.945   7.310
14742WAT      O44467   7.465   2.727   3.452
14742WAT     H144468   7.415   2.652   3.495
14742WAT     H244469   7.444   2.729   3.354
14743WAT      O44470   9.481   6.081   1.934
14743WAT     H144471   9.572   6.062   1.896
14743WAT     H244472   9.422   6.002   1.919
14744WAT      O44473   3.026   0.224   9.032
14744WAT     H144474   2.990   0.167   9.106
14744WAT     H244475   3.121   0.246   9.051
14745WAT      O44476   5.402   1.780   8.798
14745WAT     H144477   5.390   1.839   8.878
14745WAT     H244478   5.494   1.741   8.799
14746WAT      O44479   7.583   4.309   3.116
14746WAT     H144480   7.641   4.281   3.039
14746WAT     H244481   7.567   4.407   3.112
14747WAT      O44482   8.418   3.023   0.804
14747WAT     H144483   8.447   2.976   0.721
14747WAT     H244484   8.468   2.988   0.883
14748WAT      O44485   2.233   4.990   0.680
14748WAT     H144486   2.173   4.985   0.600
14748WAT     H244487   2.186   4.951   0.759
14749WAT      O44488   3.667   9.259   9.339
14749WAT     H144489   3.627   9.192   9.277
14749WAT     H244490   3.638   9.240   9.432
14750WAT      O44491   0.330   1.465   9.287
14750WAT     H144492   0.279   1.470   9.201
14750WAT     H244493   0.427   1.480   9.270
14751WAT      O44494   8.029   9.820   4.338
14751WAT     H144495   7.984   9.753   4.396
14751WAT     H244496   8.006   9.912   4.370
14752WAT      O44497   7.968   1.521   0.778
14752WAT     H144498   8.056   1.536   0.823
14752WAT     H244499   7.963   1.577   0.696
14753WAT      O44500   0.113   7.581   6.350
14753WAT     H144501   0.172   7.501   6.356
14753WAT     H244502   0.040   7.564   6.284
14754WAT      O44503   7.912   0.352   9.313
14754WAT     H144504   7.960   0.269   9.284
14754WAT     H244505   7.901   0.351   9.412
14755WAT      O44506   9.693   1.465   2.497
14755WAT     H144507   9.778   1.517   2.506
14755WAT     H244508   9.714   1.367   2.498
14756WAT      O44509   4.473   6.059   2.179
14756WAT     H144510   4.415   6.101   2.109
14756WAT     H244511   4.446   6.093   2.269
14757WAT      O44512   7.776   4.443   7.824
14757WAT     H144513   7.828   4.428   7.908
14757WAT     H244514   7.710   4.517   7.837
14758WAT      O44515   4.193   5.616   0.855
14758WAT     H144516   4.095   5.613   0.877
14758WAT     H244517   4.214   5.544   0.789
14759WAT      O44518   5.633   5.418   2.393
14759WAT     H144519   5.640   5.515   2.371
14759WAT     H244520   5.612   5.407   2.490
14760WAT      O44521   6.845   9.721   8.622
14760WAT     H144522   6.817   9.680   8.535
14760WAT     H244523   6.880   9.813   8.606
14761WAT      O44524   7.366   1.265   1.963
14761WAT     H144525   7.417   1.215   2.033
14761WAT     H244526   7.364   1.212   1.878
14762WAT      O44527   0.093   2.285   5.780
14762WAT     H144528   0.045   2.373   5.784
14762WAT     H244529   0.121   2.258   5.872
14763WAT      O44530   6.360   6.816   6.791
14763WAT     H144531   6.278   6.835   6.738
14763WAT     H244532   6.401   6.902   6.822
14764WAT      O44533   3.727   5.906   1.385
14764WAT     H144534   3.720   5.872   1.479
14764WAT     H244535   3.703   6.003   1.382
14765WAT      O44536   1.652   5.163   2.077
14765WAT     H144537   1.603   5.195   2.158
14765WAT     H244538   1.647   5.232   2.005
14766WAT      O44539   5.411   0.860   3.161
14766WAT     H144540   5.456   0.782   3.118
14766WAT     H244541   5.382   0.926   3.091
14767WAT      O44542   1.644   7.510   5.305
14767WAT     H144543   1.609   7.536   5.395
14767WAT     H244544   1.567   7.502   5.241
14768WAT      O44545   1.259   7.031   8.790
14768WAT     H144546   1.239   6.938   8.820
14768WAT     H244547   1.290   7.085   8.868
14769WAT      O44548   6.191   3.204   1.534
14769WAT     H144549   6.190   3.161   1.624
14769WAT     H244550   6.116   3.271   1.529
14770WAT      O44551   9.752   1.378   6.645
14770WAT     H144552   9.673   1.398   6.587
14770WAT     H244553   9.720   1.341   6.733
14771WAT      O44554   3.267   9.120   9.332
14771WAT     H144555   3.195   9.188   9.347
14771WAT     H244556   3.320   9.144   9.251
14772WAT      O44557   5.618   8.140   7.044
14772WAT     H144558   5.561   8.114   6.966
14772WAT     H244559   5.575   8.216   7.093
14773WAT      O44560   6.411   1.753   6.967
14773WAT     H144561   6.385   1.698   7.046
14773WAT     H244562   6.444   1.842   6.997
14774WAT      O44563   1.006   0.664   1.784
14774WAT     H144564   1.070   0.667   1.707
14774WAT     H244565   1.056   0.643   1.868
14775WAT      O44566   1.941   9.460   0.110
14775WAT     H144567   1.865   9.411   0.152
14775WAT     H244568   1.965   9.416   0.023
14776WAT      O44569   4.276   2.850   9.394
14776WAT     H144570   4.200   2.915   9.389
14776WAT     H244571   4.271   2.787   9.317
14777WAT      O44572   7.607   0.801   4.695
14777WAT     H144573   7.633   0.895   4.677
14777WAT     H244574   7.638   0.742   4.620
14778WAT      O44575   6.478   4.460   1.612
14778WAT     H144576   6.451   4.462   1.708
14778WAT     H244577   6.415   4.518   1.559
14779WAT      O44578   3.495   7.798   0.120
14779WAT     H144579   3.514   7.761   0.211
14779WAT     H244580   3.497   7.724   0.053
14780WAT      O44581   4.615   5.191   3.504
14780WAT     H144582   4.642   5.280   3.467
14780WAT     H244583   4.565   5.140   3.434
14781WAT      O44584   1.251   4.733   2.561
14781WAT     H144585   1.294   4.786   2.634
14781WAT     H244586   1.179   4.675   2.600
14782WAT      O44587   0.660   2.588   7.185
14782WAT     H144588   0.660   2.632   7.275
14782WAT     H244589   0.754   2.561   7.162
14783WAT      O44590   3.791   0.498   0.523
14783WAT     H144591   3.703   0.518   0.480
14783WAT     H244592   3.830   0.583   0.558
14784WAT      O44593   1.633   5.080   3.949
14784WAT     H144594   1.657   5.172   3.916
14784WAT     H244595   1.601   5.024   3.873
14785WAT      O44596   8.060   1.645   3.751
14785WAT     H144597   8.023   1.587   3.823
14785WAT     H244598   8.137   1.698   3.786
14786WAT      O44599   1.185   9.454   8.905
14786WAT     H144600   1.218   9.368   8.866
14786WAT     H244601   1.242   9.479   8.983
14787WAT      O44602   2.951   8.860   1.729
14787WAT     H144603   2.883   8.824   1.666
14787WAT     H244604   2.996   8.939   1.688
14788WAT      O44605   6.883   7.554   6.271
14788WAT     H144606   6.848   7.463   6.289
14788WAT     H244607   6.982   7.555   6.283
14789WAT      O44608   6.262   3.419   5.523
14789WAT     H144609   6.162   3.413   5.518
14789WAT     H244610   6.291   3.405   5.617
14790WAT      O44611   6.502   6.958   3.383
14790WAT     H144612   6.425   6.961   3.319
14790WAT     H244613   6.469   6.933   3.474
14791WAT      O44614   8.653   9.319   8.905
14791WAT     H144615   8.742   9.337   8.946
14791WAT     H244616   8.612   9.405   8.873
14792WAT      O44617   4.867   4.611   2.853
14792WAT     H144618   4.936   4.558   2.804
14792WAT     H244619   4.827   4.554   2.926
14793WAT      O44620   3.534   8.284   9.443
14793WAT     H144621   3.620   8.335   9.454
14793WAT     H244622   3.513   8.274   9.346
14794WAT      O44623   0.863   9.026   4.234
14794WAT     H144624   0.795   9.093   4.201
14794WAT     H244625   0.920   8.996   4.157
14795WAT      O44626   7.266   7.165   3.156
14795WAT     H144627   7.233   7.078   3.121
14795WAT     H244628   7.365   7.172   3.141
14796WAT      O44629   5.802   7.602   0.095
14796WAT     H144630   5.784   7.610   0.192
14796WAT     H244631   5.803   7.506   0.069
14797WAT      O44632   9.383   2.770   3.669
14797WAT     H144633   9.410   2.806   3.758
14797WAT     H244634   9.297   2.812   3.640
14798WAT      O44635   2.423   2.807   7.048
14798WAT     H144636   2.471   2.808   6.961
14798WAT     H244637   2.452   2.727   7.101
14799WAT      O44638   9.242   5.902   1.187
14799WAT     H144639   9.293   5.905   1.101
14799WAT     H244640   9.154   5.948   1.175
14800WAT      O44641   9.127   3.257   0.068
14800WAT     H144642   9.049   3.196   0.084
14800WAT     H244643   9.116   3.340   0.122
14801WAT      O44644   8.180   0.402   3.347
14801WAT     H144645   8.150   0.334   3.280
14801WAT     H244646   8.108   0.470   3.361
14802WAT      O44647   5.116   1.490   5.529
14802WAT     H144648   5.167   1.430   5.591
14802WAT     H244649   5.060   1.553   5.583
14803WAT      O44650   4.300   5.176   2.396
14803WAT     H144651   4.372   5.119   2.358
14803WAT     H244652   4.230   5.192   2.326
14804WAT      O44653   4.288   7.533   2.859
14804WAT     H144654   4.223   7.499   2.926
14804WAT     H244655   4.341   7.457   2.821
14805WAT      O44656   5.596   4.104   8.091
14805WAT     H144657   5.566   4.053   8.011
14805WAT     H244658   5.564   4.199   8.085
14806WAT      O44659   6.675   5.411   5.915
14806WAT     H144660   6.674   5.471   5.835
14806WAT     H244661   6.758   5.428   5.968
14807WAT      O44662   8.840   5.567   3.246
14807WAT     H144663   8.933   5.578   3.283
14807WAT     H244664   8.774   5.570   3.321
14808WAT      O44665   3.932   2.544   5.378
14808WAT     H144666   3.995   2.475   5.344
14808WAT     H244667   3.976   2.597   5.450
14809WAT      O44668   8.795   1.942   1.656
14809WAT     H144669   8.768   1.849   1.631
14809WAT     H244670   8.888   1.960   1.624
14810WAT      O44671   0.482   4.089   9.494
14810WAT     H144672   0.408   4.048   9.440
14810WAT     H244673   0.501   4.032   9.574
14811WAT      O44674   7.585   5.496   3.751
14811WAT     H144675   7.635   5.484   3.666
14811WAT     H244676   7.649   5.503   3.828
14812WAT      O44677   6.753   4.384   4.864
14812WAT     H144678   6.682   4.315   4.848
14812WAT     H244679   6.822   4.347   4.926
14813WAT      O44680   4.339   6.055   7.074
14813WAT     H144681   4.418   6.115   7.068
14813WAT     H244682   4.300   6.041   6.983
14814WAT      O44683   4.002   2.817   2.070
14814WAT     H144684   4.046   2.807   1.980
14814WAT     H244685   4.032   2.902   2.112
14815WAT      O44686   8.619   5.338   7.125
14815WAT     H144687   8.576   5.372   7.041
14815WAT     H244688   8.717   5.324   7.109
14816WAT      O44689   8.199   9.136   9.841
14816WAT     H144690   8.246   9.189   9.912
14816WAT     H244691   8.114   9.182   9.816
14817WAT      O44692   4.824   2.413   7.351
14817WAT     H144693   4.906   2.441   7.401
14817WAT     H244694   4.746   2.409   7.413
14818WAT      O44695   7.488   8.429   4.647
14818WAT     H144696   7.574   8.458   4.604
14818WAT     H244697   7.494   8.333   4.674
14819WAT      O44698   3.550   3.918   9.587
14819WAT     H144699   3.508   4.007   9.574
14819WAT     H244700   3.557   3.871   9.498
14820WAT      O44701   8.360   8.287   1.908
14820WAT     H144702   8.446   8.329   1.938
14820WAT     H244703   8.285   8.351   1.925
14821WAT      O44704   7.629   1.011   7.746
14821WAT     H144705   7.648   0.919   7.715
14821WAT     H244706   7.687   1.076   7.697
14822WAT      O44707   7.952   5.672   9.246
14822WAT     H144708   8.044   5.632   9.254
14822WAT     H244709   7.936   5.734   9.323
14823WAT      O44710   0.298   6.719   6.300
14823WAT     H144711   0.341   6.802   6.264
14823WAT     H244712   0.329   6.704   6.394
14824WAT      O44713   4.631   4.373   1.465
14824WAT     H144714   4.705   4.422   1.420
14824WAT     H244715   4.551   4.370   1.405
14825WAT      O44716   1.644   5.729   3.172
14825WAT     H144717   1.603   5.820   3.187
14825WAT     H244718   1.686   5.698   3.257
14826WAT      O44719   9.419   9.249   5.450
14826WAT     H144720   9.357   9.180   5.413
14826WAT     H244721   9.467   9.211   5.529
14827WAT      O44722   4.732   9.559   7.321
14827WAT     H144723   4.737   9.528   7.226
14827WAT     H244724   4.819   9.542   7.366
14828WAT      O44725   1.702   1.819   2.643
14828WAT     H144726   1.744   1.733   2.615
14828WAT     H244727   1.735   1.893   2.585
14829WAT      O44728   1.218   7.844   1.803
14829WAT     H144729   1.153   7.814   1.874
14829WAT     H244730   1.203   7.790   1.720
14830WAT      O44731   7.655   0.342   3.180
14830WAT     H144732   7.711   0.269   3.142
14830WAT     H244733   7.710   0.426   3.184
14831WAT      O44734   7.094   1.257   8.528
14831WAT     H144735   6.996   1.278   8.526
14831WAT     H244736   7.145   1.336   8.562
14832WAT      O44737   6.870   1.448   8.055
14832WAT     H144738   6.803   1.436   7.982
14832WAT     H244739   6.837   1.405   8.139
14833WAT      O44740   1.032   9.033   8.150
14833WAT     H144741   0.981   9.042   8.236
14833WAT     H244742   0.967   9.029   8.074
14834WAT      O44743   4.516   8.342   3.029
14834WAT     H144744   4.574   8.270   2.991
14834WAT     H244745   4.434   8.301   3.070
14835WAT      O44746   7.533   7.167   3.132
14835WAT     H144747   7.556   7.130   3.042
14835WAT     H244748   7.577   7.257   3.143
14836WAT      O44749   2.264   8.327   2.180
14836WAT     H144750   2.301   8.318   2.087
14836WAT     H244751   2.335   8.362   2.241
14837WAT      O44752   8.497   4.072   1.750
14837WAT     H144753   8.401   4.053   1.733
14837WAT     H244754   8.521   4.160   1.709
14838WAT      O44755   8.985   7.515   0.202
14838WAT     H144756   8.921   7.494   0.128
14838WAT     H244757   9.076   7.481   0.178
14839WAT      O44758   4.504   9.517   6.110
14839WAT     H144759   4.536   9.422   6.113
14839WAT     H244760   4.563   9.570   6.049
14840WAT      O44761   3.568   0.245   5.561
14840WAT     H144762   3.487   0.241   5.502
14840WAT     H244763   3.551   0.194   5.645
14841WAT      O44764   8.986   1.697   7.614
14841WAT     H144765   9.063   1.649   7.572
14841WAT     H244766   8.908   1.635   7.621
14842WAT      O44767   5.678   0.968   6.193
14842WAT     H144768   5.595   1.019   6.170
14842WAT     H244769   5.697   0.901   6.121
14843WAT      O44770   4.497   3.562   5.413
14843WAT     H144771   4.558   3.599   5.483
14843WAT     H244772   4.528   3.471   5.387
14844WAT      O44773   7.078   5.000   0.568
14844WAT     H144774   7.006   4.958   0.624
14844WAT     H244775   7.106   5.086   0.609
14845WAT      O44776   9.229   0.919   5.064
14845WAT     H144777   9.153   0.973   5.028
14845WAT     H244778   9.220   0.911   5.163
14846WAT      O44779   1.793   1.236   8.845
14846WAT     H144780   1.773   1.215   8.750
14846WAT     H244781   1.715   1.209   8.902
14847WAT      O44782   9.066   3.416   1.855
14847WAT     H144783   8.980   3.442   1.899
14847WAT     H244784   9.047   3.351   1.781
14848WAT      O44785   2.520   8.711   9.624
14848WAT     H144786   2.592   8.654   9.664
14848WAT     H244787   2.432   8.664   9.631
14849WAT      O44788   6.033   1.096   9.234
14849WAT     H144789   6.011   1.058   9.144
14849WAT     H244790   5.984   1.044   9.305
14850WAT      O44791   7.717   5.974   3.560
14850WAT     H144792   7.703   6.056   3.615
14850WAT     H244793   7.637   5.914   3.567
14851WAT      O44794   6.193   6.823   6.299
14851WAT     H144795   6.262   6.889   6.269
14851WAT     H244796   6.116   6.826   6.235
14852WAT      O44797   7.930   3.193   4.022
14852WAT     H144798   7.883   3.214   4.108
14852WAT     H244799   7.862   3.172   3.952
14853WAT      O44800   8.627   1.183   4.267
14853WAT     H144801   8.637   1.107   4.330
14853WAT     H244802   8.712   1.198   4.218
14854WAT      O44803   0.490   2.945   4.821
14854WAT     H144804   0.442   3.032   4.810
14854WAT     H244805   0.478   2.890   4.739
14855WAT      O44806   7.909   0.313   8.281
14855WAT     H144807   7.928   0.411   8.274
14855WAT     H244808   7.813   0.299   8.306
14856WAT      O44809   9.349   2.045   4.567
14856WAT     H144810   9.428   1.997   4.606
14856WAT     H244811   9.319   2.117   4.629
14857WAT      O44812   3.929   2.337   5.105
14857WAT     H144813   3.859   2.271   5.131
14857WAT     H244814   3.981   2.302   5.027
14858WAT      O44815   6.377   2.883   1.868
14858WAT     H144816   6.391   2.860   1.964
14858WAT     H244817   6.461   2.924   1.831
14859WAT      O44818   3.977   0.278   1.094
14859WAT     H144819   4.057   0.274   1.154
14859WAT     H244820   3.978   0.363   1.042
14860WAT      O44821   6.996   4.882   6.555
14860WAT     H144822   7.035   4.949   6.618
14860WAT     H244823   7.007   4.790   6.593
14861WAT      O44824   6.409   0.443   2.494
14861WAT     H144825   6.369   0.369   2.549
14861WAT     H244826   6.503   0.420   2.471
14862WAT      O44827   1.159   8.216   2.473
14862WAT     H144828   1.081   8.270   2.505
14862WAT     H244829   1.127   8.126   2.444
14863WAT      O44830   5.772   0.414   2.714
14863WAT     H144831   5.718   0.464   2.782
14863WAT     H244832   5.760   0.456   2.624
14864WAT      O44833   7.976   5.036   9.709
14864WAT     H144834   8.045   5.067   9.774
14864WAT     H244835   8.004   5.062   9.616
14865WAT      O44836   9.279   4.941   9.695
14865WAT     H144837   9.241   5.034   9.700
14865WAT     H244838   9.262   4.904   9.604
14866WAT      O44839   6.681   5.587   4.218
14866WAT     H144840   6.773   5.551   4.231
14866WAT     H244841   6.674   5.676   4.262
14867WAT      O44842   8.231   4.631   6.144
14867WAT     H144843   8.322   4.662   6.172
14867WAT     H244844   8.164   4.703   6.162
14868WAT      O44845   9.123   8.915   5.066
14868WAT     H144846   9.197   8.983   5.063
14868WAT     H244847   9.120   8.866   4.979
14869WAT      O44848   0.560   5.569   5.620
14869WAT     H144849   0.653   5.550   5.651
14869WAT     H244850   0.495   5.542   5.691
14870WAT      O44851   8.261   3.399   9.393
14870WAT     H144852   8.262   3.354   9.304
14870WAT     H244853   8.303   3.339   9.461
14871WAT      O44854   4.390   8.774   8.413
14871WAT     H144855   4.437   8.861   8.424
14871WAT     H244856   4.295   8.790   8.383
14872WAT      O44857   4.047   6.709   2.665
14872WAT     H144858   3.972   6.759   2.621
14872WAT     H244859   4.025   6.612   2.668
14873WAT      O44860   3.345   6.206   4.886
14873WAT     H144861   3.414   6.252   4.830
14873WAT     H244862   3.254   6.238   4.861
14874WAT      O44863   8.289   1.892   1.145
14874WAT     H144864   8.256   1.925   1.234
14874WAT     H244865   8.211   1.881   1.083
14875WAT      O44866   7.522   2.295   5.142
14875WAT     H144867   7.592   2.346   5.193
14875WAT     H244868   7.554   2.278   5.049
14876WAT      O44869   2.693   0.362   9.250
14876WAT     H144870   2.791   0.346   9.250
14876WAT     H244871   2.675   0.458   9.273
14877WAT      O44872   5.301   8.255   1.955
14877WAT     H144873   5.272   8.347   1.930
14877WAT     H244874   5.231   8.190   1.926
14878WAT      O44875   0.798   7.697   0.062
14878WAT     H144876   0.841   7.672   0.149
14878WAT     H244877   0.767   7.614   0.016
14879WAT      O44878   0.435   6.882   8.946
14879WAT     H144879   0.359   6.828   8.983
14879WAT     H244880   0.415   6.979   8.956
14880WAT      O44881   7.367   5.634   2.970
14880WAT     H144882   7.399   5.723   3.000
14880WAT     H244883   7.446   5.575   2.951
14881WAT      O44884   4.063   7.831   5.607
14881WAT     H144885   4.039   7.897   5.679
14881WAT     H244886   4.052   7.875   5.518
14882WAT      O44887   9.490   7.335   4.687
14882WAT     H144888   9.582   7.351   4.722
14882WAT     H244889   9.423   7.356   4.759
14883WAT      O44890   0.281   0.410   1.588
14883WAT     H144891   0.203   0.468   1.610
14883WAT     H244892   0.351   0.420   1.659
14884WAT      O44893   8.622   9.306   9.880
14884WAT     H144894   8.608   9.277   9.975
14884WAT     H244895   8.716   9.285   9.853
14885WAT      O44896   3.160   0.611   4.259
14885WAT     H144897   3.189   0.657   4.175
14885WAT     H244898   3.137   0.680   4.328
14886WAT      O44899   2.042   0.493   1.820
14886WAT     H144900   1.979   0.532   1.753
14886WAT     H244901   1.995   0.481   1.907
14887WAT      O44902   9.796   3.307   0.187
14887WAT     H144903   9.873   3.246   0.208
14887WAT     H244904   9.712   3.267   0.221
14888WAT      O44905   8.095   5.765   9.848
14888WAT     H144906   8.045   5.722   9.773
14888WAT     H244907   8.112   5.861   9.827
14889WAT      O44908   7.848   8.292   4.941
14889WAT     H144909   7.876   8.388   4.938
14889WAT     H244910   7.750   8.286   4.962
14890WAT      O44911   7.495   7.909   4.844
14890WAT     H144912   7.448   7.848   4.908
14890WAT     H244913   7.505   7.865   4.756
14891WAT      O44914   1.652   2.707   9.664
14891WAT     H144915   1.700   2.644   9.724
14891WAT     H244916   1.554   2.687   9.667
14892WAT      O44917   7.338   6.067   7.596
14892WAT     H144918   7.298   6.141   7.651
14892WAT     H244919   7.407   6.019   7.651
14893WAT      O44920   8.151   5.021   8.513
14893WAT     H144921   8.188   5.111   8.536
14893WAT     H244922   8.226   4.956   8.500
14894WAT      O44923   2.097   5.951   7.703
14894WAT     H144924   2.086   5.915   7.611
14894WAT     H244925   2.043   6.034   7.713
14895WAT      O44926   6.915   7.298   1.265
14895WAT     H144927   7.002   7.346   1.279
14895WAT     H244928   6.866   7.339   1.188
14896WAT      O44929   0.998   0.551   8.373
14896WAT     H144930   1.090   0.532   8.408
14896WAT     H244931   0.954   0.618   8.432
14897WAT      O44932   6.355   3.486   6.677
14897WAT     H144933   6.263   3.491   6.717
14897WAT     H244934   6.422   3.484   6.751
14898WAT      O44935   8.764   9.083   5.063
14898WAT     H144936   8.858   9.108   5.040
14898WAT     H244937   8.735   9.005   5.006
14899WAT      O44938   5.065   9.592   1.546
14899WAT     H144939   5.079   9.549   1.456
14899WAT     H244940   5.146   9.644   1.571
14900WAT      O44941   7.450   8.443   1.558
14900WAT     H144942   7.395   8.362   1.580
14900WAT     H244943   7.394   8.508   1.507
14901WAT      O44944   6.786   0.138   9.149
14901WAT     H144945   6.817   0.043   9.143
14901WAT     H244946   6.733   0.150   9.234
14902WAT      O44947   5.263   5.674   5.910
14902WAT     H144948   5.168   5.655   5.932
14902WAT     H244949   5.320   5.656   5.991
14903WAT      O44950   7.563   7.689   9.195
14903WAT     H144951   7.492   7.758   9.179
14903WAT     H244952   7.598   7.700   9.288
14904WAT      O44953   4.893   9.512   6.269
14904WAT     H144954   4.811   9.555   6.306
14904WAT     H244955   4.947   9.473   6.343
14905WAT      O44956   9.366   3.169   7.485
14905WAT     H144957   9.349   3.144   7.389
14905WAT     H244958   9.460   3.203   7.494
14906WAT      O44959   7.097   1.389   8.878
14906WAT     H144960   7.113   1.300   8.920
14906WAT     H244961   7.141   1.461   8.932
14907WAT      O44962   6.697   9.610   2.383
14907WAT     H144963   6.604   9.634   2.410
14907WAT     H244964   6.759   9.685   2.406
14908WAT      O44965   4.759   4.243   3.949
14908WAT     H144966   4.665   4.253   3.915
14908WAT     H244967   4.823   4.248   3.873
14909WAT      O44968   5.529   9.409   3.958
14909WAT     H144969   5.435   9.437   3.981
14909WAT     H244970   5.571   9.363   4.036
14910WAT      O44971   6.507   8.304   4.596
14910WAT     H144972   6.449   8.370   4.645
14910WAT     H244973   6.486   8.212   4.626
14911WAT      O44974   3.731   8.497   8.990
14911WAT     H144975   3.731   8.502   8.890
14911WAT     H244976   3.720   8.401   9.018
14912WAT      O44977   2.136   8.173   8.447
14912WAT     H144978   2.177   8.220   8.524
14912WAT     H244979   2.084   8.094   8.479
14913WAT      O44980   9.435   5.028   5.451
14913WAT     H144981   9.510   5.067   5.505
14913WAT     H244982   9.471   4.996   5.363
14914WAT      O44983   6.690   9.514   3.695
14914WAT     H144984   6.625   9.586   3.672
14914WAT     H244985   6.777   9.555   3.722
14915WAT      O44986   0.882   9.037   6.438
14915WAT     H144987   0.788   9.044   6.404
14915WAT     H244988   0.880   9.010   6.534
14916WAT      O44989   1.530   1.991   6.722
14916WAT     H144990   1.557   1.932   6.646
14916WAT     H244991   1.576   1.960   6.806
14917WAT      O44992   4.307   3.527   7.442
14917WAT     H144993   4.217   3.503   7.478
14917WAT     H244994   4.361   3.572   7.514
14918WAT      O44995   4.015   3.369   5.178
14918WAT     H144996   4.006   3.390   5.276
14918WAT     H244997   3.924   3.356   5.139
14919WAT      O44998   5.506   2.235   5.354
14919WAT     H144999   5.425   2.265   5.303
14919WAT     H245000   5.587   2.282   5.319
14920WAT      O45001   7.537   1.876   9.300
14920WAT     H145002   7.619   1.897   9.246
14920WAT     H245003   7.564   1.829   9.384
14921WAT      O45004   3.574   8.970   4.725
14921WAT     H145005   3.495   8.941   4.672
14921WAT     H245006   3.636   8.893   4.738
14922WAT      O45007   0.843   5.222   6.674
14922WAT     H145008   0.816   5.143   6.619
14922WAT     H245009   0.941   5.217   6.693
14923WAT      O45010   2.024   8.490   1.752
14923WAT     H145011   1.983   8.428   1.818
14923WAT     H245012   1.966   8.572   1.742
14924WAT      O45013   2.973   0.346   7.979
14924WAT     H145014   2.939   0.304   7.894
14924WAT     H245015   3.072   0.358   7.972
14925WAT      O45016   4.115   0.116   1.726
14925WAT     H145017   4.199   0.099   1.778
14925WAT     H245018   4.052   0.039   1.737
14926WAT      O45019   5.406   8.042   9.673
14926WAT     H145020   5.377   7.958   9.627
14926WAT     H245021   5.496   8.070   9.639
14927WAT      O45022   7.711   4.796   3.316
14927WAT     H145023   7.729   4.894   3.301
14927WAT     H245024   7.617   4.776   3.289
14928WAT      O45025   6.077   7.267   5.841
14928WAT     H145026   6.153   7.275   5.776
14928WAT     H245027   6.096   7.323   5.921
14929WAT      O45028   1.050   3.432   8.112
14929WAT     H145029   1.149   3.440   8.122
14929WAT     H245030   1.026   3.338   8.087
14930WAT      O45031   4.713   3.283   5.697
14930WAT     H145032   4.618   3.289   5.667
14930WAT     H245033   4.721   3.210   5.765
14931WAT      O45034   0.087   1.806   3.409
14931WAT     H145035   0.143   1.832   3.330
14931WAT     H245036   0.137   1.740   3.465
14932WAT      O45037   4.285   8.363   6.983
14932WAT     H145038   4.336   8.422   6.920
14932WAT     H245039   4.231   8.420   7.044
14933WAT      O45040   3.015   2.393   8.481
14933WAT     H145041   3.092   2.425   8.538
14933WAT     H245042   2.970   2.472   8.440
14934WAT      O45043   2.538   6.113   9.754
14934WAT     H145044   2.580   6.145   9.669
14934WAT     H245045   2.587   6.152   9.832
14935WAT      O45046   0.740   9.430   7.498
14935WAT     H145047   0.764   9.349   7.552
14935WAT     H245048   0.731   9.404   7.402
14936WAT      O45049   9.571   5.891   2.810
14936WAT     H145050   9.561   5.915   2.714
14936WAT     H245051   9.620   5.963   2.858
14937WAT      O45052   7.616   0.800   7.357
14937WAT     H145053   7.637   0.719   7.301
14937WAT     H245054   7.576   0.870   7.299
14938WAT      O45055   0.754   8.650   1.214
14938WAT     H145056   0.797   8.613   1.132
14938WAT     H245057   0.823   8.668   1.283
14939WAT      O45058   6.267   2.347   4.483
14939WAT     H145059   6.352   2.399   4.474
14939WAT     H245060   6.227   2.332   4.393
14940WAT      O45061   1.183   4.924   9.392
14940WAT     H145062   1.123   4.865   9.338
14940WAT     H245063   1.175   5.019   9.360
14941WAT      O45064   6.611   6.460   1.660
14941WAT     H145065   6.683   6.528   1.675
14941WAT     H245066   6.523   6.500   1.685
14942WAT      O45067   4.676   0.682   4.126
14942WAT     H145068   4.634   0.757   4.179
14942WAT     H245069   4.750   0.719   4.070
14943WAT      O45070   0.691   8.332   3.269
14943WAT     H145071   0.608   8.286   3.237
14943WAT     H245072   0.667   8.422   3.306
14944WAT      O45073   2.989   5.598   0.082
14944WAT     H145074   2.946   5.557   0.002
14944WAT     H245075   3.079   5.557   0.097
14945WAT      O45076   0.022   5.642   1.655
14945WAT     H145077   0.057   5.594   1.574
14945WAT     H245078  -0.073   5.616   1.672
14946WAT      O45079   2.865   7.679   7.864
14946WAT     H145080   2.917   7.620   7.802
14946WAT     H245081   2.902   7.772   7.860
14947WAT      O45082   1.302   4.499   5.022
14947WAT     H145083   1.358   4.506   4.940
14947WAT     H245084   1.208   4.528   5.001
14948WAT      O45085   9.024   4.178   8.275
14948WAT     H145086   9.025   4.222   8.185
14948WAT     H245087   8.936   4.134   8.290
14949WAT      O45088   6.929   6.284   9.496
14949WAT     H145089   7.007   6.259   9.439
14949WAT     H245090   6.895   6.203   9.544
14950WAT      O45091   5.105   4.429   1.360
14950WAT     H145092   5.141   4.464   1.447
14950WAT     H245093   5.157   4.468   1.284
14951WAT      O45094   9.631   0.658   4.062
14951WAT     H145095   9.661   0.578   4.115
14951WAT     H245096   9.647   0.741   4.116
14952WAT      O45097   3.452   7.260   8.085
14952WAT     H145098   3.454   7.347   8.134
14952WAT     H245099   3.480   7.275   7.990
14953WAT      O45100   2.190   2.120   6.537
14953WAT     H145101   2.106   2.078   6.572
14953WAT     H245102   2.167   2.182   6.462
14954WAT      O45103   0.356   7.416   3.963
14954WAT     H145104   0.431   7.361   3.925
14954WAT     H245105   0.296   7.357   4.016
14955WAT      O45106   6.285   5.851   7.283
14955WAT     H145107   6.295   5.894   7.373
14955WAT     H245108   6.188   5.843   7.261
14956WAT      O45109   6.507   1.504   6.894
14956WAT     H145110   6.465   1.461   6.814
14956WAT     H245111   6.482   1.600   6.898
14957WAT      O45112   2.052   4.213   6.719
14957WAT     H145113   1.969   4.162   6.698
14957WAT     H245114   2.043   4.256   6.809
14958WAT      O45115   5.594   5.017   6.483
14958WAT     H145116   5.597   5.034   6.581
14958WAT     H245117   5.687   5.007   6.447
14959WAT      O45118   3.794   7.720   6.718
14959WAT     H145119   3.791   7.630   6.675
14959WAT     H245120   3.883   7.762   6.703
14960WAT      O45121   8.149   8.726   6.650
14960WAT     H145122   8.055   8.727   6.616
14960WAT     H245123   8.208   8.679   6.584
14961WAT      O45124   5.693   6.092   7.376
14961WAT     H145125   5.671   6.122   7.283
14961WAT     H245126   5.613   6.049   7.417
14962WAT      O45127   8.340   3.688   1.376
14962WAT     H145128   8.366   3.672   1.471
14962WAT     H245129   8.385   3.771   1.342
14963WAT      O45130   5.304   9.791   0.789
14963WAT     H145131   5.214   9.783   0.745
14963WAT     H245132   5.341   9.699   0.805
14964WAT      O45133   1.626   7.066   7.450
14964WAT     H145134   1.695   7.074   7.379
14964WAT     H245135   1.665   7.022   7.531
14965WAT      O45136   7.404   1.853   6.606
14965WAT     H145137   7.350   1.921   6.557
14965WAT     H245138   7.430   1.889   6.695
14966WAT      O45139   4.497   7.773   1.712
14966WAT     H145140   4.525   7.750   1.805
14966WAT     H245141   4.402   7.805   1.713
14967WAT      O45142   7.511   7.626   4.358
14967WAT     H145143   7.482   7.573   4.438
14967WAT     H245144   7.434   7.635   4.295
14968WAT      O45145   6.232   7.300   5.577
14968WAT     H145146   6.134   7.302   5.560
14968WAT     H245147   6.282   7.313   5.492
14969WAT      O45148   0.049   7.757   7.587
14969WAT     H145149   0.036   7.659   7.574
14969WAT     H245150   0.118   7.772   7.659
14970WAT      O45151   8.870   7.456   1.952
14970WAT     H145152   8.793   7.515   1.927
14970WAT     H245153   8.880   7.456   2.051
14971WAT      O45154   0.584   2.322   8.099
14971WAT     H145155   0.633   2.263   8.035
14971WAT     H245156   0.570   2.412   8.056
14972WAT      O45157   1.044   0.385   0.907
14972WAT     H145158   1.024   0.420   0.815
14972WAT     H245159   1.035   0.459   0.973
14973WAT      O45160   7.273   4.353   1.268
14973WAT     H145161   7.336   4.356   1.345
14973WAT     H245162   7.233   4.261   1.262
14974WAT      O45163   2.192   9.073   8.682
14974WAT     H145164   2.234   9.145   8.627
14974WAT     H245165   2.233   9.072   8.773
14975WAT      O45166   7.079   9.829   4.030
14975WAT     H145167   7.010   9.775   3.981
14975WAT     H245168   7.039   9.917   4.057
14976WAT      O45169   7.012   4.276   0.564
14976WAT     H145170   6.926   4.298   0.611
14976WAT     H245171   7.027   4.177   0.567
14977WAT      O45172   4.132   4.372   7.509
14977WAT     H145173   4.116   4.469   7.529
14977WAT     H245174   4.111   4.354   7.413
14978WAT      O45175   6.683   9.689   3.397
14978WAT     H145176   6.606   9.650   3.449
14978WAT     H245177   6.690   9.787   3.416
14979WAT      O45178   3.672   7.847   4.990
14979WAT     H145179   3.610   7.858   4.913
14979WAT     H245180   3.688   7.936   5.033
14980WAT      O45181   6.430   3.158   3.964
14980WAT     H145182   6.347   3.137   3.912
14980WAT     H245183   6.503   3.185   3.902
14981WAT      O45184   0.340   4.817   6.136
14981WAT     H145185   0.275   4.826   6.060
14981WAT     H245186   0.336   4.899   6.193
14982WAT      O45187   2.970   8.647   7.936
14982WAT     H145188   2.968   8.659   8.036
14982WAT     H245189   3.030   8.716   7.896
14983WAT      O45190   0.858   7.035   9.546
14983WAT     H145191   0.915   7.106   9.587
14983WAT     H245192   0.766   7.038   9.586
14984WAT      O45193   6.529   2.302   7.755
14984WAT     H145194   6.555   2.237   7.826
14984WAT     H245195   6.568   2.392   7.776
14985WAT      O45196   1.098   3.582   5.704
14985WAT     H145197   1.010   3.564   5.658
14985WAT     H245198   1.081   3.629   5.791
14986WAT      O45199   5.750   7.295   6.724
14986WAT     H145200   5.686   7.318   6.797
14986WAT     H245201   5.706   7.232   6.660
14987WAT      O45202   4.074   8.496   5.766
14987WAT     H145203   4.151   8.556   5.744
14987WAT     H245204   4.055   8.500   5.864
14988WAT      O45205   5.199   6.539   3.741
14988WAT     H145206   5.226   6.634   3.755
14988WAT     H245207   5.259   6.497   3.674
14989WAT      O45208   2.367   1.493   8.513
14989WAT     H145209   2.296   1.444   8.564
14989WAT     H245210   2.432   1.533   8.578
14990WAT      O45211   2.028   5.129   5.935
14990WAT     H145212   2.003   5.034   5.918
14990WAT     H245213   1.961   5.190   5.891
14991WAT      O45214   5.621   2.388   0.625
14991WAT     H145215   5.553   2.377   0.697
14991WAT     H245216   5.616   2.480   0.587
14992WAT      O45217   9.772   0.433   8.289
14992WAT     H145218   9.687   0.437   8.238
14992WAT     H245219   9.806   0.339   8.290
14993WAT      O45220   4.641   6.144   1.221
14993WAT     H145221   4.655   6.134   1.319
14993WAT     H245222   4.555   6.192   1.204
14994WAT      O45223   1.749   8.771   2.932
14994WAT     H145224   1.696   8.727   2.860
14994WAT     H245225   1.765   8.867   2.907
14995WAT      O45226   7.996   8.166   6.800
14995WAT     H145227   8.019   8.069   6.801
14995WAT     H245228   7.992   8.199   6.706
14996WAT      O45229   4.549   5.333   6.519
14996WAT     H145230   4.583   5.378   6.602
14996WAT     H245231   4.474   5.386   6.480
14997WAT      O45232   9.847   3.754   5.277
14997WAT     H145233   9.856   3.748   5.178
14997WAT     H245234   9.801   3.840   5.302
14998WAT      O45235   0.250   3.433   7.399
14998WAT     H145236   0.263   3.381   7.484
14998WAT     H245237   0.332   3.424   7.342
14999WAT      O45238   8.642   5.828   0.836
14999WAT     H145239   8.711   5.873   0.779
14999WAT     H245240   8.688   5.775   0.907
15000WAT      O45241   7.929   0.823   4.786
15000WAT     H145242   7.868   0.746   4.800
15000WAT     H245243   7.935   0.877   4.870
15001WAT      O45244   8.333   5.215   1.952
15001WAT     H145245   8.256   5.151   1.944
15001WAT     H245246   8.369   5.212   2.045
15002WAT      O45247   0.041   7.223   8.483
15002WAT     H145248   0.039   7.209   8.384
15002WAT     H245249   0.109   7.293   8.505
15003WAT      O45250   4.064   6.116   1.341
15003WAT     H145251   4.052   6.022   1.372
15003WAT     H245252   3.975   6.159   1.329
15004WAT      O45253   1.055   0.366   2.833
15004WAT     H145254   1.067   0.287   2.773
15004WAT     H245255   1.090   0.343   2.924
15005WAT      O45256   3.603   5.164   6.162
15005WAT     H145257   3.598   5.188   6.259
15005WAT     H245258   3.684   5.107   6.145
15006WAT      O45259   2.623   5.112   2.804
15006WAT     H145260   2.623   5.078   2.898
15006WAT     H245261   2.635   5.035   2.741
15007WAT      O45262   6.078   2.438   7.251
15007WAT     H145263   6.085   2.368   7.322
15007WAT     H245264   6.022   2.514   7.285
15008WAT      O45265   3.877   9.347   1.943
15008WAT     H145266   3.902   9.290   2.022
15008WAT     H245267   3.877   9.444   1.971
15009WAT      O45268   6.550   3.157   7.599
15009WAT     H145269   6.508   3.084   7.545
15009WAT     H245270   6.543   3.135   7.696
15010WAT      O45271   3.966   2.892   9.105
15010WAT     H145272   3.919   2.940   9.179
15010WAT     H245273   3.904   2.824   9.064
15011WAT      O45274   0.560   2.146   2.534
15011WAT     H145275   0.643   2.143   2.589
15011WAT     H245276   0.493   2.082   2.572
15012WAT      O45277   1.297   6.438   0.522
15012WAT     H145278   1.206   6.400   0.509
15012WAT     H245279   1.303   6.482   0.612
15013WAT      O45280   4.420   0.351   5.109
15013WAT     H145281   4.400   0.370   5.205
15013WAT     H245282   4.390   0.429   5.053
15014WAT      O45283   2.423   5.797   7.467
15014WAT     H145284   2.370   5.877   7.438
15014WAT     H245285   2.367   5.715   7.456
15015WAT      O45286   5.513   0.053   3.249
15015WAT     H145287   5.432   0.037   3.192
15015WAT     H245288   5.517  -0.016   3.321
15016WAT      O45289   8.847   6.512   3.400
15016WAT     H145290   8.928   6.475   3.446
15016WAT     H245291   8.799   6.439   3.353
15017WAT      O45292   3.215   2.927   3.634
15017WAT     H145293   3.305   2.956   3.602
15017WAT     H245294   3.191   2.979   3.716
15018WAT      O45295   4.514   1.784   3.166
15018WAT     H145296   4.456   1.836   3.228
15018WAT     H245297   4.486   1.800   3.072
15019WAT      O45298   1.807   6.214   9.886
15019WAT     H145299   1.732   6.265   9.928
15019WAT     H245300   1.783   6.116   9.883
15020WAT      O45301   6.827   0.809   7.727
15020WAT     H145302   6.819   0.813   7.826
15020WAT     H245303   6.857   0.898   7.692
15021WAT      O45304   5.144   4.651   6.842
15021WAT     H145305   5.062   4.594   6.853
15021WAT     H245306   5.176   4.644   6.747
15022WAT      O45307   3.156   6.544   3.283
15022WAT     H145308   3.111   6.530   3.371
15022WAT     H245309   3.233   6.481   3.275
15023WAT      O45310   0.994   8.358   7.576
15023WAT     H145311   0.966   8.442   7.622
15023WAT     H245312   0.944   8.281   7.615
15024WAT      O45313   2.948   9.722   0.410
15024WAT     H145314   2.879   9.793   0.419
15024WAT     H245315   3.002   9.737   0.327
15025WAT      O45316   1.519   8.963   9.872
15025WAT     H145317   1.605   8.981   9.921
15025WAT     H245318   1.442   8.994   9.927
15026WAT      O45319   9.236   0.274   5.586
15026WAT     H145320   9.174   0.240   5.657
15026WAT     H245321   9.291   0.198   5.551
15027WAT      O45322   5.250   3.338   6.868
15027WAT     H145323   5.175   3.281   6.899
15027WAT     H245324   5.235   3.432   6.896
15028WAT      O45325   6.190   6.026   5.602
15028WAT     H145326   6.160   6.061   5.691
15028WAT     H245327   6.285   5.994   5.609
15029WAT      O45328   7.828   1.527   6.303
15029WAT     H145329   7.788   1.571   6.223
15029WAT     H245330   7.786   1.564   6.386
15030WAT      O45331   6.360   9.504   4.095
15030WAT     H145332   6.310   9.548   4.169
15030WAT     H245333   6.380   9.409   4.119
15031WAT      O45334   2.697   3.582   7.866
15031WAT     H145335   2.686   3.666   7.918
15031WAT     H245336   2.662   3.594   7.774
15032WAT      O45337   6.652   5.162   6.018
15032WAT     H145338   6.645   5.260   5.996
15032WAT     H245339   6.688   5.113   5.939
15033WAT      O45340   4.709   1.989   5.998
15033WAT     H145341   4.709   1.932   5.916
15033WAT     H245342   4.786   1.963   6.057
15034WAT      O45343   4.609   9.277   6.135
15034WAT     H145344   4.527   9.239   6.178
15034WAT     H245345   4.690   9.249   6.187
15035WAT      O45346   7.563   8.573   4.059
15035WAT     H145347   7.662   8.581   4.075
15035WAT     H245348   7.526   8.504   4.120
15036WAT      O45349   9.147   1.369   2.555
15036WAT     H145350   9.238   1.409   2.550
15036WAT     H245351   9.080   1.439   2.579
15037WAT      O45352   1.212   6.845   3.884
15037WAT     H145353   1.135   6.801   3.838
15037WAT     H245354   1.202   6.835   3.983
15038WAT      O45355   2.497   6.631   5.273
15038WAT     H145356   2.550   6.692   5.214
15038WAT     H245357   2.555   6.598   5.348
15039WAT      O45358   5.197   5.371   7.854
15039WAT     H145359   5.109   5.394   7.810
15039WAT     H245360   5.194   5.399   7.950
15040WAT      O45361   7.611   6.301   0.167
15040WAT     H145362   7.580   6.263   0.254
15040WAT     H245363   7.710   6.292   0.159
15041WAT      O45364   7.142   5.741   0.833
15041WAT     H145365   7.080   5.671   0.799
15041WAT     H245366   7.204   5.770   0.760
15042WAT      O45367   0.969   9.102   9.562
15042WAT     H145368   1.020   9.181   9.528
15042WAT     H245369   1.032   9.027   9.581
15043WAT      O45370   7.875   7.552   8.963
15043WAT     H145371   7.847   7.643   8.931
15043WAT     H245372   7.795   7.503   8.997
15044WAT      O45373   1.858   0.404   9.413
15044WAT     H145374   1.821   0.345   9.485
15044WAT     H245375   1.797   0.402   9.334
15045WAT      O45376   9.556   2.882   0.813
15045WAT     H145377   9.602   2.800   0.779
15045WAT     H245378   9.618   2.960   0.807
15046WAT      O45379   7.327   6.795   0.427
15046WAT     H145380   7.268   6.801   0.346
15046WAT     H245381   7.391   6.719   0.416
15047WAT      O45382   7.535   1.001   7.183
15047WAT     H145383   7.621   1.042   7.212
15047WAT     H245384   7.483   1.068   7.129
15048WAT      O45385   3.353   1.713   7.818
15048WAT     H145386   3.284   1.784   7.827
15048WAT     H245387   3.317   1.638   7.763
15049WAT      O45388   3.510   5.489   2.850
15049WAT     H145389   3.417   5.501   2.817
15049WAT     H245390   3.574   5.496   2.774
15050WAT      O45391   4.269   1.228   3.358
15050WAT     H145392   4.175   1.258   3.373
15050WAT     H245393   4.304   1.186   3.441
15051WAT      O45394   1.773   1.222   5.827
15051WAT     H145395   1.820   1.264   5.749
15051WAT     H245396   1.675   1.240   5.821
15052WAT      O45397   9.474   2.817   9.134
15052WAT     H145398   9.413   2.768   9.196
15052WAT     H245399   9.467   2.916   9.151
15053WAT      O45400   3.050   8.992   0.335
15053WAT     H145401   3.083   9.040   0.254
15053WAT     H245402   3.063   8.894   0.323
15054WAT      O45403   4.417   7.741   5.288
15054WAT     H145404   4.505   7.787   5.300
15054WAT     H245405   4.366   7.745   5.374
15055WAT      O45406   0.637   1.386   2.825
15055WAT     H145407   0.710   1.448   2.795
15055WAT     H245408   0.662   1.345   2.913
15056WAT      O45409   1.939   0.378   7.954
15056WAT     H145410   1.911   0.297   8.005
15056WAT     H245411   2.035   0.399   7.976
15057WAT      O45412   6.060   8.046   2.572
15057WAT     H145413   6.057   8.050   2.472
15057WAT     H245414   6.008   8.123   2.610
15058WAT      O45415   9.586   5.072   0.058
15058WAT     H145416   9.537   5.129   0.123
15058WAT     H245417   9.521   5.011   0.012
15059WAT      O45418   7.819   2.227   4.138
15059WAT     H145419   7.875   2.146   4.126
15059WAT     H245420   7.877   2.306   4.159
15060WAT      O45421   8.667   9.044   4.640
15060WAT     H145422   8.627   8.952   4.629
15060WAT     H245423   8.597   9.112   4.619
15061WAT      O45424   8.505   1.322   8.139
15061WAT     H145425   8.577   1.391   8.136
15061WAT     H245426   8.480   1.304   8.234
15062WAT      O45427   7.408   8.244   0.346
15062WAT     H145428   7.315   8.245   0.311
15062WAT     H245429   7.464   8.182   0.290
15063WAT      O45430   8.291   2.597   4.744
15063WAT     H145431   8.334   2.617   4.656
15063WAT     H245432   8.359   2.607   4.817
15064WAT      O45433   7.248   8.331   5.865
15064WAT     H145434   7.162   8.284   5.883
15064WAT     H245435   7.315   8.306   5.934
15065WAT      O45436   2.385   2.760   9.185
15065WAT     H145437   2.471   2.809   9.201
15065WAT     H245438   2.387   2.716   9.095
15066WAT      O45439   5.769   8.810   4.898
15066WAT     H145440   5.865   8.837   4.900
15066WAT     H245441   5.717   8.870   4.958
15067WAT      O45442   5.067   0.527   1.419
15067WAT     H145443   5.019   0.582   1.487
15067WAT     H245444   5.083   0.583   1.337
15068WAT      O45445   4.575   9.070   8.234
15068WAT     H145446   4.511   9.141   8.262
15068WAT     H245447   4.668   9.096   8.261
15069WAT      O45448   4.167   1.285   3.813
15069WAT     H145449   4.211   1.375   3.809
15069WAT     H245450   4.091   1.282   3.749
15070WAT      O45451   2.628   1.149   4.017
15070WAT     H145452   2.670   1.100   3.941
15070WAT     H245453   2.698   1.198   4.068
15071WAT      O45454   1.716   6.521   7.208
15071WAT     H145455   1.694   6.423   7.210
15071WAT     H245456   1.803   6.536   7.254
15072WAT      O45457   0.540   7.968   6.840
15072WAT     H145458   0.526   7.967   6.741
15072WAT     H245459   0.451   7.963   6.886
15073WAT      O45460   0.288   2.469   6.105
15073WAT     H145461   0.230   2.411   6.163
15073WAT     H245462   0.370   2.418   6.079
15074WAT      O45463   8.789   9.710   4.397
15074WAT     H145464   8.742   9.752   4.475
15074WAT     H245465   8.868   9.766   4.372
15075WAT      O45466   5.648   8.613   6.494
15075WAT     H145467   5.637   8.667   6.411
15075WAT     H245468   5.640   8.672   6.574
15076WAT      O45469   8.341   6.647   3.184
15076WAT     H145470   8.333   6.722   3.117
15076WAT     H245471   8.254   6.636   3.231
15077WAT      O45472   5.518   5.257   5.956
15077WAT     H145473   5.447   5.226   6.019
15077WAT     H245474   5.479   5.267   5.865
15078WAT      O45475   9.265   4.021   4.687
15078WAT     H145476   9.199   3.998   4.616
15078WAT     H245477   9.239   4.108   4.730
15079WAT      O45478   6.452   4.222   4.421
15079WAT     H145479   6.518   4.233   4.495
15079WAT     H245480   6.403   4.308   4.407
15080WAT      O45481   4.390   0.439   6.667
15080WAT     H145482   4.484   0.431   6.700
15080WAT     H245483   4.386   0.507   6.594
15081WAT      O45484   2.888   0.299   2.658
15081WAT     H145485   2.790   0.299   2.640
15081WAT     H245486   2.908   0.238   2.735
15082WAT      O45487   5.246   7.785   5.149
15082WAT     H145488   5.334   7.805   5.105
15082WAT     H245489   5.260   7.777   5.248
15083WAT      O45490   1.682   4.917   0.398
15083WAT     H145491   1.700   5.012   0.374
15083WAT     H245492   1.583   4.902   0.403
15084WAT      O45493   7.659   6.572   8.708
15084WAT     H145494   7.564   6.560   8.678
15084WAT     H245495   7.672   6.526   8.796
15085WAT      O45496   0.183   4.078   8.809
15085WAT     H145497   0.241   4.048   8.885
15085WAT     H245498   0.168   4.177   8.817
15086WAT      O45499   3.060   1.803   5.893
15086WAT     H145500   3.059   1.789   5.794
15086WAT     H245501   3.126   1.873   5.917
15087WAT      O45502   9.685   9.019   6.308
15087WAT     H145503   9.648   9.111   6.300
15087WAT     H245504   9.610   8.953   6.307
15088WAT      O45505   1.987   1.208   1.023
15088WAT     H145506   1.982   1.116   1.063
15088WAT     H245507   1.975   1.201   0.924
15089WAT      O45508   5.785   9.233   0.180
15089WAT     H145509   5.703   9.290   0.186
15089WAT     H245510   5.852   9.264   0.248
15090WAT      O45511   4.215   3.945   5.690
15090WAT     H145512   4.247   3.961   5.783
15090WAT     H245513   4.137   4.005   5.671
15091WAT      O45514   2.353   9.027   3.491
15091WAT     H145515   2.326   9.066   3.579
15091WAT     H245516   2.342   8.927   3.494
15092WAT      O45517   7.375   8.318   0.836
15092WAT     H145518   7.382   8.246   0.767
15092WAT     H245519   7.409   8.284   0.923
15093WAT      O45520   4.661   4.231   9.715
15093WAT     H145521   4.587   4.298   9.712
15093WAT     H245522   4.640   4.154   9.655
15094WAT      O45523   8.372   1.575   3.663
15094WAT     H145524   8.407   1.666   3.639
15094WAT     H245525   8.286   1.559   3.614
15095WAT      O45526   4.691   3.516   7.675
15095WAT     H145527   4.785   3.545   7.655
15095WAT     H245528   4.673   3.526   7.773
15096WAT      O45529   5.089   8.378   5.717
15096WAT     H145530   5.051   8.376   5.624
15096WAT     H245531   5.178   8.333   5.717
15097WAT      O45532   2.671   3.077   5.576
15097WAT     H145533   2.608   2.999   5.573
15097WAT     H245534   2.648   3.136   5.653
15098WAT      O45535   4.004   3.273   9.787
15098WAT     H145536   4.071   3.253   9.859
15098WAT     H245537   3.975   3.187   9.744
15099WAT      O45538   8.518   8.060   3.367
15099WAT     H145539   8.540   7.968   3.333
15099WAT     H245540   8.484   8.116   3.291
15100WAT      O45541   3.092   5.877   7.456
15100WAT     H145542   3.031   5.807   7.419
15100WAT     H245543   3.052   5.967   7.443
15101WAT      O45544   9.885   6.306   8.112
15101WAT     H145545   9.859   6.375   8.180
15101WAT     H245546   9.935   6.350   8.038
15102WAT      O45547   8.096   3.915   7.045
15102WAT     H145548   8.096   3.893   6.947
15102WAT     H245549   8.002   3.929   7.076
15103WAT      O45550   2.439   2.266   6.088
15103WAT     H145551   2.344   2.298   6.080
15103WAT     H245552   2.452   2.223   6.177
15104WAT      O45553   3.888   4.849   3.422
15104WAT     H145554   3.855   4.867   3.515
15104WAT     H245555   3.849   4.763   3.390
15105WAT      O45556   6.337   8.099   6.746
15105WAT     H145557   6.412   8.139   6.694
15105WAT     H245558   6.340   7.999   6.736
15106WAT      O45559   4.017   2.263   9.809
15106WAT     H145560   3.943   2.195   9.813
15106WAT     H245561   3.983   2.350   9.843
15107WAT      O45562   7.434   7.021   3.762
15107WAT     H145563   7.423   7.087   3.836
15107WAT     H245564   7.381   6.939   3.783
15108WAT      O45565   3.764   4.813   9.527
15108WAT     H145566   3.795   4.719   9.512
15108WAT     H245567   3.758   4.861   9.439
15109WAT      O45568   4.742   8.828   2.369
15109WAT     H145569   4.782   8.885   2.298
15109WAT     H245570   4.699   8.885   2.439
15110WAT      O45571   8.771   8.190   2.870
15110WAT     H145572   8.785   8.126   2.945
15110WAT     H245573   8.676   8.186   2.840
15111WAT      O45574   9.284   2.067   9.505
15111WAT     H145575   9.189   2.097   9.492
15111WAT     H245576   9.309   2.077   9.602
15112WAT      O45577   6.163   2.487   0.224
15112WAT     H145578   6.153   2.417   0.153
15112WAT     H245579   6.133   2.575   0.187
15113WAT      O45580   9.034   8.050   2.497
15113WAT     H145581   8.948   8.060   2.546
15113WAT     H245582   9.110   8.062   2.561
15114WAT      O45583   2.402   1.043   8.744
15114WAT     H145584   2.357   0.955   8.760
15114WAT     H245585   2.420   1.087   8.831
15115WAT      O45586   6.073   1.824   3.962
15115WAT     H145587   5.989   1.875   3.945
15115WAT     H245588   6.077   1.745   3.901
15116WAT      O45589   1.877   1.541   3.334
15116WAT     H145590   1.830   1.512   3.418
15116WAT     H245591   1.972   1.565   3.356
15117WAT      O45592   6.057   5.051   1.372
15117WAT     H145593   5.997   5.128   1.347
15117WAT     H245594   6.056   4.984   1.298
15118WAT      O45595   8.321   0.908   1.765
15118WAT     H145596   8.236   0.900   1.817
15118WAT     H245597   8.316   0.849   1.683
15119WAT      O45598   2.921   7.156   2.691
15119WAT     H145599   2.866   7.115   2.617
15119WAT     H245600   2.895   7.252   2.702
15120WAT      O45601   0.148   1.195   1.245
15120WAT     H145602   0.174   1.291   1.250
15120WAT     H245603   0.229   1.140   1.224
15121WAT      O45604   4.460   7.912   0.205
15121WAT     H145605   4.530   7.910   0.276
15121WAT     H245606   4.423   7.821   0.191
15122WAT      O45607   7.680   7.522   7.465
15122WAT     H145608   7.645   7.597   7.521
15122WAT     H245609   7.623   7.440   7.480
15123WAT      O45610   9.567   4.893   3.529
15123WAT     H145611   9.663   4.894   3.557
15123WAT     H245612   9.512   4.845   3.597
15124WAT      O45613   5.728   9.353   2.282
15124WAT     H145614   5.765   9.341   2.190
15124WAT     H245615   5.771   9.432   2.326
15125WAT      O45616   8.351   5.759   8.269
15125WAT     H145617   8.370   5.683   8.331
15125WAT     H245618   8.366   5.845   8.316
15126WAT      O45619   2.866   1.348   6.952
15126WAT     H145620   2.770   1.323   6.938
15126WAT     H245621   2.921   1.308   6.879
15127WAT      O45622   8.107   3.515   4.435
15127WAT     H145623   8.096   3.491   4.531
15127WAT     H245624   8.119   3.614   4.426
15128WAT      O45625   7.811   6.274   9.233
15128WAT     H145626   7.752   6.279   9.153
15128WAT     H245627   7.900   6.314   9.212
15129WAT      O45628   8.280   0.311   4.849
15129WAT     H145629   8.367   0.313   4.897
15129WAT     H245630   8.250   0.217   4.836
15130WAT      O45631   5.914   9.556   3.853
15130WAT     H145632   5.921   9.508   3.941
15130WAT     H245633   5.927   9.654   3.867
15131WAT      O45634   2.142   0.698   0.671
15131WAT     H145635   2.236   0.669   0.684
15131WAT     H245636   2.140   0.787   0.625
15132WAT      O45637   9.253   9.156   7.445
15132WAT     H145638   9.306   9.089   7.498
15132WAT     H245639   9.155   9.140   7.459
15133WAT      O45640   7.644   3.270   5.576
15133WAT     H145641   7.683   3.323   5.501
15133WAT     H245642   7.595   3.191   5.539
15134WAT      O45643   1.362   0.224   2.774
15134WAT     H145644   1.269   0.195   2.753
15134WAT     H245645   1.423   0.144   2.774
15135WAT      O45646   4.408   7.526   3.219
15135WAT     H145647   4.387   7.518   3.317
15135WAT     H245648   4.332   7.571   3.173
15136WAT      O45649   8.914   7.931   6.988
15136WAT     H145650   8.846   7.935   7.061
15136WAT     H245651   8.995   7.982   7.016
15137WAT      O45652   2.623   6.089   7.015
15137WAT     H145653   2.676   6.174   7.018
15137WAT     H245654   2.526   6.111   7.008
15138WAT      O45655   9.148   0.907   2.205
15138WAT     H145656   9.166   0.990   2.258
15138WAT     H245657   9.069   0.921   2.146
15139WAT      O45658   7.699   1.907   4.814
15139WAT     H145659   7.798   1.903   4.799
15139WAT     H245660   7.667   1.818   4.845
15140WAT      O45661   1.389   1.895   7.686
15140WAT     H145662   1.436   1.983   7.697
15140WAT     H245663   1.416   1.834   7.760
15141WAT      O45664   5.544   5.785   9.013
15141WAT     H145665   5.509   5.817   8.924
15141WAT     H245666   5.643   5.771   9.007
15142WAT      O45667   8.336   3.205   9.573
15142WAT     H145668   8.256   3.161   9.614
15142WAT     H245669   8.417   3.149   9.588
15143WAT      O45670   4.695   1.681   0.189
15143WAT     H145671   4.730   1.712   0.100
15143WAT     H245672   4.599   1.707   0.197
15144WAT      O45673   6.202   8.220   5.731
15144WAT     H145674   6.183   8.253   5.639
15144WAT     H245675   6.122   8.236   5.790
15145WAT      O45676   2.238   5.531   8.650
15145WAT     H145677   2.306   5.459   8.637
15145WAT     H245678   2.249   5.572   8.740
15146WAT      O45679   6.266   7.181   4.190
15146WAT     H145680   6.177   7.141   4.211
15146WAT     H245681   6.263   7.225   4.100
15147WAT      O45682   2.293   4.130   4.230
15147WAT     H145683   2.243   4.057   4.276
15147WAT     H245684   2.376   4.151   4.280
15148WAT      O45685   4.129   4.742   9.805
15148WAT     H145686   4.054   4.808   9.796
15148WAT     H245687   4.090   4.650   9.819
15149WAT      O45688   7.603   1.491   0.492
15149WAT     H145689   7.646   1.520   0.578
15149WAT     H245690   7.584   1.572   0.436
15150WAT      O45691   0.220   1.380   4.994
15150WAT     H145692   0.153   1.344   5.058
15150WAT     H245693   0.312   1.370   5.032
15151WAT      O45694   4.360   3.478   8.753
15151WAT     H145695   4.356   3.543   8.677
15151WAT     H245696   4.338   3.386   8.718
15152WAT      O45697   0.646   8.767   0.696
15152WAT     H145698   0.561   8.717   0.680
15152WAT     H245699   0.663   8.829   0.619
15153WAT      O45700   7.854   2.015   6.477
15153WAT     H145701   7.791   1.952   6.521
15153WAT     H245702   7.805   2.070   6.410
15154WAT      O45703   3.485   3.361   3.108
15154WAT     H145704   3.414   3.379   3.040
15154WAT     H245705   3.501   3.263   3.113
15155WAT      O45706   2.560   8.292   2.556
15155WAT     H145707   2.571   8.193   2.556
15155WAT     H245708   2.644   8.334   2.592
15156WAT      O45709   8.405   2.016   1.549
15156WAT     H145710   8.400   2.093   1.614
15156WAT     H245711   8.493   2.017   1.502
15157WAT      O45712   9.420   3.381   8.301
15157WAT     H145713   9.516   3.351   8.301
15157WAT     H245714   9.383   3.374   8.208
15158WAT      O45715   7.638   5.282   7.730
15158WAT     H145716   7.580   5.357   7.762
15158WAT     H245717   7.646   5.212   7.801
15159WAT      O45718   2.909   1.036   8.186
15159WAT     H145719   2.918   1.096   8.266
15159WAT     H245720   2.864   1.086   8.112
15160WAT      O45721   8.609   3.196   3.020
15160WAT     H145722   8.682   3.130   3.032
15160WAT     H245723   8.604   3.223   2.923
15161WAT      O45724   7.110   5.592   5.509
15161WAT     H145725   7.041   5.528   5.474
15161WAT     H245726   7.065   5.666   5.558
15162WAT      O45727   8.595   1.568   2.933
15162WAT     H145728   8.504   1.549   2.897
15162WAT     H245729   8.612   1.667   2.931
15163WAT      O45730   2.229   2.479   1.622
15163WAT     H145731   2.182   2.462   1.536
15163WAT     H245732   2.164   2.473   1.697
15164WAT      O45733   1.042   7.393   6.337
15164WAT     H145734   1.024   7.303   6.377
15164WAT     H245735   1.140   7.402   6.318
15165WAT      O45736   0.768   7.196   7.904
15165WAT     H145737   0.826   7.121   7.873
15165WAT     H245738   0.825   7.273   7.932
15166WAT      O45739   5.729   7.888   1.329
15166WAT     H145740   5.774   7.975   1.347
15166WAT     H245741   5.725   7.872   1.231
15167WAT      O45742   1.329   8.396   4.407
15167WAT     H145743   1.362   8.359   4.493
15167WAT     H245744   1.325   8.496   4.413
15168WAT      O45745   8.214   5.605   8.112
15168WAT     H145746   8.119   5.634   8.121
15168WAT     H245747   8.272   5.660   8.171
15169WAT      O45748   0.638   0.526   3.034
15169WAT     H145749   0.674   0.469   2.960
15169WAT     H245750   0.594   0.467   3.102
15170WAT      O45751   5.067   1.558   3.947
15170WAT     H145752   5.165   1.575   3.961
15170WAT     H245753   5.029   1.513   4.028
15171WAT      O45754   6.310   6.458   8.873
15171WAT     H145755   6.316   6.396   8.951
15171WAT     H245756   6.305   6.404   8.789
15172WAT      O45757   3.724   6.895   8.113
15172WAT     H145758   3.701   6.969   8.176
15172WAT     H245759   3.743   6.812   8.166
15173WAT      O45760   6.764   3.937   2.248
15173WAT     H145761   6.805   3.861   2.197
15173WAT     H245762   6.830   3.973   2.314
15174WAT      O45763   2.794   4.676   8.897
15174WAT     H145764   2.759   4.726   8.818
15174WAT     H245765   2.720   4.659   8.962
15175WAT      O45766   0.252   3.817   3.263
15175WAT     H145767   0.339   3.819   3.214
15175WAT     H245768   0.200   3.736   3.236
15176WAT      O45769   9.422   8.994   6.984
15176WAT     H145770   9.485   8.916   6.983
15176WAT     H245771   9.328   8.962   6.972
15177WAT      O45772   7.722   2.193   9.238
15177WAT     H145773   7.640   2.220   9.290
15177WAT     H245774   7.740   2.260   9.167
15178WAT      O45775   5.685   1.166   5.504
15178WAT     H145776   5.696   1.067   5.495
15178WAT     H245777   5.703   1.209   5.415
15179WAT      O45778   0.230   5.870   9.115
15179WAT     H145779   0.236   5.968   9.094
15179WAT     H245780   0.146   5.853   9.167
15180WAT      O45781   7.408   1.258   9.798
15180WAT     H145782   7.384   1.161   9.789
15180WAT     H245783   7.340   1.313   9.750
15181WAT      O45784   2.013   0.317   0.157
15181WAT     H145785   1.955   0.318   0.239
15181WAT     H245786   2.041   0.223   0.139
15182WAT      O45787   1.088   5.616   9.288
15182WAT     H145788   1.058   5.692   9.345
15182WAT     H245789   1.054   5.530   9.328
15183WAT      O45790   9.351   3.083   5.798
15183WAT     H145791   9.281   3.060   5.731
15183WAT     H245792   9.307   3.108   5.884
15184WAT      O45793   1.437   1.076   9.660
15184WAT     H145794   1.529   1.044   9.640
15184WAT     H245795   1.389   1.009   9.717
15185WAT      O45796   5.113   2.723   6.736
15185WAT     H145797   5.032   2.665   6.727
15185WAT     H245798   5.182   2.694   6.671
15186WAT      O45799   1.812   5.698   6.292
15186WAT     H145800   1.896   5.662   6.332
15186WAT     H245801   1.795   5.790   6.327
15187WAT      O45802   3.027   0.716   7.014
15187WAT     H145803   3.116   0.683   7.045
15187WAT     H245804   2.972   0.638   6.982
15188WAT      O45805   2.843   4.309   3.973
15188WAT     H145806   2.895   4.394   3.967
15188WAT     H245807   2.746   4.330   3.986
15189WAT      O45808   6.924   9.047   8.602
15189WAT     H145809   7.020   9.018   8.600
15189WAT     H245810   6.872   8.996   8.533
15190WAT      O45811   5.809   3.989   4.893
15190WAT     H145812   5.757   4.072   4.871
15190WAT     H245813   5.848   3.951   4.809
15191WAT      O45814   7.114   4.415   7.575
15191WAT     H145815   7.126   4.467   7.491
15191WAT     H245816   7.195   4.358   7.591
15192WAT      O45817   7.421   4.789   2.737
15192WAT     H145818   7.448   4.806   2.832
15192WAT     H245819   7.327   4.818   2.723
15193WAT      O45820   2.016   1.615   1.634
15193WAT     H145821   2.044   1.520   1.649
15193WAT     H245822   2.097   1.669   1.609
15194WAT      O45823   3.767   2.174   3.843
15194WAT     H145824   3.806   2.089   3.879
15194WAT     H245825   3.726   2.226   3.918
15195WAT      O45826   8.708   2.546   7.882
15195WAT     H145827   8.702   2.603   7.964
15195WAT     H245828   8.655   2.462   7.895
15196WAT      O45829   4.241   4.182   9.753
15196WAT     H145830   4.224   4.213   9.846
15196WAT     H245831   4.275   4.258   9.698
15197WAT      O45832   5.549   2.047   6.154
15197WAT     H145833   5.577   1.989   6.230
15197WAT     H245834   5.450   2.043   6.142
15198WAT      O45835   3.071   8.186   9.838
15198WAT     H145836   3.150   8.181   9.898
15198WAT     H245837   3.019   8.270   9.858
15199WAT      O45838   4.101   1.762   2.844
15199WAT     H145839   4.156   1.692   2.890
15199WAT     H245840   4.034   1.800   2.908
15200WAT      O45841   2.180   2.799   6.907
15200WAT     H145842   2.272   2.816   6.941
15200WAT     H245843   2.184   2.753   6.819
15201WAT      O45844   3.526   9.057   3.301
15201WAT     H145845   3.590   9.132   3.284
15201WAT     H245846   3.551   8.979   3.244
15202WAT      O45847   6.933   3.010   4.367
15202WAT     H145848   7.010   2.951   4.393
15202WAT     H245849   6.885   3.039   4.450
15203WAT      O45850   4.452   2.575   6.866
15203WAT     H145851   4.475   2.610   6.775
15203WAT     H245852   4.490   2.635   6.936
15204WAT      O45853   4.218   6.724   4.394
15204WAT     H145854   4.156   6.739   4.318
15204WAT     H245855   4.170   6.737   4.480
15205WAT      O45856   1.236   2.020   6.419
15205WAT     H145857   1.151   1.969   6.404
15205WAT     H245858   1.256   2.025   6.517
15206WAT      O45859   9.879   6.382   1.382
15206WAT     H145860   9.926   6.468   1.400
15206WAT     H245861   9.842   6.383   1.289
15207WAT      O45862   5.028   8.465   2.563
15207WAT     H145863   4.964   8.525   2.515
15207WAT     H245864   5.096   8.430   2.499
15208WAT      O45865   9.625   0.837   8.818
15208WAT     H145866   9.571   0.820   8.736
15208WAT     H245867   9.583   0.790   8.896
15209WAT      O45868   5.472   6.475   9.192
15209WAT     H145869   5.373   6.486   9.197
15209WAT     H245870   5.504   6.428   9.275
15210WAT      O45871   0.279   4.175   2.369
15210WAT     H145872   0.197   4.119   2.366
15210WAT     H245873   0.349   4.135   2.310
15211WAT      O45874   4.592   7.372   6.491
15211WAT     H145875   4.601   7.469   6.469
15211WAT     H245876   4.497   7.351   6.514
15212WAT      O45877   5.753   1.228   3.084
15212WAT     H145878   5.723   1.264   3.172
15212WAT     H245879   5.852   1.225   3.081
15213WAT      O45880   6.799   9.505   6.131
15213WAT     H145881   6.728   9.437   6.113
15213WAT     H245882   6.761   9.597   6.117
15214WAT      O45883   0.927   7.618   1.322
15214WAT     H145884   0.916   7.639   1.419
15214WAT     H245885   0.900   7.697   1.267
15215WAT      O45886   5.764   7.443   8.567
15215WAT     H145887   5.702   7.453   8.644
15215WAT     H245888   5.728   7.495   8.489
15216WAT      O45889   3.302   8.599   4.499
15216WAT     H145890   3.290   8.654   4.417
15216WAT     H245891   3.365   8.523   4.479
15217WAT      O45892   0.432   2.287   6.399
15217WAT     H145893   0.492   2.355   6.357
15217WAT     H245894   0.487   2.221   6.449
15218WAT      O45895   3.592   9.578   6.000
15218WAT     H145896   3.690   9.558   6.004
15218WAT     H245897   3.574   9.668   6.039
15219WAT      O45898   7.781   9.750   9.613
15219WAT     H145899   7.856   9.814   9.631
15219WAT     H245900   7.806   9.689   9.537
15220WAT      O45901   3.105   9.106   9.752
15220WAT     H145902   3.133   9.017   9.717
15220WAT     H245903   3.079   9.165   9.675
15221WAT      O45904   4.323   8.884   0.949
15221WAT     H145905   4.305   8.947   1.024
15221WAT     H245906   4.307   8.931   0.862
15222WAT      O45907   0.806   6.500   2.265
15222WAT     H145908   0.809   6.440   2.185
15222WAT     H245909   0.794   6.594   2.236
15223WAT      O45910   2.364   8.435   5.847
15223WAT     H145911   2.400   8.382   5.770
15223WAT     H245912   2.375   8.384   5.932
15224WAT      O45913   2.550   6.104   1.716
15224WAT     H145914   2.452   6.089   1.706
15224WAT     H245915   2.577   6.086   1.810
15225WAT      O45916   3.647   6.425   4.968
15225WAT     H145917   3.658   6.496   5.038
15225WAT     H245918   3.673   6.337   5.006
15226WAT      O45919   1.755   7.197   4.653
15226WAT     H145920   1.780   7.283   4.608
15226WAT     H245921   1.656   7.185   4.651
15227WAT      O45922   3.505   7.394   8.535
15227WAT     H145923   3.436   7.325   8.556
15227WAT     H245924   3.489   7.430   8.443
15228WAT      O45925   7.862   1.727   3.334
15228WAT     H145926   7.796   1.795   3.301
15228WAT     H245927   7.854   1.718   3.433
15229WAT      O45928   9.020   4.645   6.681
15229WAT     H145929   8.999   4.621   6.586
15229WAT     H245930   9.034   4.561   6.734
15230WAT      O45931   3.925   3.631   7.084
15230WAT     H145932   3.934   3.546   7.137
15230WAT     H245933   3.861   3.616   7.009
15231WAT      O45934   9.176   2.343   3.241
15231WAT     H145935   9.148   2.392   3.323
15231WAT     H245936   9.234   2.402   3.184
15232WAT      O45937   5.820   9.796   7.109
15232WAT     H145938   5.893   9.786   7.175
15232WAT     H245939   5.858   9.795   7.016
15233WAT      O45940   8.620   1.596   5.635
15233WAT     H145941   8.524   1.574   5.653
15233WAT     H245942   8.679   1.529   5.681
15234WAT      O45943   8.591   0.391   8.677
15234WAT     H145944   8.525   0.316   8.679
15234WAT     H245945   8.610   0.421   8.770
15235WAT      O45946   0.819   0.999   0.108
15235WAT     H145947   0.775   1.075   0.158
15235WAT     H245948   0.899   0.968   0.159
15236WAT      O45949   7.614   4.320   3.381
15236WAT     H145950   7.596   4.305   3.284
15236WAT     H245951   7.604   4.234   3.431
15237WAT      O45952   1.975   8.711   0.967
15237WAT     H145953   1.893   8.765   0.948
15237WAT     H245954   1.991   8.648   0.891
15238WAT      O45955   7.058   4.490   3.526
15238WAT     H145956   7.124   4.564   3.521
15238WAT     H245957   6.995   4.506   3.602
15239WAT      O45958   0.341   8.238   4.625
15239WAT     H145959   0.372   8.233   4.720
15239WAT     H245960   0.421   8.237   4.564
15240WAT      O45961   6.068   5.449   2.631
15240WAT     H145962   5.987   5.491   2.590
15240WAT     H245963   6.041   5.364   2.678
15241WAT      O45964   1.168   6.424   9.019
15241WAT     H145965   1.162   6.329   9.048
15241WAT     H245966   1.161   6.484   9.099
15242WAT      O45967   6.581   1.304   6.552
15242WAT     H145968   6.557   1.286   6.457
15242WAT     H245969   6.565   1.222   6.607
15243WAT      O45970   2.970   0.911   1.973
15243WAT     H145971   2.965   0.857   2.057
15243WAT     H245972   2.878   0.937   1.945
15244WAT      O45973   7.614   2.255   4.313
15244WAT     H145974   7.649   2.213   4.397
15244WAT     H245975   7.677   2.236   4.238
15245WAT      O45976   2.205   7.638   0.006
15245WAT     H145977   2.116   7.649  -0.040
15245WAT     H245978   2.268   7.590  -0.055
15246WAT      O45979   4.870   1.437   3.401
15246WAT     H145980   4.954   1.446   3.347
15246WAT     H245981   4.807   1.510   3.376
15247WAT      O45982   3.398   9.793   4.969
15247WAT     H145983   3.372   9.697   4.979
15247WAT     H245984   3.325   9.842   4.920
15248WAT      O45985   7.069   5.340   3.217
15248WAT     H145986   7.073   5.281   3.136
15248WAT     H245987   7.035   5.287   3.294
15249WAT      O45988   0.331   5.222   5.966
15249WAT     H145989   0.417   5.179   5.995
15249WAT     H245990   0.286   5.264   6.044
15250WAT      O45991   3.695   6.277   0.825
15250WAT     H145992   3.716   6.208   0.756
15250WAT     H245993   3.763   6.350   0.820
15251WAT      O45994   3.008   7.539   9.594
15251WAT     H145995   2.980   7.470   9.661
15251WAT     H245996   3.048   7.618   9.642
15252WAT      O45997   2.750   5.777   5.510
15252WAT     H145998   2.780   5.799   5.602
15252WAT     H245999   2.822   5.799   5.444
15253WAT      O46000   6.228   7.772   3.198
15253WAT     H146001   6.287   7.807   3.271
15253WAT     H246002   6.237   7.673   3.193
15254WAT      O46003   3.106   6.533   3.887
15254WAT     H146004   3.030   6.468   3.894
15254WAT     H246005   3.071   6.626   3.898
15255WAT      O46006   4.898   4.168   8.106
15255WAT     H146007   4.802   4.160   8.131
15255WAT     H246008   4.910   4.244   8.042
15256WAT      O46009   8.230   4.782   0.097
15256WAT     H146010   8.288   4.750   0.022
15256WAT     H246011   8.201   4.703   0.152
15257WAT      O46012   7.124   1.104   9.494
15257WAT     H146013   7.071   1.184   9.524
15257WAT     H246014   7.190   1.080   9.566
15258WAT      O46015   9.558   4.873   7.462
15258WAT     H146016   9.553   4.973   7.460
15258WAT     H246017   9.589   4.839   7.373
15259WAT      O46018   2.893   1.053   6.046
15259WAT     H146019   2.934   1.019   5.962
15259WAT     H246020   2.876   1.151   6.038
15260WAT      O46021   7.886   9.620   7.810
15260WAT     H146022   7.898   9.574   7.899
15260WAT     H246023   7.974   9.656   7.780
15261WAT      O46024   5.107   4.178   8.257
15261WAT     H146025   5.095   4.224   8.345
15261WAT     H246026   5.017   4.161   8.216
15262WAT      O46027   4.162   3.245   0.650
15262WAT     H146028   4.071   3.286   0.648
15262WAT     H246029   4.216   3.278   0.572
15263WAT      O46030   0.633   7.528   3.681
15263WAT     H146031   0.575   7.479   3.746
15263WAT     H246032   0.626   7.627   3.698
15264WAT      O46033   3.976   3.163   6.257
15264WAT     H146034   3.934   3.093   6.199
15264WAT     H246035   3.944   3.253   6.229
15265WAT      O46036   8.323   3.094   8.691
15265WAT     H146037   8.294   3.062   8.781
15265WAT     H246038   8.374   3.021   8.645
15266WAT      O46039   0.660   8.782   3.917
15266WAT     H146040   0.641   8.776   3.819
15266WAT     H246041   0.729   8.852   3.934
15267WAT      O46042   4.233   8.983   1.347
15267WAT     H146043   4.137   8.976   1.376
15267WAT     H246044   4.286   9.031   1.417
15268WAT      O46045   0.127   5.859   7.029
15268WAT     H146046   0.213   5.839   7.077
15268WAT     H246047   0.138   5.944   6.976
15269WAT      O46048   5.866   9.028   3.023
15269WAT     H146049   5.920   9.001   2.943
15269WAT     H246050   5.928   9.048   3.099
15270WAT      O46051   7.751   2.034   8.792
15270WAT     H146052   7.692   1.981   8.854
15270WAT     H246053   7.709   2.123   8.775
15271WAT      O46054   1.030   7.858   0.413
15271WAT     H146055   1.070   7.946   0.389
15271WAT     H246056   1.059   7.832   0.506
15272WAT      O46057   9.843   9.540   3.613
15272WAT     H146058   9.896   9.619   3.641
15272WAT     H246059   9.810   9.491   3.694
15273WAT      O46060   3.045   4.464   5.512
15273WAT     H146061   2.977   4.390   5.514
15273WAT     H246062   3.011   4.541   5.567
15274WAT      O46063   7.930   9.217   0.915
15274WAT     H146064   7.995   9.262   0.854
15274WAT     H246065   7.865   9.163   0.860
15275WAT      O46066   8.715   9.430   4.355
15275WAT     H146067   8.707   9.393   4.447
15275WAT     H246068   8.781   9.506   4.355
15276WAT      O46069   0.683   4.290   1.973
15276WAT     H146070   0.696   4.341   1.888
15276WAT     H246071   0.754   4.221   1.981
15277WAT      O46072   1.669   3.471   3.856
15277WAT     H146073   1.630   3.561   3.872
15277WAT     H246074   1.668   3.451   3.758
15278WAT      O46075   7.700   0.687   6.218
15278WAT     H146076   7.690   0.629   6.298
15278WAT     H246077   7.713   0.630   6.137
15279WAT      O46078   5.254   2.887   9.707
15279WAT     H146079   5.161   2.902   9.674
15279WAT     H246080   5.294   2.974   9.735
15280WAT      O46081   8.588   5.737   1.432
15280WAT     H146082   8.642   5.811   1.472
15280WAT     H246083   8.592   5.743   1.332
15281WAT      O46084   4.428   8.884   5.748
15281WAT     H146085   4.467   8.895   5.840
15281WAT     H246086   4.488   8.928   5.682
15282WAT      O46087   8.898   7.488   6.696
15282WAT     H146088   8.985   7.537   6.692
15282WAT     H246089   8.897   7.417   6.626
15283WAT      O46090   8.101   3.779   1.120
15283WAT     H146091   8.130   3.687   1.146
15283WAT     H246092   8.021   3.773   1.060
15284WAT      O46093   5.244   1.822   4.550
15284WAT     H146094   5.175   1.893   4.539
15284WAT     H246095   5.283   1.828   4.642
15285WAT      O46096   0.882   2.945   8.307
15285WAT     H146097   0.940   3.017   8.268
15285WAT     H246098   0.843   2.977   8.394
15286WAT      O46099   7.820   2.157   6.858
15286WAT     H146100   7.860   2.091   6.793
15286WAT     H246101   7.889   2.183   6.925
15287WAT      O46102   8.252   6.106   6.403
15287WAT     H146103   8.231   6.084   6.307
15287WAT     H246104   8.221   6.199   6.423
15288WAT      O46105   2.484   1.968   2.219
15288WAT     H146106   2.501   2.060   2.253
15288WAT     H246107   2.399   1.967   2.166
15289WAT      O46108   9.722   2.367   6.730
15289WAT     H146109   9.819   2.389   6.721
15289WAT     H246110   9.698   2.297   6.663
15290WAT      O46111   0.275   8.593   9.320
15290WAT     H146112   0.362   8.562   9.281
15290WAT     H246113   0.251   8.682   9.282
15291WAT      O46114   1.994   2.032   9.807
15291WAT     H146115   2.023   1.977   9.729
15291WAT     H246116   2.054   2.111   9.816
15292WAT      O46117   6.663   2.817   7.698
15292WAT     H146118   6.703   2.829   7.607
15292WAT     H246119   6.602   2.894   7.718
15293WAT      O46120   1.837   2.621   1.577
15293WAT     H146121   1.909   2.628   1.645
15293WAT     H246122   1.754   2.667   1.610
15294WAT      O46123   2.031   5.450   2.846
15294WAT     H146124   1.953   5.512   2.856
15294WAT     H246125   2.015   5.389   2.769
15295WAT      O46126   2.641   4.968   9.166
15295WAT     H146127   2.574   4.962   9.092
15295WAT     H246128   2.725   5.010   9.131
15296WAT      O46129   3.828   3.739   5.141
15296WAT     H146130   3.798   3.645   5.126
15296WAT     H246131   3.915   3.738   5.191
15297WAT      O46132   4.359   5.424   3.950
15297WAT     H146133   4.260   5.429   3.935
15297WAT     H246134   4.403   5.504   3.909
15298WAT      O46135   4.026   0.006   1.393
15298WAT     H146136   4.016  -0.004   1.492
15298WAT     H246137   3.979   0.089   1.363
15299WAT      O46138   5.573   6.578   1.808
15299WAT     H146139   5.658   6.527   1.789
15299WAT     H246140   5.500   6.541   1.751
15300WAT      O46141   7.656   6.700   9.317
15300WAT     H146142   7.682   6.617   9.366
15300WAT     H246143   7.602   6.759   9.376
15301WAT      O46144   6.242   2.636   1.459
15301WAT     H146145   6.239   2.653   1.558
15301WAT     H246146   6.156   2.665   1.418
15302WAT      O46147   2.220   4.570   6.414
15302WAT     H146148   2.180   4.522   6.492
15302WAT     H246149   2.159   4.561   6.335
15303WAT      O46150   6.526   5.547   0.838
15303WAT     H146151   6.617   5.515   0.863
15303WAT     H246152   6.467   5.549   0.919
15304WAT      O46153   0.010   5.904   1.782
15304WAT     H146154  -0.080   5.947   1.772
15304WAT     H246155   0.015   5.823   1.724
15305WAT      O46156   8.378   2.589   6.226
15305WAT     H146157   8.360   2.649   6.148
15305WAT     H246158   8.413   2.642   6.303
15306WAT      O46159   8.995   1.386   5.180
15306WAT     H146160   9.073   1.448   5.190
15306WAT     H246161   8.910   1.438   5.184
15307WAT      O46162   4.282   5.450   1.567
15307WAT     H146163   4.300   5.528   1.626
15307WAT     H246164   4.368   5.413   1.533
15308WAT      O46165   8.254   1.824   8.315
15308WAT     H146166   8.288   1.916   8.296
15308WAT     H246167   8.187   1.828   8.389
15309WAT      O46168   8.197   7.352   3.566
15309WAT     H146169   8.225   7.304   3.649
15309WAT     H246170   8.200   7.451   3.582
15310WAT      O46171   0.073   0.574   0.982
15310WAT     H146172   0.066   0.593   1.080
15310WAT     H246173   0.035   0.652   0.931
15311WAT      O46174   4.738   5.647   4.993
15311WAT     H146175   4.785   5.726   4.953
15311WAT     H246176   4.643   5.647   4.962
15312WAT      O46177   9.230   3.780   3.354
15312WAT     H146178   9.158   3.714   3.334
15312WAT     H246179   9.284   3.748   3.432
15313WAT      O46180   1.146   6.518   7.726
15313WAT     H146181   1.212   6.525   7.651
15313WAT     H246182   1.156   6.428   7.770
15314WAT      O46183   9.164   8.081   3.050
15314WAT     H146184   9.252   8.070   3.005
15314WAT     H246185   9.110   8.150   3.002
15315WAT      O46186   2.460   1.355   1.483
15315WAT     H146187   2.397   1.283   1.511
15315WAT     H246188   2.420   1.407   1.407
15316WAT      O46189   3.975   8.227   8.894
15316WAT     H146190   4.036   8.306   8.896
15316WAT     H246191   3.976   8.188   8.802
15317WAT      O46192   6.180   9.761   1.978
15317WAT     H146193   6.181   9.802   2.069
15317WAT     H246194   6.273   9.738   1.951
15318WAT      O46195   8.168   6.234   5.155
15318WAT     H146196   8.101   6.212   5.226
15318WAT     H246197   8.175   6.333   5.145
15319WAT      O46198   4.083   9.409   3.389
15319WAT     H146199   4.136   9.335   3.429
15319WAT     H246200   4.013   9.371   3.328
15320WAT      O46201   3.802   1.084   4.156
15320WAT     H146202   3.846   1.157   4.103
15320WAT     H246203   3.798   1.001   4.100
15321WAT      O46204   4.101   6.212   9.097
15321WAT     H146205   4.054   6.297   9.121
15321WAT     H246206   4.050   6.134   9.135
15322WAT      O46207   8.924   3.119   8.128
15322WAT     H146208   8.831   3.155   8.140
15322WAT     H246209   8.951   3.128   8.032
15323WAT      O46210   8.348   5.970   1.073
15323WAT     H146211   8.391   6.033   1.008
15323WAT     H246212   8.249   5.985   1.074
15324WAT      O46213   9.234   4.811   9.467
15324WAT     H146214   9.323   4.837   9.431
15324WAT     H246215   9.165   4.817   9.394
15325WAT      O46216   3.045   8.185   0.273
15325WAT     H146217   3.028   8.195   0.175
15325WAT     H246218   2.958   8.191   0.322
15326WAT      O46219   8.506   7.348   1.733
15326WAT     H146220   8.502   7.332   1.634
15326WAT     H246221   8.438   7.418   1.758
15327WAT      O46222   7.278   5.264   4.856
15327WAT     H146223   7.277   5.268   4.756
15327WAT     H246224   7.282   5.356   4.893
15328WAT      O46225   9.189   7.221   8.571
15328WAT     H146226   9.106   7.168   8.584
15328WAT     H246227   9.263   7.161   8.540
15329WAT      O46228   5.377   1.859   2.869
15329WAT     H146229   5.363   1.890   2.776
15329WAT     H246230   5.382   1.937   2.931
15330WAT      O46231   3.814   1.630   6.314
15330WAT     H146232   3.772   1.664   6.398
15330WAT     H246233   3.774   1.678   6.235
15331WAT      O46234   8.786   8.310   0.273
15331WAT     H146235   8.758   8.349   0.360
15331WAT     H246236   8.864   8.362   0.237
15332WAT      O46237   9.709   7.042   7.667
15332WAT     H146238   9.626   7.054   7.614
15332WAT     H246239   9.750   6.953   7.646
15333WAT      O46240   1.049   3.825   4.732
15333WAT     H146241   1.010   3.827   4.824
15333WAT     H246242   0.976   3.836   4.664
15334WAT      O46243   2.233   5.367   9.465
15334WAT     H146244   2.284   5.450   9.445
15334WAT     H246245   2.135   5.386   9.460
15335WAT      O46246   3.238   9.051   4.781
15335WAT     H146247   3.267   8.989   4.709
15335WAT     H246248   3.250   9.007   4.870
15336WAT      O46249   1.225   4.511   3.385
15336WAT     H146250   1.261   4.417   3.381
15336WAT     H246251   1.185   4.527   3.475
15337WAT      O46252   6.798   2.642   5.245
15337WAT     H146253   6.758   2.595   5.324
15337WAT     H246254   6.895   2.660   5.263
15338WAT      O46255   1.322   7.799   4.630
15338WAT     H146256   1.229   7.835   4.625
15338WAT     H246257   1.321   7.708   4.672
15339WAT      O46258   2.383   6.193   0.311
15339WAT     H146259   2.316   6.168   0.380
15339WAT     H246260   2.368   6.140   0.228
15340WAT      O46261   6.947   0.399   1.508
15340WAT     H146262   6.973   0.355   1.594
15340WAT     H246263   6.882   0.341   1.460
15341WAT      O46264   6.379   2.444   0.375
15341WAT     H146265   6.306   2.481   0.318
15341WAT     H246266   6.388   2.346   0.359
15342WAT      O46267   8.515   5.427   9.259
15342WAT     H146268   8.437   5.422   9.321
15342WAT     H246269   8.499   5.497   9.190
15343WAT      O46270   8.906   4.750   5.201
15343WAT     H146271   8.827   4.711   5.247
15343WAT     H246272   8.967   4.676   5.170
15344WAT      O46273   9.187   0.508   5.478
15344WAT     H146274   9.200   0.414   5.509
15344WAT     H246275   9.168   0.566   5.558
15345WAT      O46276   8.572   8.390   2.030
15345WAT     H146277   8.587   8.361   2.124
15345WAT     H246278   8.554   8.488   2.027
15346WAT      O46279   7.371   7.335   2.052
15346WAT     H146280   7.360   7.333   2.151
15346WAT     H246281   7.401   7.245   2.020
15347WAT      O46282   0.584   3.218   3.516
15347WAT     H146283   0.554   3.133   3.558
15347WAT     H246284   0.611   3.201   3.421
15348WAT      O46285   2.505   8.152   4.545
15348WAT     H146286   2.473   8.215   4.474
15348WAT     H246287   2.491   8.058   4.514
15349WAT      O46288   3.682   7.251   1.252
15349WAT     H146289   3.651   7.163   1.288
15349WAT     H246290   3.603   7.310   1.237
15350WAT      O46291   2.355   3.158   6.919
15350WAT     H146292   2.260   3.132   6.900
15350WAT     H246293   2.411   3.076   6.925
15351WAT      O46294   0.246   8.936   3.912
15351WAT     H146295   0.157   8.965   3.948
15351WAT     H246296   0.272   8.996   3.837
15352WAT      O46297   7.489   8.896   8.773
15352WAT     H146298   7.425   8.965   8.810
15352WAT     H246299   7.529   8.845   8.849
15353WAT      O46300   8.555   4.847   9.654
15353WAT     H146301   8.567   4.861   9.556
15353WAT     H246302   8.596   4.759   9.680
15354WAT      O46303   0.929   3.164   7.533
15354WAT     H146304   0.871   3.148   7.453
15354WAT     H246305   0.942   3.079   7.584
15355WAT      O46306   1.578   2.839   8.650
15355WAT     H146307   1.596   2.854   8.747
15355WAT     H246308   1.594   2.923   8.600
15356WAT      O46309   7.751   7.834   5.389
15356WAT     H146310   7.768   7.736   5.399
15356WAT     H246311   7.835   7.879   5.358
15357WAT      O46312   0.229   5.047   1.071
15357WAT     H146313   0.173   5.070   0.991
15357WAT     H246314   0.324   5.075   1.054
15358WAT      O46315   6.869   3.176   3.394
15358WAT     H146316   6.917   3.132   3.318
15358WAT     H246317   6.911   3.149   3.480
15359WAT      O46318   7.481   1.613   6.926
15359WAT     H146319   7.464   1.548   6.999
15359WAT     H246320   7.402   1.673   6.915
15360WAT      O46321   2.573   0.366   2.339
15360WAT     H146322   2.659   0.402   2.304
15360WAT     H246323   2.591   0.302   2.413
15361WAT      O46324   6.211   6.596   0.049
15361WAT     H146325   6.182   6.686   0.015
15361WAT     H246326   6.299   6.571   0.008
15362WAT      O46327   4.438   6.672   2.456
15362WAT     H146328   4.461   6.744   2.390
15362WAT     H246329   4.374   6.708   2.524
15363WAT      O46330   4.928   2.152   3.767
15363WAT     H146331   4.829   2.146   3.782
15363WAT     H246332   4.968   2.209   3.839
15364WAT      O46333   0.527   3.117   6.974
15364WAT     H146334   0.451   3.112   6.910
15364WAT     H246335   0.608   3.072   6.935
15365WAT      O46336   5.713   2.589   9.566
15365WAT     H146337   5.744   2.575   9.471
15365WAT     H246338   5.646   2.663   9.568
15366WAT      O46339   5.472   8.371   5.468
15366WAT     H146340   5.510   8.369   5.376
15366WAT     H246341   5.496   8.458   5.512
15367WAT      O46342   7.257   7.653   4.219
15367WAT     H146343   7.177   7.686   4.269
15367WAT     H246344   7.230   7.581   4.155
15368WAT      O46345   0.284   6.980   0.487
15368WAT     H146346   0.249   7.074   0.483
15368WAT     H246347   0.286   6.941   0.395
15369WAT      O46348   9.364   7.054   5.304
15369WAT     H146349   9.288   6.995   5.330
15369WAT     H246350   9.400   7.026   5.215
15370WAT      O46351   3.334   5.236   5.818
15370WAT     H146352   3.399   5.196   5.882
15370WAT     H246353   3.253   5.266   5.868
15371WAT      O46354   1.297   6.971   1.890
15371WAT     H146355   1.292   6.871   1.895
15371WAT     H246356   1.205   7.008   1.875
15372WAT      O46357   0.833   3.631   3.828
15372WAT     H146358   0.849   3.537   3.797
15372WAT     H246359   0.739   3.657   3.809
15373WAT      O46360   3.802   4.062   7.637
15373WAT     H146361   3.706   4.083   7.653
15373WAT     H246362   3.812   4.017   7.548
15374WAT      O46363   8.749   8.594   4.286
15374WAT     H146364   8.771   8.541   4.368
15374WAT     H246365   8.773   8.542   4.205
15375WAT      O46366   6.838   5.464   3.123
15375WAT     H146367   6.916   5.418   3.166
15375WAT     H246368   6.753   5.420   3.151
15376WAT      O46369   9.177   5.218   8.211
15376WAT     H146370   9.254   5.202   8.272
15376WAT     H246371   9.144   5.131   8.174
15377WAT      O46372   7.533   6.595   9.610
15377WAT     H146373   7.602   6.558   9.549
15377WAT     H246374   7.442   6.583   9.570
15378WAT      O46375   7.784   5.147   4.089
15378WAT     H146376   7.723   5.072   4.063
15378WAT     H246377   7.730   5.226   4.119
15379WAT      O46378   1.402   5.734   0.832
15379WAT     H146379   1.418   5.786   0.915
15379WAT     H246380   1.404   5.795   0.753
15380WAT      O46381   8.781   3.136   9.755
15380WAT     H146382   8.712   3.114   9.686
15380WAT     H246383   8.742   3.201   9.821
15381WAT      O46384   7.147   2.879   4.479
15381WAT     H146385   7.225   2.830   4.441
15381WAT     H246386   7.127   2.844   4.571
15382WAT      O46387   4.461   1.186   6.492
15382WAT     H146388   4.496   1.102   6.450
15382WAT     H246389   4.454   1.258   6.423
15383WAT      O46390   4.910   1.759   4.943
15383WAT     H146391   4.926   1.701   4.863
15383WAT     H246392   4.913   1.855   4.915
15384WAT      O46393   5.727   8.072   8.112
15384WAT     H146394   5.740   8.026   8.200
15384WAT     H246395   5.667   8.018   8.054
15385WAT      O46396   9.502   0.453   5.649
15385WAT     H146397   9.517   0.531   5.588
15385WAT     H246398   9.501   0.369   5.595
15386WAT      O46399   0.327   2.042   6.392
15386WAT     H146400   0.360   1.972   6.329
15386WAT     H246401   0.362   2.131   6.363
15387WAT      O46402   0.946   0.032   1.881
15387WAT     H146403   0.986   0.045   1.971
15387WAT     H246404   1.014   0.054   1.810
15388WAT      O46405   5.583   2.714   9.184
15388WAT     H146406   5.562   2.755   9.095
15388WAT     H246407   5.500   2.673   9.222
15389WAT      O46408   8.276   7.217   1.562
15389WAT     H146409   8.281   7.130   1.515
15389WAT     H246410   8.325   7.287   1.509
15390WAT      O46411   2.230   4.391   4.197
15390WAT     H146412   2.250   4.298   4.230
15390WAT     H246413   2.166   4.385   4.120
15391WAT      O46414   0.183   7.216   0.511
15391WAT     H146415   0.109   7.227   0.577
15391WAT     H246416   0.175   7.286   0.440
15392WAT      O46417   3.576   8.122   4.518
15392WAT     H146418   3.585   8.068   4.435
15392WAT     H246419   3.480   8.134   4.541
15393WAT      O46420   6.866   0.272   2.023
15393WAT     H146421   6.887   0.253   1.927
15393WAT     H246422   6.840   0.187   2.069
15394WAT      O46423   9.503   3.215   6.360
15394WAT     H146424   9.506   3.213   6.460
15394WAT     H246425   9.462   3.301   6.330
15395WAT      O46426   7.005   9.696   3.196
15395WAT     H146427   7.103   9.715   3.189
15395WAT     H246428   6.988   9.633   3.272
15396WAT      O46429   7.850   7.098   3.534
15396WAT     H146430   7.863   6.999   3.529
15396WAT     H246431   7.926   7.143   3.486
15397WAT      O46432   9.257   4.691   6.432
15397WAT     H146433   9.178   4.747   6.410
15397WAT     H246434   9.278   4.631   6.354
15398WAT      O46435   4.551   0.984   6.350
15398WAT     H146436   4.514   0.950   6.264
15398WAT     H246437   4.552   0.911   6.418
15399WAT      O46438   9.775   6.223   8.597
15399WAT     H146439   9.851   6.263   8.648
15399WAT     H246440   9.702   6.291   8.588
15400WAT      O46441   1.488   2.542   5.764
15400WAT     H146442   1.496   2.454   5.718
15400WAT     H246443   1.557   2.548   5.837
15401WAT      O46444   2.883   3.880   1.651
15401WAT     H146445   2.967   3.931   1.669
15401WAT     H246446   2.904   3.783   1.642
15402WAT      O46447   9.093   5.320   9.046
15402WAT     H146448   9.028   5.395   9.057
15402WAT     H246449   9.165   5.327   9.114
15403WAT      O46450   7.558   7.866   8.449
15403WAT     H146451   7.583   7.951   8.403
15403WAT     H246452   7.599   7.863   8.540
15404WAT      O46453   2.457   8.071   1.831
15404WAT     H146454   2.520   8.135   1.786
15404WAT     H246455   2.363   8.103   1.819
15405WAT      O46456   1.534   3.289   9.563
15405WAT     H146457   1.485   3.334   9.488
15405WAT     H246458   1.630   3.278   9.538
15406WAT      O46459   2.924   7.840   0.522
15406WAT     H146460   3.006   7.899   0.516
15406WAT     H246461   2.915   7.788   0.437
15407WAT      O46462   9.341   1.805   0.561
15407WAT     H146463   9.389   1.798   0.473
15407WAT     H246464   9.370   1.888   0.608
15408WAT      O46465   5.785   4.382   8.972
15408WAT     H146466   5.877   4.417   8.961
15408WAT     H246467   5.756   4.395   9.067
15409WAT      O46468   6.264   3.453   0.162
15409WAT     H146469   6.252   3.354   0.171
15409WAT     H246470   6.266   3.478   0.065
15410WAT      O46471   5.258   2.877   6.376
15410WAT     H146472   5.271   2.824   6.460
15410WAT     H246473   5.240   2.814   6.301
15411WAT      O46474   3.908   2.362   4.774
15411WAT     H146475   3.997   2.339   4.812
15411WAT     H246476   3.858   2.278   4.753
15412WAT      O46477   6.929   5.314   8.682
15412WAT     H146478   6.879   5.270   8.607
15412WAT     H246479   6.999   5.375   8.644
15413WAT      O46480   3.223   8.252   2.981
15413WAT     H146481   3.277   8.288   3.057
15413WAT     H246482   3.200   8.157   2.999
15414WAT      O46483   8.148   7.979   9.722
15414WAT     H146484   8.119   8.049   9.657
15414WAT     H246485   8.223   8.014   9.778
15415WAT      O46486   8.243   2.333   7.448
15415WAT     H146487   8.148   2.305   7.465
15415WAT     H246488   8.305   2.263   7.483
15416WAT      O46489   7.053   1.501   2.980
15416WAT     H146490   7.022   1.506   2.885
15416WAT     H246491   7.141   1.453   2.984
15417WAT      O46492   7.833   4.984   5.573
15417WAT     H146493   7.817   4.946   5.482
15417WAT     H246494   7.749   5.026   5.607
15418WAT      O46495   5.717   5.278   4.441
15418WAT     H146496   5.753   5.335   4.515
15418WAT     H246497   5.703   5.185   4.474
15419WAT      O46498   9.658   5.988   4.842
15419WAT     H146499   9.743   5.937   4.847
15419WAT     H246500   9.588   5.943   4.896
15420WAT      O46501   2.353   9.673   7.738
15420WAT     H146502   2.332   9.702   7.832
15420WAT     H246503   2.447   9.639   7.734
15421WAT      O46504   9.635   2.958   7.256
15421WAT     H146505   9.685   2.882   7.215
15421WAT     H246506   9.608   2.933   7.350
15422WAT      O46507   8.148   0.496   8.091
15422WAT     H146508   8.103   0.409   8.075
15422WAT     H246509   8.248   0.483   8.088
15423WAT      O46510   1.448   4.055   4.574
15423WAT     H146511   1.361   4.080   4.532
15423WAT     H246512   1.480   4.130   4.633
15424WAT      O46513   3.674   2.381   3.486
15424WAT     H146514   3.645   2.411   3.395
15424WAT     H246515   3.631   2.439   3.556
15425WAT      O46516   6.538   0.014   7.899
15425WAT     H146517   6.633  -0.014   7.887
15425WAT     H246518   6.522   0.034   7.996
15426WAT      O46519   1.065   8.973   8.829
15426WAT     H146520   0.986   8.921   8.861
15426WAT     H246521   1.136   8.972   8.900
15427WAT      O46522   0.869   8.598   0.120
15427WAT     H146523   0.897   8.689   0.151
15427WAT     H246524   0.776   8.602   0.085
15428WAT      O46525   8.375   1.697   4.892
15428WAT     H146526   8.351   1.660   4.802
15428WAT     H246527   8.359   1.627   4.962
15429WAT      O46528   5.868   8.153   5.494
15429WAT     H146529   5.805   8.162   5.571
15429WAT     H246530   5.844   8.220   5.423
15430WAT      O46531   2.967   0.860   7.963
15430WAT     H146532   2.922   0.935   8.012
15430WAT     H246533   2.939   0.773   8.002
15431WAT      O46534   9.789   7.428   6.187
15431WAT     H146535   9.786   7.339   6.141
15431WAT     H246536   9.733   7.423   6.270
15432WAT      O46537   5.097   5.751   5.051
15432WAT     H146538   5.080   5.843   5.017
15432WAT     H246539   5.187   5.720   5.022
15433WAT      O46540   8.495   7.893   9.151
15433WAT     H146541   8.478   7.825   9.080
15433WAT     H246542   8.482   7.984   9.114
15434WAT      O46543   9.184   9.309   2.110
15434WAT     H146544   9.197   9.384   2.174
15434WAT     H246545   9.113   9.333   2.044
15435WAT      O46546   3.868   5.134   8.734
15435WAT     H146547   3.898   5.039   8.744
15435WAT     H246548   3.769   5.135   8.719
15436WAT      O46549   6.129   7.421   0.272
15436WAT     H146550   6.153   7.351   0.205
15436WAT     H246551   6.123   7.510   0.227
15437WAT      O46552   7.475   7.562   3.188
15437WAT     H146553   7.386   7.543   3.227
15437WAT     H246554   7.540   7.586   3.261
15438WAT      O46555   3.286   7.249   8.506
15438WAT     H146556   3.256   7.157   8.530
15438WAT     H246557   3.246   7.275   8.418
15439WAT      O46558   6.489   5.425   3.393
15439WAT     H146559   6.538   5.380   3.318
15439WAT     H246560   6.497   5.370   3.476
15440WAT      O46561   2.575   6.103   2.384
15440WAT     H146562   2.577   6.011   2.346
15440WAT     H246563   2.499   6.111   2.449
15441WAT      O46564   7.331   2.931   6.676
15441WAT     H146565   7.368   2.971   6.593
15441WAT     H246566   7.236   2.962   6.688
15442WAT      O46567   8.797   8.562   8.192
15442WAT     H146568   8.789   8.470   8.229
15442WAT     H246569   8.714   8.585   8.142
15443WAT      O46570   1.335   6.358   6.760
15443WAT     H146571   1.270   6.427   6.727
15443WAT     H246572   1.294   6.267   6.753
15444WAT      O46573   8.808   2.318   4.151
15444WAT     H146574   8.792   2.413   4.122
15444WAT     H246575   8.792   2.311   4.249
15445WAT      O46576   6.658   9.231   9.018
15445WAT     H146577   6.715   9.312   9.007
15445WAT     H246578   6.700   9.169   9.084
15446WAT      O46579   1.524   9.366   3.548
15446WAT     H146580   1.560   9.454   3.580
15446WAT     H246581   1.504   9.308   3.627
15447WAT      O46582   0.151   3.603   4.651
15447WAT     H146583   0.130   3.696   4.681
15447WAT     H246584   0.161   3.543   4.730
15448WAT      O46585   9.840   5.739   8.593
15448WAT     H146586   9.858   5.831   8.561
15448WAT     H246587   9.745   5.731   8.622
15449WAT      O46588   1.284   8.893   4.841
15449WAT     H146589   1.370   8.940   4.861
15449WAT     H246590   1.301   8.795   4.829
15450WAT      O46591   2.524   4.431   5.604
15450WAT     H146592   2.467   4.502   5.646
15450WAT     H246593   2.546   4.361   5.673
15451WAT      O46594   4.386   8.159   8.369
15451WAT     H146595   4.301   8.110   8.351
15451WAT     H246596   4.452   8.140   8.296
15452WAT      O46597   5.926   1.364   9.792
15452WAT     H146598   5.932   1.266   9.774
15452WAT     H246599   5.934   1.414   9.707
15453WAT      O46600   0.473   3.659   0.129
15453WAT     H146601   0.418   3.576   0.127
15453WAT     H246602   0.414   3.738   0.143
15454WAT      O46603   1.424   8.923   3.647
15454WAT     H146604   1.517   8.887   3.639
15454WAT     H246605   1.396   8.965   3.561
15455WAT      O46606   2.114   3.581   1.706
15455WAT     H146607   2.115   3.485   1.732
15455WAT     H246608   2.066   3.634   1.776
15456WAT      O46609   6.566   3.569   1.379
15456WAT     H146610   6.471   3.539   1.379
15456WAT     H246611   6.572   3.660   1.338
15457WAT      O46612   8.932   4.040   7.425
15457WAT     H146613   8.973   3.985   7.498
15457WAT     H246614   8.834   4.021   7.420
15458WAT      O46615   7.457   1.406   3.648
15458WAT     H146616   7.387   1.337   3.629
15458WAT     H246617   7.515   1.418   3.567
15459WAT      O46618   6.316   0.321   2.980
15459WAT     H146619   6.401   0.338   3.031
15459WAT     H246620   6.311   0.224   2.957
15460WAT      O46621   1.128   1.865   7.310
15460WAT     H146622   1.153   1.918   7.390
15460WAT     H246623   1.102   1.926   7.236
15461WAT      O46624   1.124   5.170   3.904
15461WAT     H146625   1.146   5.180   4.001
15461WAT     H246626   1.093   5.257   3.867
15462WAT      O46627   5.324   1.642   7.083
15462WAT     H146628   5.379   1.693   7.017
15462WAT     H246629   5.355   1.547   7.085
15463WAT      O46630   6.924   9.568   2.755
15463WAT     H146631   6.902   9.501   2.684
15463WAT     H246632   6.879   9.541   2.841
15464WAT      O46633   6.179   4.126   7.377
15464WAT     H146634   6.198   4.107   7.281
15464WAT     H246635   6.198   4.045   7.432
15465WAT      O46636   1.550   9.342   7.628
15465WAT     H146637   1.564   9.357   7.725
15465WAT     H246638   1.535   9.244   7.611
15466WAT      O46639   7.657   1.331   3.450
15466WAT     H146640   7.682   1.235   3.449
15466WAT     H246641   7.737   1.387   3.433
15467WAT      O46642   4.599   3.898   4.176
15467WAT     H146643   4.683   3.901   4.121
15467WAT     H246644   4.622   3.874   4.270
15468WAT      O46645   5.392   4.213   5.737
15468WAT     H146646   5.469   4.160   5.703
15468WAT     H246647   5.308   4.183   5.692
15469WAT      O46648   0.485   8.084   1.182
15469WAT     H146649   0.520   8.158   1.238
15469WAT     H246650   0.388   8.069   1.204
15470WAT      O46651   4.649   0.248   6.989
15470WAT     H146652   4.556   0.215   6.976
15470WAT     H246653   4.656   0.292   7.079
15471WAT      O46654   6.299   6.213   6.577
15471WAT     H146655   6.271   6.272   6.501
15471WAT     H246656   6.361   6.143   6.543
15472WAT      O46657   6.338   8.798   9.605
15472WAT     H146658   6.411   8.866   9.611
15472WAT     H246659   6.354   8.725   9.671
15473WAT      O46660   5.856   7.667   3.178
15473WAT     H146661   5.937   7.647   3.122
15473WAT     H246662   5.882   7.723   3.257
15474WAT      O46663   8.938   5.981   0.370
15474WAT     H146664   8.949   5.895   0.420
15474WAT     H246665   9.027   6.012   0.337
15475WAT      O46666   6.758   7.991   2.935
15475WAT     H146667   6.784   8.047   2.856
15475WAT     H246668   6.661   7.965   2.927
15476WAT      O46669   0.244   2.770   2.822
15476WAT     H146670   0.305   2.770   2.743
15476WAT     H246671   0.169   2.834   2.806
15477WAT      O46672   8.504   3.565   7.496
15477WAT     H146673   8.476   3.561   7.399
15477WAT     H246674   8.554   3.483   7.519
15478WAT      O46675   8.985   9.119   0.299
15478WAT     H146676   8.987   9.065   0.215
15478WAT     H246677   8.918   9.080   0.362
15479WAT      O46678   3.018   2.185   0.126
15479WAT     H146679   2.946   2.169   0.193
15479WAT     H246680   2.986   2.159   0.035
15480WAT      O46681   9.110   6.193   2.360
15480WAT     H146682   9.112   6.217   2.457
15480WAT     H246683   9.022   6.219   2.320
15481WAT      O46684   3.105   8.867   6.395
15481WAT     H146685   3.097   8.812   6.312
15481WAT     H246686   3.081   8.962   6.374
15482WAT      O46687   0.845   0.566   4.698
15482WAT     H146688   0.820   0.527   4.609
15482WAT     H246689   0.774   0.629   4.729
15483WAT      O46690   1.352   8.809   0.556
15483WAT     H146691   1.310   8.794   0.646
15483WAT     H246692   1.311   8.747   0.489
15484WAT      O46693   6.246   6.567   8.030
15484WAT     H146694   6.327   6.523   8.070
15484WAT     H246695   6.174   6.499   8.018
15485WAT      O46696   7.576   1.009   8.336
15485WAT     H146697   7.629   1.056   8.265
15485WAT     H246698   7.594   1.052   8.425
15486WAT      O46699   2.950   2.080   9.789
15486WAT     H146700   3.022   2.019   9.757
15486WAT     H246701   2.866   2.028   9.806
15487WAT      O46702   7.073   0.107   8.770
15487WAT     H146703   7.002   0.116   8.700
15487WAT     H246704   7.095   0.011   8.783
15488WAT      O46705   6.658   3.973   1.553
15488WAT     H146706   6.567   3.971   1.594
15488WAT     H246707   6.659   3.914   1.472
15489WAT      O46708   2.813   3.775   8.936
15489WAT     H146709   2.796   3.731   9.024
15489WAT     H246710   2.733   3.764   8.877
15490WAT      O46711   6.276   2.978   6.424
15490WAT     H146712   6.209   2.915   6.385
15490WAT     H246713   6.248   3.004   6.516
15491WAT      O46714   7.735   8.874   5.807
15491WAT     H146715   7.745   8.920   5.719
15491WAT     H246716   7.724   8.776   5.793
15492WAT      O46717   1.383   2.770   1.891
15492WAT     H146718   1.357   2.686   1.938
15492WAT     H246719   1.301   2.816   1.856
15493WAT      O46720   5.153   4.320   7.533
15493WAT     H146721   5.158   4.320   7.433
15493WAT     H246722   5.063   4.352   7.562
15494WAT      O46723   0.265   9.316   7.746
15494WAT     H146724   0.168   9.337   7.738
15494WAT     H246725   0.312   9.344   7.662
15495WAT      O46726   1.550   8.002   9.671
15495WAT     H146727   1.518   8.070   9.737
15495WAT     H246728   1.471   7.954   9.632
15496WAT      O46729   6.539   0.708   4.285
15496WAT     H146730   6.450   0.753   4.276
15496WAT     H246731   6.585   0.705   4.196
15497WAT      O46732   8.373   0.486   1.362
15497WAT     H146733   8.426   0.411   1.402
15497WAT     H246734   8.278   0.478   1.390
15498WAT      O46735   8.696   0.201   6.069
15498WAT     H146736   8.682   0.108   6.104
15498WAT     H246737   8.651   0.211   5.980
15499WAT      O46738   4.989   1.622   1.147
15499WAT     H146739   4.902   1.649   1.187
15499WAT     H246740   4.974   1.590   1.053
15500WAT      O46741   7.377   7.835   2.163
15500WAT     H146742   7.376   7.853   2.064
15500WAT     H246743   7.374   7.922   2.212
15501WAT      O46744   8.658   9.149   3.672
15501WAT     H146745   8.711   9.201   3.739
15501WAT     H246746   8.562   9.146   3.700
15502WAT      O46747   8.699   2.594   2.140
15502WAT     H146748   8.623   2.534   2.115
15502WAT     H246749   8.747   2.556   2.219
15503WAT      O46750   9.145   1.479   6.622
15503WAT     H146751   9.176   1.469   6.527
15503WAT     H246752   9.118   1.390   6.658
15504WAT      O46753   8.941   5.061   2.798
15504WAT     H146754   8.948   5.065   2.698
15504WAT     H246755   8.856   5.104   2.828
15505WAT      O46756   5.903   5.284   2.296
15505WAT     H146757   5.918   5.273   2.198
15505WAT     H246758   5.858   5.372   2.313
15506WAT      O46759   0.135   4.195   6.956
15506WAT     H146760   0.080   4.123   6.998
15506WAT     H246761   0.196   4.154   6.888
15507WAT      O46762   3.787   8.386   1.219
15507WAT     H146763   3.881   8.417   1.228
15507WAT     H246764   3.738   8.447   1.157
15508WAT      O46765   2.262   4.964   9.658
15508WAT     H146766   2.314   5.030   9.604
15508WAT     H246767   2.325   4.904   9.708
15509WAT      O46768   4.491   4.219   7.825
15509WAT     H146769   4.553   4.161   7.773
15509WAT     H246770   4.400   4.215   7.785
15510WAT      O46771   1.073   2.799   6.931
15510WAT     H146772   1.156   2.855   6.939
15510WAT     H246773   1.029   2.818   6.843
15511WAT      O46774   7.747   2.709   8.454
15511WAT     H146775   7.670   2.753   8.501
15511WAT     H246776   7.779   2.769   8.380
15512WAT      O46777   7.176   4.342   9.374
15512WAT     H146778   7.147   4.272   9.309
15512WAT     H246779   7.202   4.299   9.461
15513WAT      O46780   3.286   8.306   0.350
15513WAT     H146781   3.356   8.234   0.355
15513WAT     H246782   3.197   8.263   0.335
15514WAT      O46783   3.106   8.828   8.452
15514WAT     H146784   3.110   8.927   8.436
15514WAT     H246785   3.188   8.798   8.500
15515WAT      O46786   4.417   4.387   1.310
15515WAT     H146787   4.455   4.355   1.223
15515WAT     H246788   4.394   4.484   1.302
15516WAT      O46789   6.308   3.985   8.471
15516WAT     H146790   6.267   4.072   8.443
15516WAT     H246791   6.237   3.924   8.505
15517WAT      O46792   8.403   5.333   3.215
15517WAT     H146793   8.305   5.328   3.199
15517WAT     H246794   8.422   5.334   3.313
15518WAT      O46795   1.804   5.303   8.542
15518WAT     H146796   1.891   5.343   8.570
15518WAT     H246797   1.820   5.211   8.506
15519WAT      O46798   8.044   8.543   4.682
15519WAT     H146799   8.002   8.522   4.771
15519WAT     H246800   8.024   8.639   4.658
15520WAT      O46801   7.406   7.893   9.122
15520WAT     H146802   7.396   7.916   9.025
15520WAT     H246803   7.366   7.966   9.177
15521WAT      O46804   5.082   1.939   2.851
15521WAT     H146805   5.067   1.943   2.950
15521WAT     H246806   5.163   1.993   2.826
15522WAT      O46807   6.559   9.579   3.167
15522WAT     H146808   6.618   9.611   3.241
15522WAT     H246809   6.499   9.653   3.138
15523WAT      O46810   1.379   5.120   1.088
15523WAT     H146811   1.476   5.106   1.105
15523WAT     H246812   1.361   5.218   1.075
15524WAT      O46813   5.146   4.977   8.408
15524WAT     H146814   5.140   5.065   8.361
15524WAT     H246815   5.062   4.925   8.395
15525WAT      O46816   7.937   7.477   6.984
15525WAT     H146817   7.929   7.377   6.982
15525WAT     H246818   7.861   7.518   6.935
15526WAT      O46819   7.321   0.432   3.707
15526WAT     H146820   7.348   0.526   3.684
15526WAT     H246821   7.356   0.369   3.638
15527WAT      O46822   2.051   0.904   9.412
15527WAT     H146823   2.017   0.826   9.359
15527WAT     H246824   1.992   0.918   9.492
15528WAT      O46825   7.230   5.996   4.903
15528WAT     H146826   7.273   6.073   4.856
15528WAT     H246827   7.180   6.029   4.983
15529WAT      O46828   1.995   4.942   9.584
15529WAT     H146829   2.011   4.931   9.486
15529WAT     H246830   2.081   4.969   9.628
15530WAT      O46831   8.529   4.497   1.451
15530WAT     H146832   8.460   4.500   1.379
15530WAT     H246833   8.525   4.581   1.505
15531WAT      O46834   1.892   9.754   8.648
15531WAT     H146835   1.882   9.659   8.676
15531WAT     H246836   1.809   9.805   8.670
15532WAT      O46837   3.068   6.078   5.467
15532WAT     H146838   3.110   6.130   5.541
15532WAT     H246839   2.975   6.112   5.452
15533WAT      O46840   3.779   9.840   0.345
15533WAT     H146841   3.798   9.895   0.427
15533WAT     H246842   3.812   9.747   0.359
15534WAT      O46843   5.461   5.726   4.396
15534WAT     H146844   5.369   5.762   4.388
15534WAT     H246845   5.516   5.757   4.318
15535WAT      O46846   2.994   6.378   4.203
15535WAT     H146847   3.001   6.310   4.130
15535WAT     H246848   2.976   6.468   4.163
15536WAT      O46849   9.213   7.036   7.359
15536WAT     H146850   9.199   7.065   7.264
15536WAT     H246851   9.227   7.116   7.417
15537WAT      O46852   6.490   8.057   1.531
15537WAT     H146853   6.490   8.117   1.452
15537WAT     H246854   6.532   7.969   1.506
15538WAT      O46855   1.105   3.597   2.739
15538WAT     H146856   1.131   3.677   2.685
15538WAT     H246857   1.168   3.522   2.722
15539WAT      O46858   2.048   8.454   2.119
15539WAT     H146859   2.044   8.554   2.111
15539WAT     H246860   2.144   8.426   2.124
15540WAT      O46861   3.567   4.912   9.732
15540WAT     H146862   3.489   4.878   9.680
15540WAT     H246863   3.652   4.888   9.685
15541WAT      O46864   4.548   8.681   9.418
15541WAT     H146865   4.589   8.590   9.411
15541WAT     H246866   4.482   8.683   9.493
15542WAT      O46867   4.448   8.270   4.754
15542WAT     H146868   4.543   8.263   4.723
15542WAT     H246869   4.407   8.354   4.717
15543WAT      O46870   5.139   4.415   5.314
15543WAT     H146871   5.165   4.329   5.270
15543WAT     H246872   5.217   4.450   5.366
15544WAT      O46873   4.015   5.144   6.887
15544WAT     H146874   4.108   5.162   6.853
15544WAT     H246875   4.005   5.184   6.978
15545WAT      O46876   0.262   4.703   1.527
15545WAT     H146877   0.300   4.731   1.615
15545WAT     H246878   0.336   4.675   1.466
15546WAT      O46879   8.899   2.201   7.948
15546WAT     H146880   8.907   2.277   8.012
15546WAT     H246881   8.966   2.213   7.874
15547WAT      O46882   0.446   8.595   1.766
15547WAT     H146883   0.486   8.584   1.675
15547WAT     H246884   0.364   8.652   1.759
15548WAT      O46885   9.157   4.912   7.658
15548WAT     H146886   9.104   4.829   7.676
15548WAT     H246887   9.249   4.887   7.627
15549WAT      O46888   2.404   8.456   1.552
15549WAT     H146889   2.314   8.461   1.511
15549WAT     H246890   2.440   8.549   1.567
15550WAT      O46891   8.662   0.864   0.912
15550WAT     H146892   8.691   0.933   0.845
15550WAT     H246893   8.677   0.899   1.004
15551WAT      O46894   8.152   8.831   4.639
15551WAT     H146895   8.155   8.765   4.564
15551WAT     H246896   8.179   8.922   4.604
15552WAT      O46897   2.829   3.201   2.045
15552WAT     H146898   2.785   3.253   1.972
15552WAT     H246899   2.759   3.154   2.099
15553WAT      O46900   2.716   5.101   6.057
15553WAT     H146901   2.811   5.133   6.063
15553WAT     H246902   2.685   5.073   6.148
15554WAT      O46903   9.308   2.962   2.758
15554WAT     H146904   9.287   3.014   2.840
15554WAT     H246905   9.339   2.870   2.783
15555WAT      O46906   7.740   7.118   7.777
15555WAT     H146907   7.817   7.126   7.840
15555WAT     H246908   7.671   7.186   7.800
15556WAT      O46909   9.434   3.947   9.876
15556WAT     H146910   9.348   3.994   9.897
15556WAT     H246911   9.503   3.971   9.944
15557WAT      O46912   9.327   9.447   3.084
15557WAT     H146913   9.276   9.519   3.131
15557WAT     H246914   9.415   9.483   3.052
15558WAT      O46915   3.322   2.715   1.072
15558WAT     H146916   3.294   2.622   1.096
15558WAT     H246917   3.324   2.772   1.154
15559WAT      O46918   1.184   1.601   6.064
15559WAT     H146919   1.250   1.583   6.137
15559WAT     H246920   1.103   1.544   6.078
15560WAT      O46921   9.254   8.640   9.727
15560WAT     H146922   9.300   8.684   9.650
15560WAT     H246923   9.162   8.613   9.699
15561WAT      O46924   6.754   0.145   1.522
15561WAT     H146925   6.741   0.077   1.594
15561WAT     H246926   6.719   0.233   1.551
15562WAT      O46927   0.629   6.228   7.666
15562WAT     H146928   0.573   6.307   7.692
15562WAT     H246929   0.718   6.260   7.633
15563WAT      O46930   5.456   4.346   0.141
15563WAT     H146931   5.548   4.321   0.172
15563WAT     H246932   5.463   4.396   0.054
15564WAT      O46933   6.472   1.791   8.032
15564WAT     H146934   6.465   1.865   8.100
15564WAT     H246935   6.467   1.703   8.079
15565WAT      O46936   4.344   8.619   8.017
15565WAT     H146937   4.433   8.615   8.064
15565WAT     H246938   4.271   8.610   8.084
15566WAT      O46939   0.378   8.146   7.508
15566WAT     H146940   0.452   8.081   7.492
15566WAT     H246941   0.407   8.238   7.480
15567WAT      O46942   5.540   8.736   8.042
15567WAT     H146943   5.473   8.786   7.987
15567WAT     H246944   5.523   8.637   8.034
15568WAT      O46945   3.784   0.852   5.325
15568WAT     H146946   3.793   0.878   5.229
15568WAT     H246947   3.736   0.925   5.375
15569WAT      O46948   7.435   5.724   6.017
15569WAT     H146949   7.407   5.644   5.965
15569WAT     H246950   7.470   5.794   5.954
15570WAT      O46951   6.093   3.873   8.146
15570WAT     H146952   6.016   3.907   8.199
15570WAT     H246953   6.162   3.945   8.136
15571WAT      O46954   6.641   3.020   4.900
15571WAT     H146955   6.550   3.061   4.887
15571WAT     H246956   6.632   2.937   4.954
15572WAT      O46957   4.484   3.934   3.027
15572WAT     H146958   4.454   3.843   2.998
15572WAT     H246959   4.421   3.970   3.095
15573WAT      O46960   4.697   2.144   4.747
15573WAT     H146961   4.735   2.210   4.682
15573WAT     H246962   4.621   2.095   4.704
15574WAT      O46963   1.597   6.039   8.847
15574WAT     H146964   1.507   6.063   8.810
15574WAT     H246965   1.657   6.119   8.844
15575WAT      O46966   9.168   1.634   5.500
15575WAT     H146967   9.087   1.683   5.531
15575WAT     H246968   9.183   1.554   5.558
15576WAT      O46969   8.167   4.179   7.056
15576WAT     H146970   8.142   4.088   7.023
15576WAT     H246971   8.159   4.245   6.980
15577WAT      O46972   3.409   2.197   1.187
15577WAT     H146973   3.472   2.233   1.118
15577WAT     H246974   3.338   2.143   1.142
15578WAT      O46975   9.275   2.721   5.669
15578WAT     H146976   9.237   2.633   5.643
15578WAT     H246977   9.237   2.793   5.611
15579WAT      O46978   4.964   8.798   7.521
15579WAT     H146979   5.042   8.754   7.565
15579WAT     H246980   4.879   8.759   7.558
15580WAT      O46981   9.114   9.470   8.135
15580WAT     H146982   9.033   9.472   8.076
15580WAT     H246983   9.140   9.375   8.152
15581WAT      O46984   7.956   2.811   3.841
15581WAT     H146985   7.980   2.718   3.866
15581WAT     H246986   7.886   2.810   3.770
15582WAT      O46987   2.365   3.310   2.411
15582WAT     H146988   2.400   3.287   2.320
15582WAT     H246989   2.349   3.408   2.416
15583WAT      O46990   9.394   8.074   8.538
15583WAT     H146991   9.359   7.997   8.485
15583WAT     H246992   9.491   8.087   8.519
15584WAT      O46993   8.401   1.499   6.121
15584WAT     H146994   8.378   1.402   6.126
15584WAT     H246995   8.317   1.552   6.108
15585WAT      O46996   8.011   2.200   7.077
15585WAT     H146997   8.109   2.193   7.096
15585WAT     H246998   7.965   2.117   7.109
15586WAT      O46999   1.733   9.075   4.480
15586WAT     H147000   1.814   9.028   4.445
15586WAT     H247001   1.682   9.115   4.403
15587WAT      O47002   9.315   2.431   8.421
15587WAT     H147003   9.378   2.357   8.398
15587WAT     H247004   9.353   2.518   8.388
15588WAT      O47005   1.317   4.857   8.023
15588WAT     H147006   1.220   4.853   8.047
15588WAT     H247007   1.362   4.773   8.055
15589WAT      O47008   0.735   9.003   5.739
15589WAT     H147009   0.733   8.923   5.679
15589WAT     H247010   0.658   9.062   5.718
15590WAT      O47011   0.720   3.836   3.248
15590WAT     H147012   0.661   3.859   3.171
15590WAT     H247013   0.665   3.803   3.324
15591WAT      O47014   5.341   5.551   2.524
15591WAT     H147015   5.250   5.526   2.557
15591WAT     H247016   5.355   5.511   2.433
15592WAT      O47017   8.821   4.896   9.816
15592WAT     H147018   8.768   4.812   9.827
15592WAT     H247019   8.768   4.963   9.764
15593WAT      O47020   3.054   2.106   9.292
15593WAT     H147021   3.024   2.085   9.199
15593WAT     H247022   3.146   2.071   9.306
15594WAT      O47023   2.789   3.540   9.453
15594WAT     H147024   2.700   3.495   9.442
15594WAT     H247025   2.784   3.605   9.529
15595WAT      O47026   0.429   9.573   4.147
15595WAT     H147027   0.455   9.546   4.240
15595WAT     H247028   0.351   9.518   4.117
15596WAT      O47029   4.750   8.688   5.315
15596WAT     H147030   4.779   8.671   5.220
15596WAT     H247031   4.676   8.756   5.315
15597WAT      O47032   7.226   5.369   2.591
15597WAT     H147033   7.218   5.328   2.682
15597WAT     H247034   7.185   5.460   2.592
15598WAT      O47035   1.676   4.266   0.762
15598WAT     H147036   1.684   4.238   0.857
15598WAT     H247037   1.589   4.315   0.749
15599WAT      O47038   5.215   0.645   6.135
15599WAT     H147039   5.280   0.681   6.068
15599WAT     H247040   5.256   0.566   6.181
15600WAT      O47041   5.313   2.224   5.555
15600WAT     H147042   5.258   2.304   5.529
15600WAT     H247043   5.377   2.203   5.482
15601WAT      O47044   3.835   8.620   1.427
15601WAT     H147045   3.827   8.674   1.511
15601WAT     H247046   3.874   8.531   1.449
15602WAT      O47047   7.492   8.230   8.045
15602WAT     H147048   7.397   8.248   8.020
15602WAT     H247049   7.526   8.305   8.101
15603WAT      O47050   7.560   0.635   0.804
15603WAT     H147051   7.506   0.703   0.755
15603WAT     H247052   7.647   0.675   0.832
15604WAT      O47053   0.775   0.014   8.109
15604WAT     H147054   0.698   0.067   8.074
15604WAT     H247055   0.835   0.073   8.163
15605WAT      O47056   7.493   7.877   6.220
15605WAT     H147057   7.580   7.906   6.257
15605WAT     H247058   7.445   7.956   6.181
15606WAT      O47059   0.801   0.554   1.959
15606WAT     H147060   0.896   0.569   1.934
15606WAT     H247061   0.742   0.610   1.902
15607WAT      O47062   1.370   2.901   9.479
15607WAT     H147063   1.336   2.962   9.407
15607WAT     H247064   1.469   2.890   9.468
15608WAT      O47065   4.333   2.563   4.681
15608WAT     H147066   4.359   2.537   4.775
15608WAT     H247067   4.415   2.566   4.624
15609WAT      O47068   0.183   4.830   5.902
15609WAT     H147069   0.087   4.860   5.902
15609WAT     H247070   0.187   4.733   5.877
15610WAT      O47071   3.726   3.651   4.225
15610WAT     H147072   3.697   3.555   4.231
15610WAT     H247073   3.704   3.687   4.135
15611WAT      O47074   4.535   0.045   4.296
15611WAT     H147075   4.446   0.086   4.316
15611WAT     H247076   4.584   0.029   4.382
15612WAT      O47077   0.975   7.649   0.991
15612WAT     H147078   1.066   7.687   1.006
15612WAT     H247079   0.979   7.578   0.921
15613WAT      O47080   9.305   6.514   9.499
15613WAT     H147081   9.303   6.561   9.411
15613WAT     H247082   9.395   6.523   9.540
15614WAT      O47083   2.741   7.993   3.085
15614WAT     H147084   2.832   7.988   3.127
15614WAT     H247085   2.750   7.981   2.986
15615WAT      O47086   3.386   7.393   6.221
15615WAT     H147087   3.312   7.412   6.156
15615WAT     H247088   3.381   7.459   6.296
15616WAT      O47089   6.056   2.414   9.625
15616WAT     H147090   5.984   2.362   9.670
15616WAT     H247091   6.137   2.356   9.614
15617WAT      O47092   2.678   1.157   6.513
15617WAT     H147093   2.676   1.163   6.613
15617WAT     H247094   2.667   1.249   6.474
15618WAT      O47095   5.384   5.423   2.051
15618WAT     H147096   5.416   5.360   2.121
15618WAT     H247097   5.401   5.384   1.960
15619WAT      O47098   2.979   9.456   2.456
15619WAT     H147099   3.063   9.411   2.487
15619WAT     H247100   2.964   9.436   2.359
15620WAT      O47101   9.735   0.257   3.954
15620WAT     H147102   9.714   0.264   3.856
15620WAT     H247103   9.830   0.283   3.969
15621WAT      O47104   7.820   8.139   5.971
15621WAT     H147105   7.772   8.090   6.044
15621WAT     H247106   7.914   8.157   5.999
15622WAT      O47107   6.116   4.716   0.344
15622WAT     H147108   6.022   4.747   0.362
15622WAT     H247109   6.180   4.790   0.363
15623WAT      O47110   8.761   8.561   4.725
15623WAT     H147111   8.782   8.659   4.728
15623WAT     H247112   8.791   8.518   4.811
15624WAT      O47113   0.577   4.131   7.232
15624WAT     H147114   0.561   4.061   7.163
15624WAT     H247115   0.527   4.108   7.316
15625WAT      O47116   9.812   3.068   3.286
15625WAT     H147117   9.809   2.969   3.285
15625WAT     H247118   9.723   3.105   3.311
15626WAT      O47119   1.580   4.134   4.352
15626WAT     H147120   1.670   4.160   4.386
15626WAT     H247121   1.530   4.084   4.424
15627WAT      O47122   1.240   9.262   5.621
15627WAT     H147123   1.162   9.309   5.662
15627WAT     H247124   1.215   9.168   5.599
15628WAT      O47125   7.302   1.030   6.011
15628WAT     H147126   7.365   1.026   5.934
15628WAT     H247127   7.313   0.949   6.069
15629WAT      O47128   2.903   2.022   7.613
15629WAT     H147129   2.819   2.030   7.665
15629WAT     H247130   2.895   2.073   7.527
15630WAT      O47131   3.122   6.285   4.740
15630WAT     H147132   3.080   6.375   4.726
15630WAT     H247133   3.198   6.274   4.677
15631WAT      O47134   9.646   5.962   6.676
15631WAT     H147135   9.710   6.034   6.702
15631WAT     H247136   9.600   5.987   6.591
15632WAT      O47137   2.167   9.398   4.211
15632WAT     H147138   2.190   9.354   4.298
15632WAT     H247139   2.068   9.405   4.202
15633WAT      O47140   7.732   6.681   3.901
15633WAT     H147141   7.634   6.678   3.917
15633WAT     H247142   7.753   6.760   3.843
15634WAT      O47143   3.435   2.970   7.908
15634WAT     H147144   3.462   2.907   7.981
15634WAT     H247145   3.382   2.921   7.839
15635WAT      O47146   0.851   0.757   5.108
15635WAT     H147147   0.759   0.723   5.090
15635WAT     H247148   0.919   0.690   5.075
15636WAT      O47149   1.543   4.149   0.495
15636WAT     H147150   1.562   4.247   0.499
15636WAT     H247151   1.626   4.100   0.469
15637WAT      O47152   8.537   8.970   4.295
15637WAT     H147153   8.513   8.873   4.304
15637WAT     H247154   8.633   8.982   4.318
15638WAT      O47155   9.689   4.307   0.863
15638WAT     H147156   9.726   4.258   0.942
15638WAT     H247157   9.744   4.389   0.847
15639WAT      O47158   3.145   7.638   2.511
15639WAT     H147159   3.218   7.609   2.572
15639WAT     H247160   3.158   7.734   2.485
15640WAT      O47161   7.449   0.180   4.168
15640WAT     H147162   7.418   0.228   4.250
15640WAT     H247163   7.415   0.227   4.087
15641WAT      O47164   8.399   7.651   1.030
15641WAT     H147165   8.372   7.612   1.119
15641WAT     H247166   8.340   7.613   0.958
15642WAT      O47167   1.339   1.699   9.513
15642WAT     H147168   1.277   1.663   9.582
15642WAT     H247169   1.288   1.721   9.430
15643WAT      O47170   2.128   4.432   0.562
15643WAT     H147171   2.099   4.339   0.540
15643WAT     H247172   2.099   4.494   0.489
15644WAT      O47173   9.573   4.004   7.737
15644WAT     H147174   9.626   3.920   7.739
15644WAT     H247175   9.591   4.057   7.820
15645WAT      O47176   4.719   8.014   1.575
15645WAT     H147177   4.740   7.940   1.639
15645WAT     H247178   4.786   8.014   1.501
15646WAT      O47179   1.070   5.726   1.347
15646WAT     H147180   1.114   5.787   1.412
15646WAT     H247181   0.985   5.769   1.313
15647WAT      O47182   5.620   8.651   1.606
15647WAT     H147183   5.655   8.625   1.696
15647WAT     H247184   5.682   8.618   1.535
15648WAT      O47185   2.052   9.684   4.120
15648WAT     H147186   2.140   9.653   4.083
15648WAT     H247187   1.983   9.614   4.107
15649WAT      O47188   3.248   0.210   5.781
15649WAT     H147189   3.176   0.195   5.849
15649WAT     H247190   3.256   0.308   5.762
15650WAT      O47191   4.796   0.634   2.357
15650WAT     H147192   4.729   0.681   2.415
15650WAT     H247193   4.888   0.667   2.379
15651WAT      O47194   1.521   7.861   5.832
15651WAT     H147195   1.527   7.906   5.921
15651WAT     H247196   1.598   7.891   5.775
15652WAT      O47197   8.778   1.966   7.896
15652WAT     H147198   8.682   1.973   7.868
15652WAT     H247199   8.815   2.058   7.909
15653WAT      O47200   6.134   9.156   2.340
15653WAT     H147201   6.226   9.171   2.305
15653WAT     H247202   6.085   9.093   2.280
15654WAT      O47203   9.631   7.397   5.459
15654WAT     H147204   9.656   7.477   5.513
15654WAT     H247205   9.532   7.394   5.445
15655WAT      O47206   2.520   2.207   5.773
15655WAT     H147207   2.510   2.306   5.764
15655WAT     H247208   2.529   2.182   5.869
15656WAT      O47209   9.137   2.380   5.839
15656WAT     H147210   9.220   2.356   5.890
15656WAT     H247211   9.163   2.419   5.750
15657WAT      O47212   5.998   8.871   7.278
15657WAT     H147213   6.068   8.920   7.329
15657WAT     H247214   5.940   8.820   7.341
15658WAT      O47215   4.482   2.908   7.355
15658WAT     H147216   4.509   2.963   7.433
15658WAT     H247217   4.556   2.907   7.287
15659WAT      O47218   6.728   7.605   8.939
15659WAT     H147219   6.754   7.693   8.979
15659WAT     H247220   6.729   7.535   9.010
15660WAT      O47221   9.366   1.088   1.618
15660WAT     H147222   9.460   1.122   1.619
15660WAT     H247223   9.346   1.042   1.705
15661WAT      O47224   0.071   1.798   6.530
15661WAT     H147225   0.021   1.734   6.588
15661WAT     H247226   0.077   1.887   6.575
15662WAT      O47227   0.769   4.898   3.348
15662WAT     H147228   0.840   4.956   3.387
15662WAT     H247229   0.711   4.952   3.287
15663WAT      O47230   7.009   3.472   2.985
15663WAT     H147231   7.007   3.519   3.073
15663WAT     H247232   6.921   3.428   2.968
15664WAT      O47233   1.496   3.974   7.580
15664WAT     H147234   1.523   3.879   7.597
15664WAT     H247235   1.529   4.032   7.654
15665WAT      O47236   8.974   7.704   7.588
15665WAT     H147237   8.893   7.718   7.644
15665WAT     H247238   8.948   7.699   7.491
15666WAT      O47239   9.273   5.833   4.880
15666WAT     H147240   9.218   5.906   4.920
15666WAT     H247241   9.360   5.826   4.930
15667WAT      O47242   2.833   8.474   4.182
15667WAT     H147243   2.733   8.480   4.177
15667WAT     H247244   2.862   8.499   4.275
15668WAT      O47245   1.523   9.827   8.334
15668WAT     H147246   1.611   9.875   8.325
15668WAT     H247247   1.489   9.802   8.244
15669WAT      O47248   1.909   6.309   1.521
15669WAT     H147249   1.917   6.384   1.457
15669WAT     H247250   1.845   6.241   1.486
15670WAT      O47251   0.006   1.408   0.650
15670WAT     H147252  -0.040   1.334   0.700
15670WAT     H247253   0.026   1.483   0.714
15671WAT      O47254   2.295   9.800   9.355
15671WAT     H147255   2.264   9.894   9.342
15671WAT     H247256   2.390   9.800   9.385
15672WAT      O47257   9.371   6.355   8.629
15672WAT     H147258   9.289   6.403   8.660
15672WAT     H247259   9.386   6.275   8.688
15673WAT      O47260   4.594   2.196   0.884
15673WAT     H147261   4.498   2.170   0.894
15673WAT     H247262   4.650   2.114   0.875
15674WAT      O47263   2.599  -0.001   7.997
15674WAT     H147264   2.675  -0.060   7.971
15674WAT     H247265   2.608   0.087   7.949
15675WAT      O47266   7.844   8.298   3.636
15675WAT     H147267   7.823   8.359   3.713
15675WAT     H247268   7.853   8.204   3.669
15676WAT      O47269   3.432   8.235   9.192
15676WAT     H147270   3.477   8.258   9.106
15676WAT     H247271   3.333   8.247   9.182
15677WAT      O47272   5.636   2.205   7.335
15677WAT     H147273   5.713   2.154   7.299
15677WAT     H247274   5.553   2.183   7.284
15678WAT      O47275   0.815   2.164   1.843
15678WAT     H147276   0.864   2.243   1.881
15678WAT     H247277   0.857   2.080   1.876
15679WAT      O47278   0.533   3.735   6.827
15679WAT     H147279   0.470   3.789   6.771
15679WAT     H247280   0.573   3.662   6.772
15680WAT      O47281   1.139   8.621   3.491
15680WAT     H147282   1.093   8.697   3.446
15680WAT     H247283   1.193   8.655   3.568
15681WAT      O47284   8.652   4.583   9.419
15681WAT     H147285   8.731   4.546   9.468
15681WAT     H247286   8.662   4.682   9.409
15682WAT      O47287   7.312   5.868   9.406
15682WAT     H147288   7.305   5.848   9.503
15682WAT     H247289   7.375   5.944   9.392
15683WAT      O47290   1.365   0.269   4.018
15683WAT     H147291   1.269   0.290   4.000
15683WAT     H247292   1.421   0.350   3.999
15684WAT      O47293   2.945   0.461   0.455
15684WAT     H147294   3.030   0.424   0.492
15684WAT     H247295   2.876   0.466   0.527
15685WAT      O47296   6.209   5.446   0.762
15685WAT     H147297   6.203   5.360   0.812
15685WAT     H247298   6.176   5.521   0.820
15686WAT      O47299   1.655   5.897   6.902
15686WAT     H147300   1.652   5.893   6.802
15686WAT     H247301   1.678   5.991   6.930
15687WAT      O47302   7.063   5.653   3.744
15687WAT     H147303   6.989   5.669   3.678
15687WAT     H247304   7.138   5.717   3.725
15688WAT      O47305   0.211   4.424   7.609
15688WAT     H147306   0.155   4.383   7.681
15688WAT     H247307   0.298   4.453   7.648
15689WAT      O47308   0.939   9.204   8.778
15689WAT     H147309   0.863   9.146   8.749
15689WAT     H247310   1.025   9.154   8.764
15690WAT      O47311   9.613   3.794   9.359
15690WAT     H147312   9.676   3.864   9.392
15690WAT     H247313   9.585   3.815   9.265
15691WAT      O47314   6.137   1.775   1.186
15691WAT     H147315   6.143   1.773   1.286
15691WAT     H247316   6.214   1.827   1.149
15692WAT      O47317   1.682   0.073   0.972
15692WAT     H147318   1.641   0.163   0.981
15692WAT     H247319   1.724   0.064   0.882
15693WAT      O47320   9.220   1.421   8.891
15693WAT     H147321   9.176   1.360   8.825
15693WAT     H247322   9.312   1.388   8.912
15694WAT      O47323   6.197   9.094   1.607
15694WAT     H147324   6.155   9.024   1.665
15694WAT     H247325   6.212   9.057   1.516
15695WAT      O47326   0.719   8.838   8.391
15695WAT     H147327   0.734   8.743   8.365
15695WAT     H247328   0.621   8.854   8.405
15696WAT      O47329   9.035   8.475   8.728
15696WAT     H147330   9.097   8.404   8.693
15696WAT     H247331   9.081   8.564   8.724
15697WAT      O47332   9.580   9.710   7.396
15697WAT     H147333   9.563   9.635   7.332
15697WAT     H247334   9.496   9.729   7.447
15698WAT      O47335   0.824   4.015   0.166
15698WAT     H147336   0.876   4.030   0.082
15698WAT     H247337   0.726   4.015   0.145
15699WAT      O47338   3.862   1.051   8.810
15699WAT     H147339   3.908   1.077   8.725
15699WAT     H247340   3.771   1.016   8.789
15700WAT      O47341   2.293   7.863   6.760
15700WAT     H147342   2.257   7.894   6.848
15700WAT     H247343   2.352   7.935   6.722
15701WAT      O47344   7.411   0.890   7.868
15701WAT     H147345   7.473   0.947   7.816
15701WAT     H247346   7.383   0.811   7.813
15702WAT      O47347   2.090   6.762   8.993
15702WAT     H147348   2.056   6.668   8.993
15702WAT     H247349   2.145   6.777   9.075
15703WAT      O47350   0.713   8.118   1.999
15703WAT     H147351   0.805   8.120   1.960
15703WAT     H247352   0.652   8.175   1.944
15704WAT      O47353   4.739   5.624   7.931
15704WAT     H147354   4.818   5.571   7.960
15704WAT     H247355   4.769   5.713   7.896
15705WAT      O47356   0.270   8.231   6.428
15705WAT     H147357   0.237   8.164   6.494
15705WAT     H247358   0.195   8.261   6.370
15706WAT      O47359   9.110   4.795   9.849
15706WAT     H147360   9.164   4.849   9.785
15706WAT     H247361   9.014   4.794   9.821
15707WAT      O47362   7.024   7.511   0.269
15707WAT     H147363   7.082   7.435   0.299
15707WAT     H247364   6.969   7.481   0.191
15708WAT      O47365   0.310   1.797   4.047
15708WAT     H147366   0.306   1.807   4.147
15708WAT     H247367   0.396   1.837   4.014
15709WAT      O47368   0.963   1.263   9.834
15709WAT     H147369   0.879   1.316   9.849
15709WAT     H247370   0.960   1.181   9.891
15710WAT      O47371   3.449   4.399   3.089
15710WAT     H147372   3.466   4.490   3.051
15710WAT     H247373   3.518   4.378   3.158
15711WAT      O47374   6.067   1.904   9.068
15711WAT     H147375   6.058   1.959   9.150
15711WAT     H247376   6.164   1.882   9.053
15712WAT      O47377   5.734   0.434   0.456
15712WAT     H147378   5.688   0.484   0.382
15712WAT     H247379   5.703   0.339   0.456
15713WAT      O47380   1.557   3.452   1.520
15713WAT     H147381   1.472   3.475   1.567
15713WAT     H247382   1.634   3.470   1.581
15714WAT      O47383   7.524   9.807   6.561
15714WAT     H147384   7.541   9.751   6.479
15714WAT     H247385   7.597   9.791   6.627
15715WAT      O47386   3.513   6.729   7.264
15715WAT     H147387   3.511   6.723   7.164
15715WAT     H247388   3.492   6.822   7.292
15716WAT      O47389   6.861   2.670   1.016
15716WAT     H147390   6.948   2.644   1.059
15716WAT     H247391   6.796   2.595   1.025
15717WAT      O47392   7.510   9.792   4.673
15717WAT     H147393   7.566   9.744   4.605
15717WAT     H247394   7.415   9.794   4.643
15718WAT      O47395   3.495   3.215   3.944
15718WAT     H147396   3.447   3.225   4.031
15718WAT     H247397   3.449   3.270   3.874
15719WAT      O47398   6.824   9.539   0.552
15719WAT     H147399   6.843   9.636   0.562
15719WAT     H247400   6.803   9.519   0.456
15720WAT      O47401   1.315   5.010   8.372
15720WAT     H147402   1.269   4.975   8.291
15720WAT     H247403   1.252   5.006   8.450
15721WAT      O47404   4.671   1.186   5.385
15721WAT     H147405   4.684   1.158   5.289
15721WAT     H247406   4.755   1.229   5.419
15722WAT      O47407   8.024   0.472   7.669
15722WAT     H147408   7.989   0.536   7.600
15722WAT     H247409   7.948   0.419   7.706
15723WAT      O47410   0.657   9.353   9.336
15723WAT     H147411   0.643   9.403   9.251
15723WAT     H247412   0.610   9.400   9.411
15724WAT      O47413   8.090   7.560   1.213
15724WAT     H147414   8.000   7.603   1.203
15724WAT     H247415   8.097   7.484   1.148
15725WAT      O47416   2.530   0.794   3.407
15725WAT     H147417   2.479   0.840   3.335
15725WAT     H247418   2.474   0.789   3.490
15726WAT      O47419   5.060   9.838   6.923
15726WAT     H147420   5.018   9.751   6.898
15726WAT     H247421   5.138   9.856   6.863
15727WAT      O47422   4.451   7.036   4.437
15727WAT     H147423   4.456   6.936   4.436
15727WAT     H247424   4.500   7.073   4.358
15728WAT      O47425   7.554   0.141   3.742
15728WAT     H147426   7.600   0.215   3.793
15728WAT     H247427   7.464   0.125   3.781
15729WAT      O47428   2.991   3.815   0.645
15729WAT     H147429   2.921   3.849   0.708
15729WAT     H247430   2.946   3.766   0.569
15730WAT      O47431   1.843   4.953   6.601
15730WAT     H147432   1.925   4.930   6.653
15730WAT     H247433   1.834   4.891   6.523
15731WAT      O47434   7.155   5.239   4.580
15731WAT     H147435   7.215   5.316   4.560
15731WAT     H247436   7.067   5.274   4.613
15732WAT      O47437   4.474   2.874   9.584
15732WAT     H147438   4.546   2.915   9.528
15732WAT     H247439   4.388   2.871   9.532
15733WAT      O47440   0.967   5.863   8.216
15733WAT     H147441   0.897   5.934   8.226
15733WAT     H247442   0.927   5.773   8.233
15734WAT      O47443   5.506   7.257   8.324
15734WAT     H147444   5.439   7.237   8.396
15734WAT     H247445   5.575   7.185   8.322
15735WAT      O47446   3.446   7.868   8.866
15735WAT     H147447   3.481   7.821   8.785
15735WAT     H247448   3.520   7.921   8.909
15736WAT      O47449   2.314   6.936   0.378
15736WAT     H147450   2.365   6.851   0.380
15736WAT     H247451   2.240   6.932   0.446
15737WAT      O47452   5.175   9.331   8.505
15737WAT     H147453   5.231   9.358   8.582
15737WAT     H247454   5.125   9.410   8.471
15738WAT      O47455   0.329   1.989   8.208
15738WAT     H147456   0.410   1.957   8.159
15738WAT     H247457   0.252   1.929   8.186
15739WAT      O47458   7.025   7.666   9.401
15739WAT     H147459   6.973   7.636   9.481
15739WAT     H247460   7.122   7.647   9.416
15740WAT      O47461   6.628   7.671   3.408
15740WAT     H147462   6.722   7.705   3.417
15740WAT     H247463   6.605   7.665   3.311
15741WAT      O47464   8.605   7.057   3.142
15741WAT     H147465   8.555   7.089   3.061
15741WAT     H247466   8.682   7.118   3.160
15742WAT      O47467   7.119   9.479   8.124
15742WAT     H147468   7.173   9.559   8.149
15742WAT     H247469   7.159   9.435   8.044
15743WAT      O47470   3.093   0.255   5.496
15743WAT     H147471   3.015   0.218   5.446
15743WAT     H247472   3.143   0.181   5.540
15744WAT      O47473   5.720   3.945   3.638
15744WAT     H147474   5.725   3.973   3.734
15744WAT     H247475   5.776   4.005   3.582
15745WAT      O47476   0.120   6.815   7.828
15745WAT     H147477   0.199   6.754   7.834
15745WAT     H247478   0.042   6.764   7.792
15746WAT      O47479   0.265   0.694   8.560
15746WAT     H147480   0.169   0.667   8.549
15746WAT     H247481   0.323   0.621   8.523
15747WAT      O47482   4.524   2.056   2.640
15747WAT     H147483   4.447   2.003   2.674
15747WAT     H247484   4.549   2.127   2.706
15748WAT      O47485   7.858   6.359   1.769
15748WAT     H147486   7.821   6.291   1.832
15748WAT     H247487   7.909   6.428   1.821
15749WAT      O47488   5.740   9.291   6.084
15749WAT     H147489   5.715   9.354   6.158
15749WAT     H247490   5.807   9.225   6.118
15750WAT      O47491   1.018   6.059   9.839
15750WAT     H147492   1.057   6.023   9.754
15750WAT     H247493   0.999   6.156   9.829
15751WAT      O47494   1.453   8.572   9.156
15751WAT     H147495   1.402   8.627   9.222
15751WAT     H247496   1.546   8.557   9.189
15752WAT      O47497   2.163   1.347   6.725
15752WAT     H147498   2.071   1.356   6.686
15752WAT     H247499   2.193   1.252   6.718
15753WAT      O47500   0.163   5.864   5.168
15753WAT     H147501   0.198   5.927   5.238
15753WAT     H247502   0.189   5.771   5.191
15754WAT      O47503   3.018   9.744   3.230
15754WAT     H147504   2.937   9.686   3.222
15754WAT     H247505   3.100   9.687   3.232
15755WAT      O47506   8.630   8.299   9.259
15755WAT     H147507   8.686   8.318   9.339
15755WAT     H247508   8.686   8.256   9.188
15756WAT      O47509   5.936   5.642   6.620
15756WAT     H147510   5.940   5.685   6.529
15756WAT     H247511   5.982   5.554   6.617
15757WAT      O47512   7.409   7.205   3.961
15757WAT     H147513   7.489   7.261   3.939
15757WAT     H247514   7.328   7.241   3.914
15758WAT      O47515   2.327   3.222   0.990
15758WAT     H147516   2.270   3.238   1.070
15758WAT     H247517   2.371   3.133   0.997
15759WAT      O47518   2.673   3.516   4.166
15759WAT     H147519   2.632   3.531   4.256
15759WAT     H247520   2.771   3.531   4.171
15760WAT      O47521   3.959   9.283   3.198
15760WAT     H147522   3.939   9.307   3.103
15760WAT     H247523   3.994   9.190   3.202
15761WAT      O47524   5.322   6.166   4.287
15761WAT     H147525   5.259   6.244   4.290
15761WAT     H247526   5.296   6.106   4.212
15762WAT      O47527   8.940   1.843   5.859
15762WAT     H147528   8.942   1.825   5.761
15762WAT     H247529   8.860   1.900   5.881
15763WAT      O47530   8.495   7.952   5.643
15763WAT     H147531   8.562   7.983   5.575
15763WAT     H247532   8.403   7.962   5.606
15764WAT      O47533   3.778   0.813   5.049
15764WAT     H147534   3.687   0.785   5.078
15764WAT     H247535   3.772   0.865   4.964
15765WAT      O47536   9.815   8.098   7.627
15765WAT     H147537   9.838   8.172   7.689
15765WAT     H247538   9.734   8.123   7.573
15766WAT      O47539   9.155   7.426   3.634
15766WAT     H147540   9.231   7.437   3.698
15766WAT     H247541   9.174   7.480   3.551
15767WAT      O47542   5.422   2.128   7.179
15767WAT     H147543   5.324   2.124   7.195
15767WAT     H247544   5.440   2.163   7.088
15768WAT      O47545   3.539   1.203   5.186
15768WAT     H147546   3.470   1.256   5.137
15768WAT     H247547   3.616   1.262   5.209
15769WAT      O47548   1.700   8.687   2.360
15769WAT     H147549   1.623   8.749   2.344
15769WAT     H247550   1.752   8.718   2.440
15770WAT      O47551   3.955   8.213   8.448
15770WAT     H147552   3.972   8.253   8.358
15770WAT     H247553   4.021   8.140   8.466
15771WAT      O47554   2.761   4.206   7.274
15771WAT     H147555   2.774   4.109   7.254
15771WAT     H247556   2.665   4.222   7.299
15772WAT      O47557   0.637   2.631   5.732
15772WAT     H147558   0.705   2.690   5.689
15772WAT     H247559   0.642   2.640   5.831
15773WAT      O47560   2.991   4.461   7.462
15773WAT     H147561   2.919   4.459   7.392
15773WAT     H247562   3.015   4.556   7.482
15774WAT      O47563   1.996   6.878   4.191
15774WAT     H147564   2.037   6.819   4.121
15774WAT     H247565   2.068   6.915   4.249
15775WAT      O47566   3.279   2.491   0.019
15775WAT     H147567   3.287   2.590   0.011
15775WAT     H247568   3.186   2.463  -0.003
15776WAT      O47569   0.869   9.187   5.466
15776WAT     H147570   0.869   9.230   5.556
15776WAT     H247571   0.781   9.204   5.421
15777WAT      O47572   7.683   1.192   3.848
15777WAT     H147573   7.611   1.136   3.808
15777WAT     H247574   7.739   1.232   3.776
15778WAT      O47575   1.535   2.228   0.238
15778WAT     H147576   1.564   2.185   0.153
15778WAT     H247577   1.495   2.159   0.299
15779WAT      O47578   5.892   0.955   8.340
15779WAT     H147579   5.946   0.955   8.425
15779WAT     H247580   5.952   0.934   8.263
15780WAT      O47581   4.082   4.017   4.492
15780WAT     H147582   4.166   4.070   4.481
15780WAT     H247583   4.074   3.950   4.418
15781WAT      O47584   2.963   0.801   9.564
15781WAT     H147585   3.046   0.768   9.608
15781WAT     H247586   2.948   0.752   9.478
15782WAT      O47587   0.828   9.576   9.177
15782WAT     H147588   0.868   9.510   9.113
15782WAT     H247589   0.877   9.571   9.264
15783WAT      O47590   6.596   4.961   2.421
15783WAT     H147591   6.499   4.983   2.416
15783WAT     H247592   6.610   4.866   2.393
15784WAT      O47593   7.076   4.715   9.854
15784WAT     H147594   7.036   4.631   9.891
15784WAT     H247595   7.161   4.735   9.903
15785WAT      O47596   2.576   4.889   2.084
15785WAT     H147597   2.653   4.855   2.029
15785WAT     H247598   2.519   4.813   2.112
15786WAT      O47599   1.172   0.909   1.963
15786WAT     H147600   1.242   0.923   1.892
15786WAT     H247601   1.127   0.821   1.948
15787WAT      O47602   7.115   4.611   5.864
15787WAT     H147603   7.119   4.531   5.804
15787WAT     H247604   7.095   4.582   5.957
15788WAT      O47605   8.291   7.485   8.764
15788WAT     H147606   8.307   7.497   8.666
15788WAT     H247607   8.377   7.461   8.809
15789WAT      O47608   6.679   7.849   1.495
15789WAT     H147609   6.700   7.898   1.411
15789WAT     H247610   6.736   7.767   1.500
15790WAT      O47611   8.032   9.517   0.908
15790WAT     H147612   8.066   9.611   0.917
15790WAT     H247613   7.935   9.519   0.886
15791WAT      O47614   9.408   7.284   2.386
15791WAT     H147615   9.453   7.325   2.466
15791WAT     H247616   9.361   7.201   2.414
15792WAT      O47617   0.250   6.169   6.436
15792WAT     H147618   0.339   6.196   6.475
15792WAT     H247619   0.262   6.144   6.340
15793WAT      O47620   1.310   1.885   2.233
15793WAT     H147621   1.276   1.797   2.268
15793WAT     H247622   1.384   1.868   2.168
15794WAT      O47623   8.570   4.389   0.152
15794WAT     H147624   8.479   4.351   0.163
15794WAT     H247625   8.633   4.344   0.216
15795WAT      O47626   6.464   6.734   3.938
15795WAT     H147627   6.539   6.669   3.949
15795WAT     H247628   6.499   6.817   3.895
15796WAT      O47629   0.905   3.301   6.621
15796WAT     H147630   0.889   3.274   6.716
15796WAT     H247631   0.973   3.241   6.579
15797WAT      O47632   6.652   0.135   3.312
15797WAT     H147633   6.607   0.180   3.234
15797WAT     H247634   6.748   0.120   3.290
15798WAT      O47635   1.174   1.052   6.209
15798WAT     H147636   1.095   1.025   6.154
15798WAT     H247637   1.227   0.971   6.234
15799WAT      O47638   7.144   3.811   3.318
15799WAT     H147639   7.142   3.900   3.362
15799WAT     H247640   7.182   3.743   3.382
15800WAT      O47641   7.680   5.680   8.734
15800WAT     H147642   7.682   5.699   8.636
15800WAT     H247643   7.586   5.683   8.767
15801WAT      O47644   1.108   0.118   2.707
15801WAT     H147645   1.060   0.103   2.620
15801WAT     H247646   1.086   0.044   2.770
15802WAT      O47647   8.238   0.874   5.073
15802WAT     H147648   8.191   0.786   5.083
15802WAT     H247649   8.170   0.948   5.072
15803WAT      O47650   6.259   4.451   9.220
15803WAT     H147651   6.199   4.531   9.227
15803WAT     H247652   6.244   4.392   9.299
15804WAT      O47653   4.499   3.390   7.016
15804WAT     H147654   4.549   3.304   7.010
15804WAT     H247655   4.552   3.463   6.972
15805WAT      O47656   3.904   2.032   0.562
15805WAT     H147657   3.935   1.938   0.578
15805WAT     H247658   3.924   2.058   0.467
15806WAT      O47659   3.485   4.939   4.401
15806WAT     H147660   3.582   4.940   4.376
15806WAT     H247661   3.463   5.024   4.450
15807WAT      O47662   0.674   2.164   6.723
15807WAT     H147663   0.735   2.162   6.643
15807WAT     H247664   0.579   2.165   6.693
15808WAT      O47665   2.637   8.901   7.843
15808WAT     H147666   2.640   8.821   7.904
15808WAT     H247667   2.565   8.887   7.774
15809WAT      O47668   0.776   3.024   3.063
15809WAT     H147669   0.867   3.006   3.028
15809WAT     H247670   0.712   2.957   3.025
15810WAT      O47671   6.760   3.817   0.095
15810WAT     H147672   6.755   3.739   0.158
15810WAT     H247673   6.799   3.787   0.008
15811WAT      O47674   6.123   8.631   4.637
15811WAT     H147675   6.026   8.654   4.635
15811WAT     H247676   6.169   8.673   4.559
15812WAT      O47677   3.064   0.510   7.277
15812WAT     H147678   3.090   0.534   7.184
15812WAT     H247679   3.141   0.526   7.338
15813WAT      O47680   1.620   3.409   0.379
15813WAT     H147681   1.717   3.430   0.375
15813WAT     H247682   1.573   3.481   0.431
15814WAT      O47683   9.596   6.328   7.894
15814WAT     H147684   9.630   6.336   7.988
15814WAT     H247685   9.518   6.389   7.882
15815WAT      O47686   5.074   7.025   7.181
15815WAT     H147687   5.111   6.935   7.204
15815WAT     H247688   5.063   7.079   7.264
15816WAT      O47689   6.799   5.680   8.350
15816WAT     H147690   6.870   5.626   8.394
15816WAT     H247691   6.724   5.696   8.415
15817WAT      O47692   1.770   4.790   4.020
15817WAT     H147693   1.857   4.788   4.070
15817WAT     H247694   1.724   4.877   4.037
15818WAT      O47695   3.066   4.633   0.088
15818WAT     H147696   2.993   4.566   0.078
15818WAT     H247697   3.118   4.614   0.170
15819WAT      O47698   5.059   1.147   6.609
15819WAT     H147699   5.103   1.064   6.575
15819WAT     H247700   5.123   1.224   6.601
15820WAT      O47701   2.692   5.787   7.411
15820WAT     H147702   2.752   5.723   7.458
15820WAT     H247703   2.599   5.776   7.445
15821WAT      O47704   7.837   3.561   4.110
15821WAT     H147705   7.873   3.591   4.021
15821WAT     H247706   7.880   3.475   4.135
15822WAT      O47707   3.490   7.276   2.972
15822WAT     H147708   3.448   7.309   3.057
15822WAT     H247709   3.552   7.201   2.992
15823WAT      O47710   7.528   0.067   1.551
15823WAT     H147711   7.432   0.050   1.572
15823WAT     H247712   7.573  -0.018   1.524
15824WAT      O47713   0.550   5.071   8.520
15824WAT     H147714   0.535   5.000   8.589
15824WAT     H247715   0.519   5.159   8.556
15825WAT      O47716   2.388   6.267   5.749
15825WAT     H147717   2.327   6.324   5.695
15825WAT     H247718   2.448   6.214   5.688
15826WAT      O47719   1.967   1.987   2.954
15826WAT     H147720   1.929   2.064   3.006
15826WAT     H247721   1.944   1.902   3.000
15827WAT      O47722   3.980   1.996   1.848
15827WAT     H147723   3.900   2.030   1.896
15827WAT     H247724   4.049   2.069   1.841
15828WAT      O47725   9.418   9.067   8.108
15828WAT     H147726   9.424   9.153   8.058
15828WAT     H247727   9.420   8.990   8.044
15829WAT      O47728   1.811   0.241   3.308
15829WAT     H147729   1.859   0.297   3.376
15829WAT     H247730   1.873   0.171   3.272
15830WAT      O47731   4.417   6.287   1.207
15830WAT     H147732   4.336   6.234   1.180
15830WAT     H247733   4.399   6.333   1.294
15831WAT      O47734   0.242   5.969   1.897
15831WAT     H147735   0.148   5.952   1.867
15831WAT     H247736   0.293   5.883   1.897
15832WAT      O47737   9.071   5.474   5.876
15832WAT     H147738   8.995   5.492   5.938
15832WAT     H247739   9.037   5.469   5.782
15833WAT      O47740   8.433   3.348   3.839
15833WAT     H147741   8.426   3.249   3.825
15833WAT     H247742   8.389   3.372   3.926
15834WAT      O47743   6.367   6.481   5.532
15834WAT     H147744   6.280   6.514   5.571
15834WAT     H247745   6.369   6.501   5.434
15835WAT      O47746   0.980   3.673   4.050
15835WAT     H147747   0.918   3.674   3.971
15835WAT     H247748   1.071   3.644   4.021
15836WAT      O47749   4.044   3.834   8.058
15836WAT     H147750   4.050   3.902   8.131
15836WAT     H247751   3.983   3.867   7.986
15837WAT      O47752   0.283   7.585   2.573
15837WAT     H147753   0.324   7.649   2.638
15837WAT     H247754   0.263   7.632   2.487
15838WAT      O47755   2.372   8.969   7.205
15838WAT     H147756   2.321   8.911   7.141
15838WAT     H247757   2.463   8.930   7.220
15839WAT      O47758   7.082   4.215   4.631
15839WAT     H147759   7.137   4.270   4.694
15839WAT     H247760   7.035   4.276   4.567
15840WAT      O47761   9.357   8.515   8.569
15840WAT     H147762   9.429   8.509   8.637
15840WAT     H247763   9.388   8.475   8.482
15841WAT      O47764   5.967   3.065   9.094
15841WAT     H147765   6.044   3.102   9.042
15841WAT     H247766   6.000   2.999   9.161
15842WAT      O47767   0.761   7.758   4.316
15842WAT     H147768   0.666   7.746   4.345
15842WAT     H247769   0.768   7.837   4.254
15843WAT      O47770   4.224   1.268   8.896
15843WAT     H147771   4.227   1.219   8.808
15843WAT     H247772   4.170   1.215   8.961
15844WAT      O47773   8.930   2.092   3.823
15844WAT     H147774   8.968   2.038   3.899
15844WAT     H247775   8.922   2.187   3.851
15845WAT      O47776   4.190   0.182   7.790
15845WAT     H147777   4.167   0.140   7.878
15845WAT     H247778   4.277   0.146   7.758
15846WAT      O47779   6.058   1.167   4.375
15846WAT     H147780   6.157   1.184   4.374
15846WAT     H247781   6.028   1.141   4.283
15847WAT      O47782   5.711   4.725   1.774
15847WAT     H147783   5.807   4.701   1.760
15847WAT     H247784   5.705   4.802   1.838
15848WAT      O47785   5.986   4.620   9.873
15848WAT     H147786   5.930   4.696   9.906
15848WAT     H247787   6.051   4.593   9.944
15849WAT      O47788   6.872   4.990   7.125
15849WAT     H147789   6.851   5.066   7.064
15849WAT     H247790   6.967   4.997   7.156
15850WAT      O47791   2.053   9.741   2.105
15850WAT     H147792   2.044   9.700   2.196
15850WAT     H247793   2.149   9.743   2.079
15851WAT      O47794   5.171   2.297   6.775
15851WAT     H147795   5.261   2.295   6.818
15851WAT     H247796   5.100   2.284   6.845
15852WAT      O47797   9.257   9.155   5.079
15852WAT     H147798   9.329   9.148   5.009
15852WAT     H247799   9.281   9.228   5.144
15853WAT      O47800   8.618   5.692   5.322
15853WAT     H147801   8.566   5.608   5.308
15853WAT     H247802   8.595   5.731   5.411
15854WAT      O47803   8.155   2.733   8.485
15854WAT     H147804   8.160   2.635   8.464
15854WAT     H247805   8.247   2.768   8.501
15855WAT      O47806   8.729   3.699   5.656
15855WAT     H147807   8.828   3.704   5.668
15855WAT     H247808   8.707   3.701   5.559
15856WAT      O47809   7.011   3.947   7.993
15856WAT     H147810   6.978   3.998   7.914
15856WAT     H247811   6.943   3.877   8.018
15857WAT      O47812   6.315   7.756   8.951
15857WAT     H147813   6.311   7.765   9.050
15857WAT     H247814   6.374   7.679   8.927
15858WAT      O47815   9.249   7.085   4.932
15858WAT     H147816   9.186   7.066   4.857
15858WAT     H247817   9.201   7.136   5.003
15859WAT      O47818   5.065   7.169   7.385
15859WAT     H147819   5.050   7.268   7.392
15859WAT     H247820   5.096   7.134   7.473
15860WAT      O47821   6.612   7.798   6.535
15860WAT     H147822   6.691   7.737   6.525
15860WAT     H247823   6.593   7.813   6.632
15861WAT      O47824   7.263   3.385   8.684
15861WAT     H147825   7.331   3.328   8.638
15861WAT     H247826   7.298   3.478   8.692
15862WAT      O47827   5.617   0.759   7.151
15862WAT     H147828   5.666   0.714   7.225
15862WAT     H247829   5.518   0.749   7.165
15863WAT      O47830   3.846   4.907   2.972
15863WAT     H147831   3.765   4.957   2.999
15863WAT     H247832   3.841   4.886   2.874
15864WAT      O47833   2.213   2.926   0.136
15864WAT     H147834   2.231   3.016   0.097
15864WAT     H247835   2.164   2.870   0.069
15865WAT      O47836   9.172   2.047   8.991
15865WAT     H147837   9.148   2.135   9.032
15865WAT     H247838   9.158   1.974   9.058
15866WAT      O47839   2.763   8.578   6.129
15866WAT     H147840   2.700   8.595   6.054
15866WAT     H247841   2.794   8.483   6.126
15867WAT      O47842   2.758   2.144   3.248
15867WAT     H147843   2.672   2.175   3.289
15867WAT     H247844   2.826   2.217   3.253
15868WAT      O47845   2.426   0.121   5.876
15868WAT     H147846   2.390   0.067   5.952
15868WAT     H247847   2.493   0.187   5.911
15869WAT      O47848   4.350   3.937   7.114
15869WAT     H147849   4.337   3.847   7.155
15869WAT     H247850   4.433   3.979   7.151
15870WAT      O47851   8.263   3.113   7.187
15870WAT     H147852   8.303   3.118   7.279
15870WAT     H247853   8.324   3.159   7.122
15871WAT      O47854   6.326   4.656   8.899
15871WAT     H147855   6.332   4.685   8.803
15871WAT     H247856   6.303   4.735   8.955
15872WAT      O47857   8.880   7.209   7.132
15872WAT     H147858   8.971   7.208   7.091
15872WAT     H247859   8.888   7.219   7.231
15873WAT      O47860   5.555   1.423   6.197
15873WAT     H147861   5.481   1.488   6.179
15873WAT     H247862   5.583   1.380   6.111
15874WAT      O47863   3.460   6.780   1.892
15874WAT     H147864   3.538   6.727   1.922
15874WAT     H247865   3.418   6.825   1.971
15875WAT      O47866   3.637   2.602   8.141
15875WAT     H147867   3.631   2.562   8.232
15875WAT     H247868   3.712   2.559   8.091
15876WAT      O47869   4.376   9.193   6.271
15876WAT     H147870   4.281   9.210   6.245
15876WAT     H247871   4.382   9.107   6.321
15877WAT      O47872   9.300   5.464   0.075
15877WAT     H147873   9.272   5.378   0.032
15877WAT     H247874   9.302   5.537   0.007
15878WAT      O47875   0.350   0.695   4.727
15878WAT     H147876   0.409   0.621   4.758
15878WAT     H247877   0.377   0.780   4.771
15879WAT      O47878   9.556   9.167   1.242
15879WAT     H147879   9.520   9.148   1.150
15879WAT     H247880   9.656   9.174   1.238
15880WAT      O47881   6.120   0.661   2.584
15880WAT     H147882   6.095   0.756   2.566
15880WAT     H247883   6.144   0.651   2.681
15881WAT      O47884   0.517   6.141   3.850
15881WAT     H147885   0.510   6.241   3.858
15881WAT     H247886   0.516   6.100   3.942
15882WAT      O47887   0.993   0.132   3.053
15882WAT     H147888   1.089   0.155   3.035
15882WAT     H247889   0.988   0.073   3.134
15883WAT      O47890   1.706   3.795   1.813
15883WAT     H147891   1.632   3.730   1.826
15883WAT     H247892   1.724   3.844   1.899
15884WAT      O47893   9.780   4.602   9.497
15884WAT     H147894   9.823   4.674   9.552
15884WAT     H247895   9.835   4.585   9.415
15885WAT      O47896   1.639   9.029   2.198
15885WAT     H147897   1.589   9.091   2.258
15885WAT     H247898   1.651   9.072   2.108
15886WAT      O47899   5.867   8.285   9.562
15886WAT     H147900   5.963   8.257   9.553
15886WAT     H247901   5.808   8.205   9.554
15887WAT      O47902   7.213   4.246   9.627
15887WAT     H147903   7.271   4.270   9.705
15887WAT     H247904   7.117   4.253   9.653
15888WAT      O47905   6.114   5.750   5.947
15888WAT     H147906   6.159   5.720   5.863
15888WAT     H247907   6.016   5.757   5.932
15889WAT      O47908   9.539   5.802   3.208
15889WAT     H147909   9.482   5.731   3.168
15889WAT     H247910   9.616   5.760   3.256
15890WAT      O47911   2.326   0.444   2.330
15890WAT     H147912   2.421   0.419   2.341
15890WAT     H247913   2.293   0.414   2.240
15891WAT      O47914   6.015   3.835   7.873
15891WAT     H147915   5.936   3.775   7.883
15891WAT     H247916   6.057   3.850   7.963
15892WAT      O47917   0.914   8.563   7.710
15892WAT     H147918   0.916   8.558   7.809
15892WAT     H247919   0.960   8.647   7.680
15893WAT      O47920   4.584   8.836   3.480
15893WAT     H147921   4.586   8.792   3.570
15893WAT     H247922   4.533   8.779   3.416
15894WAT      O47923   0.362   7.011   7.083
15894WAT     H147924   0.276   7.062   7.087
15894WAT     H247925   0.370   6.954   7.165
15895WAT      O47926   4.673   2.365   7.942
15895WAT     H147927   4.602   2.309   7.901
15895WAT     H247928   4.735   2.308   7.995
15896WAT      O47929   5.035   4.168   1.342
15896WAT     H147930   5.094   4.088   1.336
15896WAT     H247931   5.090   4.250   1.357
15897WAT      O47932   3.382   7.000   6.740
15897WAT     H147933   3.295   7.024   6.783
15897WAT     H247934   3.389   6.901   6.731
15898WAT      O47935   9.301   1.028   7.069
15898WAT     H147936   9.270   1.078   7.149
15898WAT     H247937   9.288   0.929   7.083
15899WAT      O47938   4.363   8.696   7.546
15899WAT     H147939   4.306   8.778   7.542
15899WAT     H247940   4.369   8.664   7.641
15900WAT      O47941   8.358   0.897   0.907
15900WAT     H147942   8.448   0.862   0.880
15900WAT     H247943   8.293   0.882   0.833
15901WAT      O47944   3.470   0.818   4.707
15901WAT     H147945   3.476   0.875   4.789
15901WAT     H247946   3.562   0.797   4.673
15902WAT      O47947   2.895   4.715   6.046
15902WAT     H147948   2.910   4.787   5.978
15902WAT     H247949   2.823   4.654   6.013
15903WAT      O47950   3.004   4.964   3.389
15903WAT     H147951   3.042   4.878   3.355
15903WAT     H247952   3.024   4.973   3.487
15904WAT      O47953   1.330   5.933   4.016
15904WAT     H147954   1.425   5.915   3.993
15904WAT     H247955   1.318   5.926   4.115
15905WAT      O47956   1.906   6.874   2.953
15905WAT     H147957   1.842   6.820   3.008
15905WAT     H247958   1.956   6.812   2.891
15906WAT      O47959   5.748   3.768   1.558
15906WAT     H147960   5.648   3.756   1.558
15906WAT     H247961   5.771   3.863   1.577
15907WAT      O47962   0.040   1.988   0.430
15907WAT     H147963   0.131   1.947   0.441
15907WAT     H247964   0.014   1.987   0.333
15908WAT      O47965   5.039   3.531   8.954
15908WAT     H147966   5.023   3.432   8.957
15908WAT     H247967   5.026   3.570   9.045
15909WAT      O47968   7.663   8.825   4.482
15909WAT     H147969   7.700   8.757   4.547
15909WAT     H247970   7.737   8.864   4.429
15910WAT      O47971   4.611   9.389   1.889
15910WAT     H147972   4.614   9.291   1.868
15910WAT     H247973   4.682   9.411   1.956
15911WAT      O47974   7.585   1.917   4.140
15911WAT     H147975   7.528   1.835   4.134
15911WAT     H247976   7.527   1.998   4.135
15912WAT      O47977   7.889   9.164   2.883
15912WAT     H147978   7.944   9.219   2.820
15912WAT     H247979   7.896   9.201   2.975
15913WAT      O47980   2.215   4.113   8.163
15913WAT     H147981   2.147   4.101   8.236
15913WAT     H247982   2.180   4.074   8.078
15914WAT      O47983   6.979   2.182   4.184
15914WAT     H147984   6.994   2.256   4.249
15914WAT     H247985   7.047   2.110   4.199
15915WAT      O47986   5.498   7.776   8.812
15915WAT     H147987   5.404   7.744   8.828
15915WAT     H247988   5.547   7.779   8.899
15916WAT      O47989   3.829   0.544   6.780
15916WAT     H147990   3.855   0.631   6.738
15916WAT     H247991   3.878   0.533   6.867
15917WAT      O47992   2.831   7.738   1.770
15917WAT     H147993   2.862   7.716   1.862
15917WAT     H247994   2.820   7.653   1.718
15918WAT      O47995   9.635   1.616   4.223
15918WAT     H147996   9.708   1.615   4.292
15918WAT     H247997   9.551   1.653   4.263
15919WAT      O47998   4.301   2.602   6.553
15919WAT     H147999   4.221   2.658   6.572
15919WAT     H248000   4.273   2.515   6.512
15920WAT      O48001   2.079   6.080   8.096
15920WAT     H148002   2.053   6.000   8.043
15920WAT     H248003   2.009   6.151   8.086
15921WAT      O48004   8.898   6.796   5.267
15921WAT     H148005   8.869   6.821   5.360
15921WAT     H248006   8.827   6.740   5.224
15922WAT      O48007   3.959   9.063   8.277
15922WAT     H148008   4.059   9.054   8.283
15922WAT     H248009   3.927   9.126   8.348
15923WAT      O48010   4.916   3.398   9.391
15923WAT     H148011   4.879   3.469   9.331
15923WAT     H248012   4.857   3.387   9.471
15924WAT      O48013   2.074   1.493   6.935
15924WAT     H148014   1.975   1.487   6.925
15924WAT     H248015   2.118   1.437   6.866
15925WAT      O48016   9.442   5.004   6.050
15925WAT     H148017   9.506   5.040   6.119
15925WAT     H248018   9.351   5.041   6.068
15926WAT      O48019   2.861   8.303   6.046
15926WAT     H148020   2.879   8.374   5.978
15926WAT     H248021   2.863   8.213   6.003
15927WAT      O48022   9.319   4.486   6.222
15927WAT     H148023   9.235   4.439   6.249
15927WAT     H248024   9.321   4.497   6.123
15928WAT      O48025   9.151   6.897   9.854
15928WAT     H148026   9.237   6.894   9.801
15928WAT     H248027   9.076   6.924   9.793
15929WAT      O48028   5.620   4.257   2.165
15929WAT     H148029   5.679   4.184   2.201
15929WAT     H248030   5.539   4.267   2.224
15930WAT      O48031   6.399   2.721   0.415
15930WAT     H148032   6.492   2.751   0.438
15930WAT     H248033   6.400   2.622   0.401
15931WAT      O48034   7.916   8.762   2.087
15931WAT     H148035   7.991   8.778   2.151
15931WAT     H248036   7.888   8.666   2.093
15932WAT      O48037   9.416   3.877   2.094
15932WAT     H148038   9.320   3.858   2.118
15932WAT     H248039   9.420   3.919   2.004
15933WAT      O48040   3.578   1.382   2.578
15933WAT     H148041   3.639   1.393   2.656
15933WAT     H248042   3.616   1.315   2.515
15934WAT      O48043   0.412   2.971   1.318
15934WAT     H148044   0.384   2.908   1.391
15934WAT     H248045   0.399   3.065   1.349
15935WAT      O48046   4.940   6.639   9.828
15935WAT     H148047   4.899   6.730   9.830
15935WAT     H248048   4.883   6.577   9.774
15936WAT      O48049   3.369   3.906   7.938
15936WAT     H148050   3.462   3.940   7.951
15936WAT     H248051   3.319   3.966   7.875
15937WAT      O48052   4.004   2.804   3.985
15937WAT     H148053   4.052   2.892   3.986
15937WAT     H248054   3.905   2.820   3.983
15938WAT      O48055   5.271   8.801   4.362
15938WAT     H148056   5.271   8.712   4.407
15938WAT     H248057   5.229   8.793   4.272
15939WAT      O48058   9.682   6.795   2.400
15939WAT     H148059   9.748   6.722   2.383
15939WAT     H248060   9.677   6.854   2.320
15940WAT      O48061   3.036   7.169   6.161
15940WAT     H148062   3.055   7.219   6.245
15940WAT     H248063   3.014   7.074   6.182
15941WAT      O48064   0.168   0.313   7.587
15941WAT     H148065   0.215   0.238   7.542
15941WAT     H248066   0.072   0.290   7.600
15942WAT      O48067   7.831   4.921   0.437
15942WAT     H148068   7.850   5.016   0.411
15942WAT     H248069   7.738   4.897   0.409
15943WAT      O48070   8.889   2.571   0.268
15943WAT     H148071   8.952   2.573   0.346
15943WAT     H248072   8.919   2.638   0.200
15944WAT      O48073   4.120   0.620   9.456
15944WAT     H148074   4.187   0.621   9.383
15944WAT     H248075   4.030   0.595   9.419
15945WAT      O48076   4.838   7.722   7.682
15945WAT     H148077   4.765   7.744   7.747
15945WAT     H248078   4.916   7.784   7.698
15946WAT      O48079   3.383   7.007   1.749
15946WAT     H148080   3.421   7.078   1.809
15946WAT     H248081   3.407   6.917   1.785
15947WAT      O48082   8.141   3.265   3.638
15947WAT     H148083   8.111   3.338   3.699
15947WAT     H248084   8.146   3.179   3.688
15948WAT      O48085   0.755   2.152   7.497
15948WAT     H148086   0.826   2.203   7.546
15948WAT     H248087   0.672   2.149   7.552
15949WAT      O48088   7.698   7.909   5.071
15949WAT     H148089   7.716   7.894   4.974
15949WAT     H248090   7.633   7.841   5.105
15950WAT      O48091   3.253   6.396   5.477
15950WAT     H148092   3.312   6.317   5.466
15950WAT     H248093   3.304   6.480   5.456
15951WAT      O48094   1.661   0.808   0.107
15951WAT     H148095   1.649   0.738   0.037
15951WAT     H248096   1.720   0.881   0.072
15952WAT      O48097   1.486   5.481   9.820
15952WAT     H148098   1.476   5.404   9.757
15952WAT     H248099   1.463   5.566   9.772
15953WAT      O48100   0.491   9.813   8.263
15953WAT     H148101   0.415   9.877   8.251
15953WAT     H248102   0.508   9.800   8.361
15954WAT      O48103   0.057   3.547   0.158
15954WAT     H148104   0.015   3.457   0.168
15954WAT     H248105   0.113   3.566   0.238
15955WAT      O48106   8.192   1.970   1.369
15955WAT     H148107   8.252   1.967   1.448
15955WAT     H248108   8.114   1.908   1.384
15956WAT      O48109   8.550   2.024   6.426
15956WAT     H148110   8.491   1.964   6.372
15956WAT     H248111   8.614   2.072   6.366
15957WAT      O48112   7.927   1.312   7.188
15957WAT     H148113   8.027   1.322   7.184
15957WAT     H248114   7.891   1.303   7.095
15958WAT      O48115   8.098   1.328   6.744
15958WAT     H148116   8.072   1.270   6.667
15958WAT     H248117   8.137   1.273   6.816
15959WAT      O48118   0.485   0.257   3.510
15959WAT     H148119   0.434   0.221   3.432
15959WAT     H248120   0.564   0.309   3.477
15960WAT      O48121   1.584   7.643   5.544
15960WAT     H148122   1.487   7.626   5.555
15960WAT     H248123   1.624   7.670   5.632
15961WAT      O48124   4.281   3.026   4.157
15961WAT     H148125   4.358   2.965   4.136
15961WAT     H248126   4.255   3.076   4.074
15962WAT      O48127   8.617   9.475   0.335
15962WAT     H148128   8.577   9.506   0.421
15962WAT     H248129   8.669   9.550   0.294
15963WAT      O48130   1.135   3.811   9.877
15963WAT     H148131   1.228   3.847   9.874
15963WAT     H248132   1.071   3.888   9.888
15964WAT      O48133   9.569   6.947   5.486
15964WAT     H148134   9.626   6.909   5.413
15964WAT     H248135   9.492   6.995   5.446
15965WAT      O48136   7.524   0.733   3.955
15965WAT     H148137   7.619   0.755   3.977
15965WAT     H248138   7.506   0.754   3.859
15966WAT      O48139   0.176   7.436   9.448
15966WAT     H148140   0.201   7.429   9.352
15966WAT     H248141   0.238   7.381   9.503
15967WAT      O48142   3.535   3.877   5.756
15967WAT     H148143   3.468   3.924   5.813
15967WAT     H248144   3.520   3.899   5.660
15968WAT      O48145   8.700   3.445   3.161
15968WAT     H148146   8.615   3.493   3.181
15968WAT     H248147   8.682   3.368   3.100
15969WAT      O48148   9.031   3.123   3.553
15969WAT     H148149   8.959   3.188   3.577
15969WAT     H248150   9.024   3.100   3.456
15970WAT      O48151   8.089   6.232   6.970
15970WAT     H148152   8.098   6.293   6.891
15970WAT     H248153   8.111   6.139   6.942
15971WAT      O48154   9.484   1.416   3.241
15971WAT     H148155   9.409   1.355   3.212
15971WAT     H248156   9.448   1.508   3.256
15972WAT      O48157   1.357   5.609   8.773
15972WAT     H148158   1.304   5.650   8.847
15972WAT     H248159   1.371   5.512   8.791
15973WAT      O48160   6.134   7.234   6.252
15973WAT     H148161   6.060   7.180   6.212
15973WAT     H248162   6.106   7.329   6.259
15974WAT      O48163   0.526   0.784   1.935
15974WAT     H148164   0.515   0.788   1.835
15974WAT     H248165   0.597   0.849   1.963
15975WAT      O48166   6.459   2.516   1.342
15975WAT     H148167   6.416   2.428   1.326
15975WAT     H248168   6.390   2.581   1.375
15976WAT      O48169   2.102   7.668   2.052
15976WAT     H148170   2.042   7.605   2.102
15976WAT     H248171   2.103   7.756   2.099
15977WAT      O48172   8.723   1.121   8.140
15977WAT     H148173   8.819   1.145   8.151
15977WAT     H248174   8.666   1.202   8.153
15978WAT      O48175   9.378   8.915   0.067
15978WAT     H148176   9.293   8.873   0.035
15978WAT     H248177   9.454   8.883   0.010
15979WAT      O48178   1.886   0.829   7.374
15979WAT     H148179   1.980   0.862   7.383
15979WAT     H248180   1.877   0.774   7.291
15980WAT      O48181   9.603   2.113   5.409
15980WAT     H148182   9.642   2.058   5.336
15980WAT     H248183   9.676   2.147   5.469
15981WAT      O48184   8.461   4.706   0.423
15981WAT     H148185   8.407   4.774   0.373
15981WAT     H248186   8.408   4.622   0.434
15982WAT      O48187   4.628   6.564   4.428
15982WAT     H148188   4.635   6.499   4.504
15982WAT     H248189   4.576   6.644   4.457
15983WAT      O48190   6.344   1.281   4.104
15983WAT     H148191   6.431   1.329   4.094
15983WAT     H248192   6.326   1.228   4.021
15984WAT      O48193   5.605   1.300   1.208
15984WAT     H148194   5.661   1.217   1.212
15984WAT     H248195   5.593   1.328   1.113
15985WAT      O48196   3.999   4.416   2.304
15985WAT     H148197   3.906   4.449   2.285
15985WAT     H248198   4.015   4.416   2.402
15986WAT      O48199   4.116   7.697   7.484
15986WAT     H148200   4.047   7.636   7.447
15986WAT     H248201   4.080   7.790   7.487
15987WAT      O48202   3.551   6.757   9.002
15987WAT     H148203   3.588   6.664   8.998
15987WAT     H248204   3.520   6.785   8.910
15988WAT      O48205   3.216   5.302   7.317
15988WAT     H148206   3.182   5.224   7.266
15988WAT     H248207   3.262   5.366   7.255
15989WAT      O48208   7.496   1.615   9.828
15989WAT     H148209   7.578   1.577   9.871
15989WAT     H248210   7.476   1.566   9.744
15990WAT      O48211   6.925   3.591   2.325
15990WAT     H148212   7.021   3.613   2.342
15990WAT     H248213   6.916   3.553   2.233
15991WAT      O48214   1.057   2.655   0.042
15991WAT     H148215   1.032   2.593   0.117
15991WAT     H248216   0.976   2.673  -0.014
15992WAT      O48217   2.244   8.609   1.855
15992WAT     H148218   2.216   8.660   1.937
15992WAT     H248219   2.163   8.568   1.813
15993WAT      O48220   6.589   6.440   9.614
15993WAT     H148221   6.682   6.467   9.588
15993WAT     H248222   6.527   6.517   9.598
15994WAT      O48223   4.765   3.378   0.957
15994WAT     H148224   4.832   3.324   1.008
15994WAT     H248225   4.716   3.439   1.019
15995WAT      O48226   7.161   3.832   2.699
15995WAT     H148227   7.224   3.804   2.772
15995WAT     H248228   7.070   3.796   2.717
15996WAT      O48229   4.827   4.007   4.884
15996WAT     H148230   4.793   3.913   4.876
15996WAT     H248231   4.922   4.011   4.853
15997WAT      O48232   9.619   8.946   2.722
15997WAT     H148233   9.550   8.905   2.662
15997WAT     H248234   9.624   9.044   2.704
15998WAT      O48235   6.746   9.535   9.275
15998WAT     H148236   6.790   9.450   9.245
15998WAT     H248237   6.749   9.540   9.375
15999WAT      O48238   5.192   5.200   7.253
15999WAT     H148239   5.210   5.286   7.302
15999WAT     H248240   5.164   5.130   7.319
16000WAT      O48241   6.417   9.450   4.508
16000WAT     H148242   6.443   9.406   4.594
16000WAT     H248243   6.373   9.383   4.448
16001WAT      O48244   2.311   8.886   4.779
16001WAT     H148245   2.367   8.872   4.861
16001WAT     H248246   2.264   8.801   4.756
16002WAT      O48247   0.931   5.166   6.054
16002WAT     H148248   1.009   5.172   6.116
16002WAT     H248249   0.870   5.243   6.071
16003WAT      O48250   6.257   5.831   3.030
16003WAT     H148251   6.242   5.760   2.961
16003WAT     H248252   6.174   5.886   3.040
16004WAT      O48253   5.980   9.021   6.497
16004WAT     H148254   5.988   9.120   6.511
16004WAT     H248255   5.933   9.003   6.411
16005WAT      O48256   5.553   6.161   2.180
16005WAT     H148257   5.581   6.160   2.084
16005WAT     H248258   5.509   6.074   2.203
16006WAT      O48259   4.731   2.553   4.605
16006WAT     H148260   4.639   2.555   4.565
16006WAT     H248261   4.724   2.553   4.705
16007WAT      O48262   3.308   2.750   7.833
16007WAT     H148263   3.294   2.685   7.758
16007WAT     H248264   3.330   2.700   7.916
16008WAT      O48265   0.638   7.010   3.339
16008WAT     H148266   0.659   7.036   3.245
16008WAT     H248267   0.711   7.041   3.399
16009WAT      O48268   8.180   0.332   4.565
16009WAT     H148269   8.250   0.267   4.534
16009WAT     H248270   8.178   0.333   4.664
16010WAT      O48271   7.901   0.397   1.263
16010WAT     H148272   7.874   0.302   1.272
16010WAT     H248273   7.831   0.448   1.214
16011WAT      O48274   4.662   1.346   6.243
16011WAT     H148275   4.706   1.419   6.294
16011WAT     H248276   4.695   1.258   6.276
16012WAT      O48277   4.867   0.943   3.545
16012WAT     H148278   4.886   1.014   3.478
16012WAT     H248279   4.951   0.914   3.590
16013WAT      O48280   6.016   6.096   0.502
16013WAT     H148281   5.996   6.194   0.497
16013WAT     H248282   6.044   6.072   0.595
16014WAT      O48283   8.724   9.326   3.202
16014WAT     H148284   8.774   9.319   3.288
16014WAT     H248285   8.782   9.369   3.133
16015WAT      O48286   4.864   9.433   8.573
16015WAT     H148287   4.811   9.360   8.529
16015WAT     H248288   4.930   9.469   8.508
16016WAT      O48289   9.603   9.287   6.327
16016WAT     H148290   9.542   9.331   6.394
16016WAT     H248291   9.690   9.335   6.325
16017WAT      O48292   2.154   4.916   0.995
16017WAT     H148293   2.069   4.943   0.949
16017WAT     H248294   2.133   4.881   1.086
16018WAT      O48295   6.996   5.682   3.143
16018WAT     H148296   6.926   5.610   3.146
16018WAT     H248297   7.037   5.692   3.234
16019WAT      O48298   9.386   0.814   6.661
16019WAT     H148299   9.474   0.860   6.678
16019WAT     H248300   9.338   0.801   6.747
16020WAT      O48301   3.992   0.281   8.087
16020WAT     H148302   3.897   0.260   8.062
16020WAT     H248303   4.032   0.342   8.018
16021WAT      O48304   8.992   2.770   9.147
16021WAT     H148305   8.931   2.826   9.090
16021WAT     H248306   9.062   2.728   9.090
16022WAT      O48307   1.400   1.242   0.089
16022WAT     H148308   1.445   1.254   0.178
16022WAT     H248309   1.468   1.242   0.017
16023WAT      O48310   6.862   4.453   3.043
16023WAT     H148311   6.899   4.453   3.136
16023WAT     H248312   6.767   4.484   3.046
16024WAT      O48313   0.897   2.619   2.679
16024WAT     H148314   0.802   2.643   2.655
16024WAT     H248315   0.948   2.600   2.595
16025WAT      O48316   6.703   6.119   4.981
16025WAT     H148317   6.619   6.141   5.032
16025WAT     H248318   6.690   6.141   4.885
16026WAT      O48319   0.930   4.074   0.417
16026WAT     H148320   0.898   4.045   0.327
16026WAT     H248321   1.015   4.027   0.439
16027WAT      O48322   8.016   6.462   8.167
16027WAT     H148323   8.047   6.478   8.261
16027WAT     H248324   7.930   6.412   8.168
16028WAT      O48325   7.901   6.282   2.082
16028WAT     H148326   7.906   6.182   2.089
16028WAT     H248327   7.812   6.313   2.116
16029WAT      O48328   4.297   7.585   5.924
16029WAT     H148329   4.326   7.593   5.829
16029WAT     H248330   4.356   7.642   5.982
16030WAT      O48331   7.107   8.279   9.409
16030WAT     H148332   7.197   8.239   9.423
16030WAT     H248333   7.068   8.308   9.496
16031WAT      O48334   7.340   4.808   7.971
16031WAT     H148335   7.333   4.762   8.060
16031WAT     H248336   7.343   4.739   7.898
16032WAT      O48337   8.504   8.620   1.312
16032WAT     H148338   8.416   8.572   1.306
16032WAT     H248339   8.517   8.675   1.229
16033WAT      O48340   0.718   8.887   1.133
16033WAT     H148341   0.695   8.899   1.037
16033WAT     H248342   0.744   8.791   1.149
16034WAT      O48343   0.045   4.594   9.207
16034WAT     H148344   0.142   4.576   9.196
16034WAT     H248345   0.030   4.691   9.226
16035WAT      O48346   5.026   6.891   6.940
16035WAT     H148347   4.950   6.833   6.968
16035WAT     H248348   5.061   6.942   7.019
16036WAT      O48349   0.664   7.257   8.541
16036WAT     H148350   0.753   7.287   8.506
16036WAT     H248351   0.599   7.251   8.466
16037WAT      O48352   4.734   5.142   7.146
16037WAT     H148353   4.668   5.070   7.121
16037WAT     H248354   4.822   5.121   7.104
16038WAT      O48355   5.524   4.831   7.033
16038WAT     H148356   5.426   4.823   7.018
16038WAT     H248357   5.568   4.869   6.952
16039WAT      O48358   4.491   6.958   2.785
16039WAT     H148359   4.569   6.979   2.725
16039WAT     H248360   4.464   6.863   2.773
16040WAT      O48361   3.192   1.094   3.314
16040WAT     H148362   3.224   1.105   3.408
16040WAT     H248363   3.194   0.997   3.289
16041WAT      O48364   7.320   4.722   0.154
16041WAT     H148365   7.335   4.704   0.251
16041WAT     H248366   7.327   4.820   0.136
16042WAT      O48367   4.460   0.497   1.426
16042WAT     H148368   4.416   0.495   1.516
16042WAT     H248369   4.389   0.492   1.355
16043WAT      O48370   6.328   9.016   5.498
16043WAT     H148371   6.314   8.972   5.587
16043WAT     H248372   6.334   8.945   5.427
16044WAT      O48373   9.091   9.706   7.496
16044WAT     H148374   9.017   9.649   7.532
16044WAT     H248375   9.070   9.731   7.401
16045WAT      O48376   2.341   5.520   5.288
16045WAT     H148377   2.302   5.461   5.217
16045WAT     H248378   2.430   5.483   5.316
16046WAT      O48379   7.558   0.759   1.215
16046WAT     H148380   7.462   0.735   1.222
16046WAT     H248381   7.571   0.821   1.137
16047WAT      O48382   0.992   0.843   8.788
16047WAT     H148383   1.090   0.823   8.783
16047WAT     H248384   0.976   0.938   8.761
16048WAT      O48385   4.336   9.513   0.150
16048WAT     H148386   4.421   9.536   0.102
16048WAT     H248387   4.282   9.449   0.096
16049WAT      O48388   1.936   0.069   8.453
16049WAT     H148389   1.931  -0.003   8.522
16049WAT     H248390   2.031   0.081   8.425
16050WAT      O48391   4.365   0.717   4.210
16050WAT     H148392   4.292   0.705   4.278
16050WAT     H248393   4.384   0.814   4.198
16051WAT      O48394   9.315   9.350   0.062
16051WAT     H148395   9.220   9.365   0.032
16051WAT     H248396   9.315   9.286   0.138
16052WAT      O48397   7.516   4.834   0.422
16052WAT     H148398   7.444   4.764   0.432
16052WAT     H248399   7.539   4.844   0.325
16053WAT      O48400   5.629   6.399   5.107
16053WAT     H148401   5.679   6.464   5.164
16053WAT     H248402   5.555   6.358   5.161
16054WAT      O48403   2.305   7.780   4.024
16054WAT     H148404   2.248   7.763   4.104
16054WAT     H248405   2.278   7.719   3.950
16055WAT      O48406   7.379   9.493   6.680
16055WAT     H148407   7.307   9.461   6.619
16055WAT     H248408   7.432   9.564   6.633
16056WAT      O48409   0.392   4.416   8.808
16056WAT     H148410   0.486   4.410   8.844
16056WAT     H248411   0.381   4.502   8.759
16057WAT      O48412   3.899   9.349   2.932
16057WAT     H148413   3.886   9.299   2.846
16057WAT     H248414   3.878   9.446   2.917
16058WAT      O48415   0.467   4.106   5.733
16058WAT     H148416   0.541   4.152   5.782
16058WAT     H248417   0.504   4.055   5.656
16059WAT      O48418   1.704   7.366   0.047
16059WAT     H148419   1.786   7.374   0.104
16059WAT     H248420   1.662   7.276   0.060
16060WAT      O48421   2.533   4.866   1.610
16060WAT     H148422   2.594   4.890   1.535
16060WAT     H248423   2.507   4.948   1.661
16061WAT      O48424   0.987   7.097   2.196
16061WAT     H148425   1.052   7.168   2.223
16061WAT     H248426   0.895   7.124   2.227
16062WAT      O48427   2.124   7.569   7.227
16062WAT     H148428   2.150   7.556   7.131
16062WAT     H248429   2.099   7.665   7.242
16063WAT      O48430   0.544   7.570   1.055
16063WAT     H148431   0.583   7.510   1.125
16063WAT     H248432   0.510   7.515   0.979
16064WAT      O48433   6.282   4.268   9.435
16064WAT     H148434   6.327   4.318   9.509
16064WAT     H248435   6.319   4.176   9.429
16065WAT      O48436   1.054   2.590   5.030
16065WAT     H148437   1.085   2.673   4.984
16065WAT     H248438   0.957   2.576   5.013
16066WAT      O48439   1.511   9.011   7.373
16066WAT     H148440   1.500   9.093   7.318
16066WAT     H248441   1.608   8.986   7.378
16067WAT      O48442   7.585   5.788   4.817
16067WAT     H148443   7.642   5.835   4.884
16067WAT     H248444   7.537   5.712   4.860
16068WAT      O48445   4.140   7.488   8.173
16068WAT     H148446   4.122   7.422   8.099
16068WAT     H248447   4.236   7.483   8.200
16069WAT      O48448   2.167   6.526   7.899
16069WAT     H148449   2.232   6.595   7.932
16069WAT     H248450   2.090   6.520   7.962
16070WAT      O48451   5.714   3.296   1.114
16070WAT     H148452   5.763   3.250   1.040
16070WAT     H248453   5.755   3.270   1.202
16071WAT      O48454   1.711   0.734   0.450
16071WAT     H148455   1.712   0.830   0.476
16071WAT     H248456   1.694   0.726   0.352
16072WAT      O48457   0.350   6.650   8.412
16072WAT     H148458   0.382   6.691   8.498
16072WAT     H248459   0.428   6.639   8.350
16073WAT      O48460   6.117   2.491   2.463
16073WAT     H148461   6.118   2.590   2.448
16073WAT     H248462   6.100   2.444   2.376
16074WAT      O48463   9.675   3.039   1.505
16074WAT     H148464   9.657   2.941   1.503
16074WAT     H248465   9.675   3.075   1.412
16075WAT      O48466   1.786   3.129   3.143
16075WAT     H148467   1.830   3.149   3.231
16075WAT     H248468   1.711   3.065   3.156
16076WAT      O48469   0.145   6.074   6.842
16076WAT     H148470   0.223   6.069   6.779
16076WAT     H248471   0.070   6.124   6.799
16077WAT      O48472   3.631   5.743   2.174
16077WAT     H148473   3.538   5.723   2.202
16077WAT     H248474   3.642   5.842   2.163
16078WAT      O48475   9.814   1.677   6.317
16078WAT     H148476   9.875   1.717   6.386
16078WAT     H248477   9.848   1.699   6.226
16079WAT      O48478   7.427   4.969   8.356
16079WAT     H148479   7.489   5.041   8.388
16079WAT     H248480   7.378   5.002   8.275
16080WAT      O48481   1.714   0.278   1.814
16080WAT     H148482   1.710   0.256   1.912
16080WAT     H248483   1.797   0.238   1.775
16081WAT      O48484   8.891   7.717   5.607
16081WAT     H148485   8.855   7.743   5.697
16081WAT     H248486   8.991   7.720   5.610
16082WAT      O48487   2.551   1.884   5.590
16082WAT     H148488   2.540   1.787   5.566
16082WAT     H248489   2.481   1.937   5.543
16083WAT      O48490   6.796   1.625   5.427
16083WAT     H148491   6.853   1.576   5.492
16083WAT     H248492   6.831   1.718   5.414
16084WAT      O48493   0.386   1.512   4.054
16084WAT     H148494   0.357   1.597   4.009
16084WAT     H248495   0.315   1.481   4.116
16085WAT      O48496   7.551   7.613   2.938
16085WAT     H148497   7.515   7.595   3.030
16085WAT     H248498   7.489   7.577   2.869
16086WAT      O48499   7.488   0.640   2.638
16086WAT     H148500   7.552   0.585   2.691
16086WAT     H248501   7.436   0.580   2.576
16087WAT      O48502   2.313   2.425   2.895
16087WAT     H148503   2.311   2.480   2.979
16087WAT     H248504   2.236   2.452   2.837
16088WAT      O48505   9.703   2.344   1.684
16088WAT     H148506   9.720   2.416   1.617
16088WAT     H248507   9.741   2.258   1.651
16089WAT      O48508   5.233   0.161   4.986
16089WAT     H148509   5.138   0.132   4.995
16089WAT     H248510   5.277   0.162   5.076
16090WAT      O48511   2.532   1.776   4.231
16090WAT     H148512   2.577   1.735   4.151
16090WAT     H248513   2.489   1.862   4.205
16091WAT      O48514   7.553   6.127   5.048
16091WAT     H148515   7.478   6.065   5.069
16091WAT     H248516   7.595   6.100   4.962
16092WAT      O48517   2.514   1.622   8.298
16092WAT     H148518   2.445   1.592   8.364
16092WAT     H248519   2.496   1.580   8.209
16093WAT      O48520   7.275   7.067   7.941
16093WAT     H148521   7.237   7.158   7.925
16093WAT     H248522   7.264   7.012   7.858
16094WAT      O48523   6.451   3.144   3.154
16094WAT     H148524   6.525   3.103   3.101
16094WAT     H248525   6.412   3.075   3.215
16095WAT      O48526   1.276   4.123   9.368
16095WAT     H148527   1.241   4.094   9.457
16095WAT     H248528   1.376   4.123   9.369
16096WAT      O48529   8.261   8.600   4.203
16096WAT     H148530   8.240   8.625   4.108
16096WAT     H248531   8.191   8.637   4.264
16097WAT      O48532   9.777   7.148   8.722
16097WAT     H148533   9.749   7.052   8.720
16097WAT     H248534   9.799   7.179   8.629
16098WAT      O48535   9.635   6.186   8.284
16098WAT     H148536   9.710   6.249   8.264
16098WAT     H248537   9.634   6.112   8.217
16099WAT      O48538   9.882   0.817   0.254
16099WAT     H148539   9.971   0.774   0.270
16099WAT     H248540   9.873   0.898   0.312
16100WAT      O48541   8.569   9.185   4.892
16100WAT     H148542   8.619   9.151   4.972
16100WAT     H248543   8.627   9.177   4.811
16101WAT      O48544   6.734   5.868   7.600
16101WAT     H148545   6.734   5.939   7.670
16101WAT     H248546   6.769   5.905   7.514
16102WAT      O48547   3.228   7.984   8.127
16102WAT     H148548   3.171   8.031   8.194
16102WAT     H248549   3.220   8.030   8.039
16103WAT      O48550   7.705   4.669   3.656
16103WAT     H148551   7.788   4.708   3.617
16103WAT     H248552   7.629   4.681   3.591
16104WAT      O48553   8.346   3.251   0.174
16104WAT     H148554   8.370   3.261   0.077
16104WAT     H248555   8.264   3.305   0.193
16105WAT      O48556   0.105   4.917   7.324
16105WAT     H148557   0.107   5.017   7.322
16105WAT     H248558   0.049   4.887   7.401
16106WAT      O48559   6.724   6.224   7.310
16106WAT     H148560   6.660   6.264   7.244
16106WAT     H248561   6.717   6.272   7.397
16107WAT      O48562   0.312   4.290   5.006
16107WAT     H148563   0.287   4.269   5.101
16107WAT     H248564   0.258   4.368   4.974
16108WAT      O48565   8.417   4.958   3.279
16108WAT     H148566   8.511   4.989   3.289
16108WAT     H248567   8.414   4.859   3.285
16109WAT      O48568   8.021   4.118   2.995
16109WAT     H148569   8.111   4.119   2.952
16109WAT     H248570   7.971   4.037   2.967
16110WAT      O48571   2.512   7.823   2.892
16110WAT     H148572   2.447   7.895   2.913
16110WAT     H248573   2.600   7.863   2.867
16111WAT      O48574   7.687   2.604   8.832
16111WAT     H148575   7.753   2.545   8.878
16111WAT     H248576   7.628   2.648   8.899
16112WAT      O48577   1.085   1.365   5.678
16112WAT     H148578   1.008   1.397   5.734
16112WAT     H248579   1.090   1.265   5.683
16113WAT      O48580   7.819   5.059   2.559
16113WAT     H148581   7.908   5.050   2.604
16113WAT     H248582   7.749   5.012   2.613
16114WAT      O48583   7.302   1.998   9.250
16114WAT     H148584   7.392   1.963   9.278
16114WAT     H248585   7.313   2.057   9.170
16115WAT      O48586   0.077   8.303   9.047
16115WAT     H148587   0.084   8.203   9.051
16115WAT     H248588   0.048   8.338   9.136
16116WAT      O48589   1.326   7.862   8.377
16116WAT     H148590   1.266   7.818   8.444
16116WAT     H248591   1.405   7.805   8.360
16117WAT      O48592   7.010   2.478   1.800
16117WAT     H148593   7.019   2.561   1.745
16117WAT     H248594   6.915   2.467   1.828
16118WAT      O48595   5.738   6.051   1.325
16118WAT     H148596   5.796   6.131   1.310
16118WAT     H248597   5.759   6.011   1.414
16119WAT      O48598   4.964   2.315   5.192
16119WAT     H148599   4.993   2.329   5.286
16119WAT     H248600   4.955   2.217   5.175
16120WAT      O48601   6.999   9.171   2.774
16120WAT     H148602   6.916   9.162   2.829
16120WAT     H248603   7.079   9.173   2.834
16121WAT      O48604   4.156   5.992   8.233
16121WAT     H148605   4.131   6.023   8.142
16121WAT     H248606   4.182   5.895   8.229
16122WAT      O48607   9.444   0.951   9.635
16122WAT     H148608   9.479   0.935   9.727
16122WAT     H248609   9.375   0.882   9.613
16123WAT      O48610   8.848   3.641   8.856
16123WAT     H148611   8.800   3.639   8.769
16123WAT     H248612   8.891   3.731   8.869
16124WAT      O48613   0.867   8.285   5.143
16124WAT     H148614   0.898   8.199   5.102
16124WAT     H248615   0.874   8.279   5.243
16125WAT      O48616   6.724   7.343   3.678
16125WAT     H148617   6.813   7.386   3.690
16125WAT     H248618   6.734   7.244   3.678
16126WAT      O48619   4.796   7.172   8.325
16126WAT     H148620   4.781   7.196   8.229
16126WAT     H248621   4.763   7.079   8.342
16127WAT      O48622   7.517   2.651   0.869
16127WAT     H148623   7.544   2.648   0.772
16127WAT     H248624   7.594   2.621   0.925
16128WAT      O48625   2.590   9.085   0.392
16128WAT     H148626   2.679   9.077   0.437
16128WAT     H248627   2.519   9.099   0.460
16129WAT      O48628   8.143   0.035   7.044
16129WAT     H148629   8.043   0.033   7.045
16129WAT     H248630   8.175   0.049   6.950
16130WAT      O48631   1.344   4.506   6.211
16130WAT     H148632   1.258   4.504   6.159
16130WAT     H248633   1.326   4.480   6.305
16131WAT      O48634   6.505   1.124   9.077
16131WAT     H148635   6.427   1.077   9.117
16131WAT     H248636   6.587   1.104   9.130
16132WAT      O48637   9.320   5.549   0.364
16132WAT     H148638   9.238   5.540   0.422
16132WAT     H248639   9.297   5.522   0.271
16133WAT      O48640   7.775   7.081   0.344
16133WAT     H148641   7.762   6.993   0.391
16133WAT     H248642   7.763   7.067   0.246
16134WAT      O48643   8.137   6.403   0.133
16134WAT     H148644   8.186   6.444   0.056
16134WAT     H248645   8.201   6.353   0.191
16135WAT      O48646   8.419   2.081   5.719
16135WAT     H148647   8.494   2.020   5.693
16135WAT     H248648   8.348   2.078   5.648
16136WAT      O48649   5.080   7.834   1.148
16136WAT     H148650   5.072   7.934   1.149
16136WAT     H248651   4.994   7.795   1.115
16137WAT      O48652   9.746   7.350   8.026
16137WAT     H148653   9.699   7.390   8.105
16137WAT     H248654   9.710   7.260   8.007
16138WAT      O48655   0.744   2.288   1.160
16138WAT     H148656   0.834   2.322   1.187
16138WAT     H248657   0.678   2.306   1.233
16139WAT      O48658   6.204   7.356   1.062
16139WAT     H148659   6.247   7.437   1.022
16139WAT     H248660   6.248   7.334   1.149
16140WAT      O48661   6.550   5.204   9.768
16140WAT     H148662   6.625   5.263   9.740
16140WAT     H248663   6.471   5.260   9.796
16141WAT      O48664   4.979   5.690   6.516
16141WAT     H148665   4.941   5.609   6.560
16141WAT     H248666   4.906   5.737   6.466
16142WAT      O48667   4.275   8.230   3.339
16142WAT     H148668   4.185   8.271   3.345
16142WAT     H248669   4.292   8.200   3.245
16143WAT      O48670   3.129   4.720   4.240
16143WAT     H148671   3.152   4.631   4.281
16143WAT     H248672   3.208   4.754   4.188
16144WAT      O48673   5.856   9.447   5.541
16144WAT     H148674   5.857   9.379   5.614
16144WAT     H248675   5.927   9.425   5.474
16145WAT      O48676   5.484   2.453   2.508
16145WAT     H148677   5.485   2.412   2.417
16145WAT     H248678   5.484   2.380   2.577
16146WAT      O48679   5.615   1.306   5.936
16146WAT     H148680   5.638   1.387   5.883
16146WAT     H248681   5.597   1.229   5.875
16147WAT      O48682   1.210   4.343   8.946
16147WAT     H148683   1.277   4.404   8.989
16147WAT     H248684   1.187   4.268   9.008
16148WAT      O48685   6.808   7.346   2.385
16148WAT     H148686   6.831   7.442   2.367
16148WAT     H248687   6.891   7.297   2.410
16149WAT      O48688   2.154   5.567   4.548
16149WAT     H148689   2.137   5.646   4.489
16149WAT     H248690   2.212   5.501   4.499
16150WAT      O48691   0.821   2.432   7.798
16150WAT     H148692   0.817   2.365   7.872
16150WAT     H248693   0.871   2.513   7.829
16151WAT      O48694   3.721   4.529   6.285
16151WAT     H148695   3.747   4.574   6.199
16151WAT     H248696   3.673   4.595   6.343
16152WAT      O48697   8.443   5.403   0.259
16152WAT     H148698   8.515   5.337   0.238
16152WAT     H248699   8.447   5.427   0.356
16153WAT      O48700   4.958   6.901   9.536
16153WAT     H148701   4.892   6.952   9.481
16153WAT     H248702   4.934   6.908   9.633
16154WAT      O48703   7.628   3.744   4.939
16154WAT     H148704   7.676   3.698   4.865
16154WAT     H248705   7.599   3.835   4.909
16155WAT      O48706   3.282   2.945   5.116
16155WAT     H148707   3.310   2.913   5.026
16155WAT     H248708   3.248   2.867   5.170
16156WAT      O48709   6.673   7.758   2.556
16156WAT     H148710   6.689   7.692   2.629
16156WAT     H248711   6.575   7.765   2.538
16157WAT      O48712   6.637   2.863   1.341
16157WAT     H148713   6.617   2.855   1.244
16157WAT     H248714   6.553   2.857   1.394
16158WAT      O48715   6.708   3.630   7.954
16158WAT     H148716   6.622   3.675   7.932
16158WAT     H248717   6.762   3.688   8.016
16159WAT      O48718   9.882   5.348   4.440
16159WAT     H148719   9.955   5.372   4.376
16159WAT     H248720   9.801   5.402   4.420
16160WAT      O48721   0.257   3.277   3.420
16160WAT     H148722   0.275   3.247   3.327
16160WAT     H248723   0.342   3.275   3.473
16161WAT      O48724   6.469   9.347   4.746
16161WAT     H148725   6.437   9.255   4.726
16161WAT     H248726   6.552   9.343   4.802
16162WAT      O48727   9.467   6.908   7.080
16162WAT     H148728   9.430   6.999   7.057
16162WAT     H248729   9.403   6.861   7.141
16163WAT      O48730   0.071   0.673   4.693
16163WAT     H148731   0.162   0.710   4.713
16163WAT     H248732   0.065   0.649   4.596
16164WAT      O48733   8.426   6.447   2.614
16164WAT     H148734   8.427   6.389   2.695
16164WAT     H248735   8.512   6.435   2.563
16165WAT      O48736   1.383   4.631   5.238
16165WAT     H148737   1.336   4.585   5.313
16165WAT     H248738   1.373   4.578   5.154
16166WAT      O48739   8.422   0.593   6.468
16166WAT     H148740   8.334   0.577   6.511
16166WAT     H248741   8.465   0.674   6.508
16167WAT      O48742   3.421   7.346   7.137
16167WAT     H148743   3.416   7.260   7.086
16167WAT     H248744   3.418   7.423   7.073
16168WAT      O48745   3.761   3.167   0.386
16168WAT     H148746   3.710   3.245   0.349
16168WAT     H248747   3.697   3.095   0.412
16169WAT      O48748   0.266   8.773   5.930
16169WAT     H148749   0.317   8.724   6.000
16169WAT     H248750   0.174   8.795   5.964
16170WAT      O48751   1.493   6.930   1.540
16170WAT     H148752   1.418   6.897   1.597
16170WAT     H248753   1.559   6.981   1.596
16171WAT      O48754   6.230   8.854   0.284
16171WAT     H148755   6.144   8.878   0.329
16171WAT     H248756   6.290   8.808   0.349
16172WAT      O48757   3.839   2.979   6.136
16172WAT     H148758   3.755   2.998   6.085
16172WAT     H248759   3.893   2.910   6.087
16173WAT      O48760   8.102   4.411   8.901
16173WAT     H148761   8.172   4.393   8.971
16173WAT     H248762   8.023   4.454   8.944
16174WAT      O48763   4.789   1.724   8.313
16174WAT     H148764   4.772   1.736   8.215
16174WAT     H248765   4.867   1.662   8.326
16175WAT      O48766   3.484   5.017   7.459
16175WAT     H148767   3.411   4.971   7.510
16175WAT     H248768   3.498   4.970   7.372
16176WAT      O48769   5.292   1.676   8.502
16176WAT     H148770   5.325   1.735   8.576
16176WAT     H248771   5.327   1.584   8.516
16177WAT      O48772   1.006   1.585   0.502
16177WAT     H148773   1.070   1.555   0.432
16177WAT     H248774   1.036   1.673   0.540
16178WAT      O48775   1.334   4.081   2.982
16178WAT     H148776   1.408   4.024   2.946
16178WAT     H248777   1.372   4.157   3.034
16179WAT      O48778   7.950   2.841   6.281
16179WAT     H148779   7.927   2.915   6.217
16179WAT     H248780   7.907   2.756   6.251
16180WAT      O48781   7.000   5.605   4.418
16180WAT     H148782   7.037   5.566   4.334
16180WAT     H248783   6.983   5.702   4.406
16181WAT      O48784   1.131   7.198   8.630
16181WAT     H148785   1.186   7.135   8.685
16181WAT     H248786   1.098   7.273   8.687
16182WAT      O48787   6.521   4.265   6.254
16182WAT     H148788   6.577   4.346   6.272
16182WAT     H248789   6.577   4.182   6.266
16183WAT      O48790   6.538   7.721   2.052
16183WAT     H148791   6.477   7.643   2.043
16183WAT     H248792   6.624   7.701   2.005
16184WAT      O48793   7.454   4.945   6.225
16184WAT     H148794   7.373   4.897   6.257
16184WAT     H248795   7.437   5.043   6.225
16185WAT      O48796   9.406   0.118   6.883
16185WAT     H148797   9.482   0.148   6.825
16185WAT     H248798   9.442   0.081   6.969
16186WAT      O48799   9.550   7.831   8.592
16186WAT     H148800   9.493   7.851   8.672
16186WAT     H248801   9.504   7.764   8.535
16187WAT      O48802   4.578   9.163   8.903
16187WAT     H148803   4.526   9.218   8.837
16187WAT     H248804   4.551   9.067   8.894
16188WAT      O48805   6.577   4.930   1.102
16188WAT     H148806   6.609   4.927   1.196
16188WAT     H248807   6.585   5.024   1.067
16189WAT      O48808   7.194   2.802   9.100
16189WAT     H148809   7.231   2.774   9.189
16189WAT     H248810   7.122   2.870   9.114
16190WAT      O48811   8.559   2.706   3.068
16190WAT     H148812   8.645   2.730   3.113
16190WAT     H248813   8.556   2.745   2.976
16191WAT      O48814   9.820   2.850   7.827
16191WAT     H148815   9.754   2.808   7.889
16191WAT     H248816   9.798   2.825   7.732
16192WAT      O48817   0.175   8.028   4.123
16192WAT     H148818   0.103   8.096   4.132
16192WAT     H248819   0.186   8.004   4.026
16193WAT      O48820   1.865   6.405   5.389
16193WAT     H148821   1.846   6.498   5.420
16193WAT     H248822   1.855   6.341   5.465
16194WAT      O48823   0.544   5.660   2.818
16194WAT     H148824   0.461   5.604   2.821
16194WAT     H248825   0.522   5.749   2.779
16195WAT      O48826   4.408   3.690   2.881
16195WAT     H148827   4.451   3.608   2.842
16195WAT     H248828   4.397   3.759   2.809
16196WAT      O48829   2.684   1.701   7.635
16196WAT     H148830   2.695   1.786   7.583
16196WAT     H248831   2.633   1.719   7.719
16197WAT      O48832   4.793   5.747   1.811
16197WAT     H148833   4.706   5.711   1.844
16197WAT     H248834   4.859   5.672   1.803
16198WAT      O48835   3.976   4.891   0.275
16198WAT     H148836   3.924   4.827   0.330
16198WAT     H248837   3.925   4.915   0.193
16199WAT      O48838   7.455   6.675   7.340
16199WAT     H148839   7.531   6.718   7.389
16199WAT     H248840   7.458   6.576   7.354
16200WAT      O48841   0.670   8.920   6.036
16200WAT     H148842   0.717   8.949   5.953
16200WAT     H248843   0.634   8.828   6.024
16201WAT      O48844   3.522   3.542   6.712
16201WAT     H148845   3.458   3.562   6.638
16201WAT     H248846   3.499   3.454   6.753
16202WAT      O48847   2.815   9.563   3.195
16202WAT     H148848   2.887   9.496   3.176
16202WAT     H248849   2.726   9.520   3.184
16203WAT      O48850   0.603   7.057   6.960
16203WAT     H148851   0.590   7.151   6.930
16203WAT     H248852   0.517   7.021   6.997
16204WAT      O48853   1.757   5.589   1.655
16204WAT     H148854   1.762   5.599   1.755
16204WAT     H248855   1.661   5.594   1.626
16205WAT      O48856   9.572   1.471   1.516
16205WAT     H148857   9.573   1.452   1.614
16205WAT     H248858   9.570   1.570   1.501
16206WAT      O48859   7.130   7.661   8.743
16206WAT     H148860   7.037   7.698   8.756
16206WAT     H248861   7.189   7.732   8.705
16207WAT      O48862   6.196   6.348   3.206
16207WAT     H148863   6.203   6.351   3.106
16207WAT     H248864   6.114   6.397   3.236
16208WAT      O48865   2.415   5.035   4.234
16208WAT     H148866   2.349   4.980   4.284
16208WAT     H248867   2.459   5.100   4.296
16209WAT      O48868   4.145   7.037   2.980
16209WAT     H148869   4.229   7.087   2.959
16209WAT     H248870   4.148   7.005   3.075
16210WAT      O48871   7.068   7.965   6.174
16210WAT     H148872   6.976   7.933   6.191
16210WAT     H248873   7.129   7.933   6.247
16211WAT      O48874   1.456   8.549   1.653
16211WAT     H148875   1.389   8.481   1.625
16211WAT     H248876   1.500   8.587   1.572
16212WAT      O48877   1.271   8.106   1.757
16212WAT     H148878   1.233   8.013   1.762
16212WAT     H248879   1.230   8.162   1.829
16213WAT      O48880   1.690   8.612   3.812
16213WAT     H148881   1.742   8.626   3.727
16213WAT     H248882   1.703   8.518   3.843
16214WAT      O48883   1.762   7.662   7.992
16214WAT     H148884   1.764   7.612   7.905
16214WAT     H248885   1.680   7.638   8.042
16215WAT      O48886   5.887   9.196   9.825
16215WAT     H148887   5.813   9.239   9.772
16215WAT     H248888   5.862   9.196   9.922
16216WAT      O48889   6.935   5.758   8.703
16216WAT     H148890   6.918   5.827   8.633
16216WAT     H248891   6.944   5.802   8.792
16217WAT      O48892   7.650   2.568   7.445
16217WAT     H148893   7.714   2.513   7.499
16217WAT     H248894   7.702   2.632   7.387
16218WAT      O48895   8.295   9.358   8.229
16218WAT     H148896   8.238   9.297   8.173
16218WAT     H248897   8.391   9.330   8.221
16219WAT      O48898   9.666   1.142   4.156
16219WAT     H148899   9.707   1.155   4.065
16219WAT     H248900   9.598   1.214   4.172
16220WAT      O48901   1.553   3.502   3.178
16220WAT     H148902   1.528   3.567   3.249
16220WAT     H248903   1.546   3.409   3.213
16221WAT      O48904   1.466   3.048   5.899
16221WAT     H148905   1.369   3.073   5.894
16221WAT     H248906   1.505   3.084   5.984
16222WAT      O48907   2.814   3.110   3.944
16222WAT     H148908   2.804   3.151   3.853
16222WAT     H248909   2.889   3.044   3.943
16223WAT      O48910   7.857   7.156   7.344
16223WAT     H148911   7.791   7.164   7.419
16223WAT     H248912   7.856   7.239   7.289
16224WAT      O48913   6.065   0.518   8.912
16224WAT     H148914   5.967   0.509   8.927
16224WAT     H248915   6.102   0.587   8.975
16225WAT      O48916   2.372   7.687   1.170
16225WAT     H148917   2.465   7.680   1.207
16225WAT     H248918   2.308   7.646   1.235
16226WAT      O48919   2.040   0.614   7.688
16226WAT     H148920   2.041   0.708   7.653
16226WAT     H248921   1.971   0.607   7.761
16227WAT      O48922   2.656   1.449   3.599
16227WAT     H148923   2.659   1.549   3.590
16227WAT     H248924   2.560   1.420   3.608
16228WAT      O48925   4.368   3.588   2.086
16228WAT     H148926   4.397   3.631   2.172
16228WAT     H248927   4.422   3.506   2.070
16229WAT      O48928   8.672   7.960   3.002
16229WAT     H148929   8.575   7.949   2.981
16229WAT     H248930   8.724   7.888   2.956
16230WAT      O48931   5.820   0.144   4.836
16230WAT     H148932   5.789   0.145   4.741
16230WAT     H248933   5.742   0.133   4.897
16231WAT      O48934   4.379   8.369   5.861
16231WAT     H148935   4.362   8.454   5.811
16231WAT     H248936   4.472   8.336   5.841
16232WAT      O48937   2.287   6.265   7.809
16232WAT     H148938   2.204   6.318   7.788
16232WAT     H248939   2.321   6.221   7.726
16233WAT      O48940   3.173   4.350   2.526
16233WAT     H148941   3.122   4.435   2.537
16233WAT     H248942   3.202   4.340   2.430
16234WAT      O48943   3.234   4.668   6.370
16234WAT     H148944   3.285   4.754   6.366
16234WAT     H248945   3.144   4.680   6.328
16235WAT      O48946   8.058   9.178   9.435
16235WAT     H148947   8.090   9.273   9.440
16235WAT     H248948   8.136   9.116   9.437
16236WAT      O48949   3.642   3.103   0.006
16236WAT     H148950   3.661   3.145  -0.083
16236WAT     H248951   3.727   3.076   0.049
16237WAT      O48952   1.714   0.840   5.818
16237WAT     H148953   1.618   0.854   5.798
16237WAT     H248954   1.735   0.873   5.910
16238WAT      O48955   3.133   3.924   6.417
16238WAT     H148956   3.189   3.841   6.426
16238WAT     H248957   3.190   4.005   6.433
16239WAT      O48958   6.850   4.613   4.976
16239WAT     H148959   6.828   4.531   4.923
16239WAT     H248960   6.877   4.687   4.914
16240WAT      O48961   9.666   5.372   6.901
16240WAT     H148962   9.746   5.316   6.882
16240WAT     H248963   9.682   5.425   6.985
16241WAT      O48964   2.734   1.641   4.795
16241WAT     H148965   2.742   1.623   4.696
16241WAT     H248966   2.747   1.555   4.845
16242WAT      O48967   3.984   5.806   8.984
16242WAT     H148968   3.924   5.882   8.958
16242WAT     H248969   4.026   5.768   8.902
16243WAT      O48970   7.949   6.695   5.994
16243WAT     H148971   7.920   6.631   6.065
16243WAT     H248972   7.869   6.732   5.947
16244WAT      O48973   1.867   1.912   5.474
16244WAT     H148974   1.860   2.009   5.495
16244WAT     H248975   1.778   1.877   5.444
16245WAT      O48976   0.286   5.572   1.495
16245WAT     H148977   0.299   5.582   1.594
16245WAT     H248978   0.315   5.480   1.467
16246WAT      O48979   0.957   0.420   6.926
16246WAT     H148980   0.965   0.321   6.939
16246WAT     H248981   0.864   0.449   6.947
16247WAT      O48982   0.751   7.000   8.645
16247WAT     H148983   0.738   6.977   8.742
16247WAT     H248984   0.700   7.084   8.624
16248WAT      O48985   4.936   2.656   9.714
16248WAT     H148986   5.030   2.629   9.735
16248WAT     H248987   4.872   2.587   9.749
16249WAT      O48988   8.277   5.426   9.349
16249WAT     H148989   8.186   5.387   9.350
16249WAT     H248990   8.279   5.508   9.407
16250WAT      O48991   8.805   1.238   6.940
16250WAT     H148992   8.712   1.199   6.939
16250WAT     H248993   8.830   1.265   6.848
16251WAT      O48994   2.733   6.003   5.231
16251WAT     H148995   2.656   5.939   5.224
16251WAT     H248996   2.812   5.956   5.269
16252WAT      O48997   4.468   3.029   2.718
16252WAT     H148998   4.544   3.091   2.738
16252WAT     H248999   4.495   2.967   2.644
16253WAT      O49000   3.281   0.807   0.411
16253WAT     H149001   3.199   0.777   0.363
16253WAT     H249002   3.288   0.759   0.499
16254WAT      O49003   9.089   4.097   2.096
16254WAT     H149004   9.123   4.131   2.184
16254WAT     H249005   9.001   4.140   2.076
16255WAT      O49006   0.146   7.311   4.143
16255WAT     H149007   0.090   7.243   4.095
16255WAT     H249008   0.180   7.272   4.229
16256WAT      O49009   7.249   8.775   5.522
16256WAT     H149010   7.321   8.770   5.454
16256WAT     H249011   7.257   8.699   5.586
16257WAT      O49012   7.354   5.479   5.585
16257WAT     H149013   7.271   5.527   5.556
16257WAT     H249014   7.432   5.541   5.577
16258WAT      O49015   1.190   7.597   3.921
16258WAT     H149016   1.140   7.547   3.850
16258WAT     H249017   1.283   7.562   3.928
16259WAT      O49018   9.406   8.973   3.433
16259WAT     H149019   9.382   8.983   3.529
16259WAT     H249020   9.350   9.033   3.377
16260WAT      O49021   2.278   4.994   1.581
16260WAT     H149022   2.258   4.940   1.663
16260WAT     H249023   2.262   4.939   1.499
16261WAT      O49024   5.408   1.234   3.485
16261WAT     H149025   5.450   1.219   3.575
16261WAT     H249026   5.380   1.146   3.447
16262WAT      O49027   8.498   6.236   0.535
16262WAT     H149028   8.473   6.298   0.609
16262WAT     H249029   8.547   6.287   0.464
16263WAT      O49030   8.183   4.674   1.429
16263WAT     H149031   8.235   4.649   1.510
16263WAT     H249032   8.088   4.643   1.439
16264WAT      O49033   7.198   9.464   3.023
16264WAT     H149034   7.098   9.475   3.023
16264WAT     H249035   7.224   9.401   2.951
16265WAT      O49036   3.945   5.294   1.729
16265WAT     H149037   3.940   5.286   1.629
16265WAT     H249038   3.858   5.328   1.764
16266WAT      O49039   3.325   0.167   1.556
16266WAT     H149040   3.406   0.113   1.579
16266WAT     H249041   3.352   0.248   1.505
16267WAT      O49042   8.899   6.717   8.907
16267WAT     H149043   8.885   6.800   8.962
16267WAT     H249044   8.970   6.734   8.839
16268WAT      O49045   8.219   5.372   2.528
16268WAT     H149046   8.288   5.367   2.600
16268WAT     H249047   8.185   5.465   2.520
16269WAT      O49048   1.240   8.071   7.393
16269WAT     H149049   1.263   8.153   7.446
16269WAT     H249050   1.155   8.032   7.429
16270WAT      O49051   0.273   9.076   6.983
16270WAT     H149052   0.263   9.169   6.950
16270WAT     H249053   0.364   9.064   7.023
16271WAT      O49054   4.528   2.357   0.461
16271WAT     H149055   4.509   2.443   0.413
16271WAT     H249056   4.447   2.331   0.515
16272WAT      O49057   4.032   2.587   1.568
16272WAT     H149058   4.072   2.667   1.524
16272WAT     H249059   3.939   2.609   1.599
16273WAT      O49060   9.065   6.959   4.737
16273WAT     H149061   9.033   7.032   4.676
16273WAT     H249062   9.085   6.877   4.683
16274WAT      O49063   2.112   4.596   1.585
16274WAT     H149064   2.165   4.588   1.501
16274WAT     H249065   2.023   4.638   1.565
16275WAT      O49066   3.514   9.482   4.198
16275WAT     H149067   3.562   9.501   4.112
16275WAT     H249068   3.503   9.383   4.208
16276WAT      O49069   1.324   5.797   0.320
16276WAT     H149070   1.342   5.880   0.372
16276WAT     H249071   1.272   5.819   0.238
16277WAT      O49072   9.645   1.887   4.445
16277WAT     H149073   9.686   1.855   4.530
16277WAT     H249074   9.574   1.823   4.415
16278WAT      O49075   7.564   7.555   4.839
16278WAT     H149076   7.568   7.466   4.884
16278WAT     H249077   7.478   7.600   4.862
16279WAT      O49078   1.012   4.932   9.835
16279WAT     H149079   0.929   4.984   9.816
16279WAT     H249080   1.090   4.975   9.789
16280WAT      O49081   2.156   0.176   4.015
16280WAT     H149082   2.212   0.094   4.026
16280WAT     H249083   2.060   0.150   4.007
16281WAT      O49084   9.197   5.614   6.691
16281WAT     H149085   9.158   5.705   6.706
16281WAT     H249086   9.297   5.619   6.696
16282WAT      O49087   5.052   9.750   0.652
16282WAT     H149088   4.962   9.709   0.665
16282WAT     H249089   5.103   9.700   0.582
16283WAT      O49090   7.902   0.971   5.496
16283WAT     H149091   7.958   0.927   5.425
16283WAT     H249092   7.908   0.918   5.581
16284WAT      O49093   8.449   3.844   5.094
16284WAT     H149094   8.480   3.835   5.188
16284WAT     H249095   8.354   3.814   5.087
16285WAT      O49096   4.994   0.091   7.169
16285WAT     H149097   5.003   0.052   7.077
16285WAT     H249098   5.082   0.085   7.216
16286WAT      O49099   4.467   1.911   8.259
16286WAT     H149100   4.414   1.987   8.295
16286WAT     H249101   4.412   1.861   8.192
16287WAT      O49102   0.284   4.360   6.312
16287WAT     H149103   0.351   4.325   6.378
16287WAT     H249104   0.303   4.456   6.294
16288WAT      O49105   0.295   2.441   5.274
16288WAT     H149106   0.262   2.525   5.232
16288WAT     H249107   0.390   2.453   5.304
16289WAT      O49108   9.538   7.504   1.981
16289WAT     H149109   9.515   7.466   1.892
16289WAT     H249110   9.564   7.430   2.043
16290WAT      O49111   6.340   9.576   8.998
16290WAT     H149112   6.291   9.574   9.085
16290WAT     H249113   6.405   9.652   8.998
16291WAT      O49114   6.032   3.557   1.236
16291WAT     H149115   6.071   3.486   1.177
16291WAT     H249116   6.058   3.540   1.331
16292WAT      O49117   3.189   9.047   4.314
16292WAT     H149118   3.109   9.089   4.273
16292WAT     H249119   3.256   9.118   4.336
16293WAT      O49120   9.266   5.995   8.250
16293WAT     H149121   9.297   6.078   8.297
16293WAT     H249122   9.324   5.980   8.170
16294WAT      O49123   3.173   4.335   2.259
16294WAT     H149124   3.114   4.281   2.200
16294WAT     H249125   3.267   4.332   2.224
16295WAT      O49126   3.316   3.467   6.101
16295WAT     H149127   3.396   3.407   6.092
16295WAT     H249128   3.257   3.456   6.021
16296WAT      O49129   7.467   3.131   3.526
16296WAT     H149130   7.546   3.102   3.580
16296WAT     H249131   7.486   3.116   3.429
16297WAT      O49132   3.506   5.931   0.852
16297WAT     H149133   3.462   5.985   0.924
16297WAT     H249134   3.440   5.911   0.780
16298WAT      O49135   6.686   3.310   4.278
16298WAT     H149136   6.703   3.312   4.377
16298WAT     H249137   6.588   3.301   4.261
16299WAT      O49138   4.412   2.940   3.633
16299WAT     H149139   4.490   2.964   3.575
16299WAT     H249140   4.329   2.935   3.577
16300WAT      O49141   1.071   0.670   6.227
16300WAT     H149142   1.129   0.738   6.272
16300WAT     H249143   1.124   0.586   6.211
16301WAT      O49144   4.754   8.047   1.942
16301WAT     H149145   4.796   8.028   1.853
16301WAT     H249146   4.720   8.141   1.943
16302WAT      O49147   1.789   0.478   5.512
16302WAT     H149148   1.778   0.552   5.445
16302WAT     H249149   1.788   0.517   5.605
16303WAT      O49150   7.649   1.419   6.813
16303WAT     H149151   7.729   1.385   6.863
16303WAT     H249152   7.604   1.490   6.866
16304WAT      O49153   6.159   1.316   1.023
16304WAT     H149154   6.121   1.408   1.012
16304WAT     H249155   6.159   1.269   0.936
16305WAT      O49156   7.267   4.850   5.842
16305WAT     H149157   7.197   4.898   5.789
16305WAT     H249158   7.230   4.764   5.877
16306WAT      O49159   4.616   8.295   7.822
16306WAT     H149160   4.517   8.290   7.807
16306WAT     H249161   4.661   8.228   7.764
16307WAT      O49162   8.454   5.622   6.251
16307WAT     H149163   8.427   5.536   6.207
16307WAT     H249164   8.422   5.699   6.197
16308WAT      O49165   6.723   4.689   1.039
16308WAT     H149166   6.658   4.764   1.053
16308WAT     H249167   6.716   4.624   1.115
16309WAT      O49168   4.397   0.933   1.349
16309WAT     H149169   4.482   0.901   1.392
16309WAT     H249170   4.322   0.870   1.371
16310WAT      O49171   8.675   9.184   1.228
16310WAT     H149172   8.684   9.091   1.263
16310WAT     H249173   8.618   9.184   1.146
16311WAT      O49174   3.463   7.050   6.365
16311WAT     H149175   3.410   7.135   6.367
16311WAT     H249176   3.522   7.046   6.446
16312WAT      O49177   3.116   0.228   0.215
16312WAT     H149178   3.024   0.266   0.205
16312WAT     H249179   3.172   0.290   0.269
16313WAT      O49180   0.190   5.345   3.344
16313WAT     H149181   0.144   5.323   3.257
16313WAT     H249182   0.287   5.359   3.327
16314WAT      O49183   8.873   1.686   4.452
16314WAT     H149184   8.829   1.620   4.390
16314WAT     H249185   8.885   1.644   4.542
16315WAT      O49186   4.443   9.360   2.696
16315WAT     H149187   4.370   9.413   2.653
16315WAT     H249188   4.512   9.337   2.627
16316WAT      O49189   3.479   8.763   0.024
16316WAT     H149190   3.448   8.852   0.060
16316WAT     H249191   3.514   8.708   0.099
16317WAT      O49192   6.322   2.986   8.404
16317WAT     H149193   6.389   3.009   8.334
16317WAT     H249194   6.347   3.027   8.491
16318WAT      O49195   9.750   1.657   3.363
16318WAT     H149196   9.689   1.661   3.442
16318WAT     H249197   9.832   1.713   3.381
16319WAT      O49198   4.205   2.531   8.876
16319WAT     H149199   4.122   2.582   8.854
16319WAT     H249200   4.184   2.459   8.942
16320WAT      O49201   2.210   5.628   2.953
16320WAT     H149202   2.181   5.535   2.930
16320WAT     H249203   2.138   5.673   3.007
16321WAT      O49204   7.103   8.749   2.923
16321WAT     H149205   7.089   8.832   2.976
16321WAT     H249206   7.200   8.741   2.899
16322WAT      O49207   5.966   6.159   5.560
16322WAT     H149208   6.056   6.116   5.555
16322WAT     H249209   5.931   6.154   5.653
16323WAT      O49210   2.946   4.699   7.606
16323WAT     H149211   2.871   4.676   7.668
16323WAT     H249212   2.998   4.776   7.643
16324WAT      O49213   4.577   9.167   3.993
16324WAT     H149214   4.547   9.098   3.928
16324WAT     H249215   4.660   9.137   4.039
16325WAT      O49216   6.219   8.587   7.162
16325WAT     H149217   6.153   8.589   7.237
16325WAT     H249218   6.304   8.631   7.190
16326WAT      O49219   3.898   9.718   8.742
16326WAT     H149220   3.948   9.778   8.680
16326WAT     H249221   3.813   9.689   8.698
16327WAT      O49222   0.262   4.146   3.436
16327WAT     H149223   0.230   4.096   3.516
16327WAT     H249224   0.254   4.244   3.452
16328WAT      O49225   3.980   0.920   7.133
16328WAT     H149226   4.036   0.870   7.068
16328WAT     H249227   3.891   0.940   7.093
16329WAT      O49228   9.610   7.958   1.394
16329WAT     H149229   9.670   8.015   1.451
16329WAT     H249230   9.664   7.916   1.321
16330WAT      O49231   9.655   8.639   8.434
16330WAT     H149232   9.632   8.731   8.466
16330WAT     H249233   9.571   8.586   8.423
16331WAT      O49234   2.417   6.427   7.209
16331WAT     H149235   2.458   6.443   7.299
16331WAT     H249236   2.487   6.438   7.138
16332WAT      O49237   9.689   7.711   6.914
16332WAT     H149238   9.665   7.718   7.010
16332WAT     H249239   9.703   7.802   6.876
16333WAT      O49240   0.207   3.156   9.862
16333WAT     H149241   0.295   3.194   9.832
16333WAT     H249242   0.132   3.207   9.819
16334WAT      O49243   7.070   7.292   9.384
16334WAT     H149244   7.141   7.356   9.414
16334WAT     H249245   7.051   7.306   9.287
16335WAT      O49246   8.352   9.042   8.149
16335WAT     H149247   8.348   8.966   8.084
16335WAT     H249248   8.318   9.011   8.238
16336WAT      O49249   9.603   9.127   5.646
16336WAT     H149250   9.639   9.167   5.730
16336WAT     H249251   9.620   9.028   5.646
16337WAT      O49252   6.826   9.280   7.787
16337WAT     H149253   6.762   9.204   7.785
16337WAT     H249254   6.776   9.366   7.777
16338WAT      O49255   9.551   3.782   6.318
16338WAT     H149256   9.482   3.784   6.246
16338WAT     H249257   9.609   3.863   6.311
16339WAT      O49258   0.491   1.905   9.066
16339WAT     H149259   0.520   2.000   9.076
16339WAT     H249260   0.417   1.886   9.130
16340WAT      O49261   1.057   0.423   8.112
16340WAT     H149262   1.016   0.470   8.191
16340WAT     H249263   1.038   0.325   8.118
16341WAT      O49264   7.149   7.495   8.219
16341WAT     H149265   7.162   7.587   8.182
16341WAT     H249266   7.172   7.495   8.316
16342WAT      O49267   8.613   1.493   0.048
16342WAT     H149268   8.625   1.580  -0.000
16342WAT     H249269   8.558   1.431  -0.008
16343WAT      O49270   2.370   4.382   3.616
16343WAT     H149271   2.456   4.342   3.585
16343WAT     H249272   2.325   4.318   3.679
16344WAT      O49273   4.709   2.872   7.218
16344WAT     H149274   4.735   2.776   7.216
16344WAT     H249275   4.784   2.927   7.182
16345WAT      O49276   3.570   8.576   0.277
16345WAT     H149277   3.633   8.498   0.272
16345WAT     H249278   3.619   8.658   0.306
16346WAT      O49279   5.448   1.113   6.161
16346WAT     H149280   5.383   1.094   6.088
16346WAT     H249281   5.398   1.138   6.244
16347WAT      O49282   6.663   0.707   8.637
16347WAT     H149283   6.733   0.715   8.707
16347WAT     H249284   6.573   0.695   8.681
16348WAT      O49285   4.463   2.884   0.285
16348WAT     H149286   4.483   2.936   0.368
16348WAT     H249287   4.412   2.941   0.221
16349WAT      O49288   4.608   6.945   7.713
16349WAT     H149289   4.552   6.867   7.686
16349WAT     H249290   4.682   6.957   7.646
16350WAT      O49291   5.133   9.725   8.034
16350WAT     H149292   5.220   9.689   7.999
16350WAT     H249293   5.108   9.806   7.981
16351WAT      O49294   2.307   8.189   6.699
16351WAT     H149295   2.277   8.157   6.609
16351WAT     H249296   2.398   8.153   6.719
16352WAT      O49297   8.623   2.026   5.367
16352WAT     H149298   8.556   1.956   5.396
16352WAT     H249299   8.575   2.101   5.321
16353WAT      O49300   8.192   9.706   9.060
16353WAT     H149301   8.192   9.618   9.012
16353WAT     H249302   8.270   9.710   9.122
16354WAT      O49303   1.643   5.129   3.187
16354WAT     H149304   1.593   5.083   3.113
16354WAT     H249305   1.622   5.227   3.186
16355WAT      O49306   2.614   1.311   7.685
16355WAT     H149307   2.634   1.215   7.668
16355WAT     H249308   2.642   1.365   7.605
16356WAT      O49309   8.689   1.834   2.820
16356WAT     H149310   8.646   1.902   2.879
16356WAT     H249311   8.789   1.842   2.827
16357WAT      O49312   5.567   7.579   5.502
16357WAT     H149313   5.637   7.646   5.479
16357WAT     H249314   5.610   7.489   5.513
16358WAT      O49315   5.812   6.187   6.049
16358WAT     H149316   5.903   6.225   6.063
16358WAT     H249317   5.748   6.229   6.114
16359WAT      O49318   6.745   7.062   3.688
16359WAT     H149319   6.758   7.049   3.589
16359WAT     H249320   6.653   7.030   3.714
16360WAT      O49321   3.781   0.419   1.473
16360WAT     H149322   3.877   0.449   1.477
16360WAT     H249323   3.736   0.440   1.559
16361WAT      O49324   4.502   3.983   2.174
16361WAT     H149325   4.500   4.082   2.165
16361WAT     H249326   4.422   3.952   2.226
16362WAT      O49327   8.316   5.017   6.512
16362WAT     H149328   8.336   5.042   6.418
16362WAT     H249329   8.224   5.047   6.536
16363WAT      O49330   2.029   4.100   1.738
16363WAT     H149331   2.057   4.071   1.647
16363WAT     H249332   2.045   4.198   1.748
16364WAT      O49333   3.694   6.131   6.199
16364WAT     H149334   3.601   6.170   6.204
16364WAT     H249335   3.717   6.088   6.286
16365WAT      O49336   5.047   6.394   8.513
16365WAT     H149337   5.008   6.433   8.430
16365WAT     H249338   5.137   6.434   8.530
16366WAT      O49339   2.711   5.318   8.311
16366WAT     H149340   2.638   5.384   8.328
16366WAT     H249341   2.672   5.231   8.284
16367WAT      O49342   6.694   5.066   8.998
16367WAT     H149343   6.652   5.041   9.085
16367WAT     H249344   6.641   5.026   8.923
16368WAT      O49345   7.552   8.304   6.522
16368WAT     H149346   7.558   8.319   6.423
16368WAT     H249347   7.502   8.380   6.564
16369WAT      O49348   8.364   3.534   2.455
16369WAT     H149349   8.305   3.458   2.425
16369WAT     H249350   8.427   3.558   2.381
16370WAT      O49351   7.747   8.590   8.711
16370WAT     H149352   7.835   8.634   8.698
16370WAT     H249353   7.729   8.529   8.633
16371WAT      O49354   9.404   6.651   3.313
16371WAT     H149355   9.405   6.624   3.216
16371WAT     H249356   9.482   6.609   3.359
16372WAT      O49357   8.561   7.485   2.706
16372WAT     H149358   8.593   7.454   2.796
16372WAT     H249359   8.558   7.584   2.704
16373WAT      O49360   0.515   1.843   7.521
16373WAT     H149361   0.450   1.770   7.541
16373WAT     H249362   0.556   1.827   7.431
16374WAT      O49363   8.054   7.230   9.536
16374WAT     H149364   8.146   7.200   9.511
16374WAT     H249365   8.008   7.265   9.454
16375WAT      O49366   1.872   2.929   5.209
16375WAT     H149367   1.890   2.837   5.243
16375WAT     H249368   1.927   2.945   5.127
16376WAT      O49369   3.449   8.154   7.892
16376WAT     H149370   3.492   8.122   7.808
16376WAT     H249371   3.352   8.172   7.876
16377WAT      O49372   7.096   2.453   6.012
16377WAT     H149373   7.038   2.533   5.997
16377WAT     H249374   7.094   2.394   5.931
16378WAT      O49375   2.525   3.095   3.666
16378WAT     H149376   2.615   3.052   3.662
16378WAT     H249377   2.505   3.140   3.579
16379WAT      O49378   9.116   0.044   8.525
16379WAT     H149379   9.101  -0.051   8.498
16379WAT     H249380   9.202   0.051   8.574
16380WAT      O49381   9.317   7.131   0.795
16380WAT     H149382   9.386   7.141   0.723
16380WAT     H249383   9.230   7.169   0.763
16381WAT      O49384   1.846   5.169   3.513
16381WAT     H149385   1.752   5.139   3.499
16381WAT     H249386   1.902   5.140   3.436
16382WAT      O49387   7.183   9.288   4.138
16382WAT     H149388   7.222   9.298   4.229
16382WAT     H249389   7.166   9.379   4.099
16383WAT      O49390   5.203   6.778   1.809
16383WAT     H149391   5.161   6.688   1.821
16383WAT     H249392   5.291   6.769   1.764
16384WAT      O49393   2.829   0.539   6.436
16384WAT     H149394   2.826   0.445   6.470
16384WAT     H249395   2.748   0.588   6.467
16385WAT      O49396   0.417   6.522   9.305
16385WAT     H149397   0.433   6.431   9.345
16385WAT     H249398   0.403   6.588   9.379
16386WAT      O49399   8.166   9.346   6.919
16386WAT     H149400   8.132   9.254   6.940
16386WAT     H249401   8.266   9.344   6.918
16387WAT      O49402   8.695   7.657   1.890
16387WAT     H149403   8.695   7.600   1.808
16387WAT     H249404   8.670   7.751   1.866
16388WAT      O49405   5.900   4.770   7.852
16388WAT     H149406   5.944   4.857   7.869
16388WAT     H249407   5.841   4.777   7.771
16389WAT      O49408   3.085   4.941   1.147
16389WAT     H149409   3.136   4.875   1.201
16389WAT     H249410   3.001   4.898   1.113
16390WAT      O49411   7.826   5.140   4.479
16390WAT     H149412   7.909   5.130   4.424
16390WAT     H249413   7.772   5.056   4.474
16391WAT      O49414   6.848   7.582   0.756
16391WAT     H149415   6.795   7.576   0.671
16391WAT     H249416   6.939   7.620   0.735
16392WAT      O49417   1.237   0.114   6.624
16392WAT     H149418   1.163   0.177   6.599
16392WAT     H249419   1.198   0.027   6.653
16393WAT      O49420   2.036   7.064   9.866
16393WAT     H149421   2.095   7.120   9.924
16393WAT     H249422   2.092   7.015   9.799
16394WAT      O49423   9.759   5.084   7.201
16394WAT     H149424   9.728   5.131   7.119
16394WAT     H249425   9.718   4.993   7.205
16395WAT      O49426   8.319   0.837   2.128
16395WAT     H149427   8.357   0.929   2.137
16395WAT     H249428   8.392   0.773   2.104
16396WAT      O49429   6.951   1.308   5.959
16396WAT     H149430   6.874   1.245   5.953
16396WAT     H249431   7.009   1.283   6.037
16397WAT      O49432   6.257   0.767   5.335
16397WAT     H149433   6.289   0.676   5.308
16397WAT     H249434   6.247   0.770   5.435
16398WAT      O49435   5.366   1.131   2.739
16398WAT     H149436   5.395   1.045   2.698
16398WAT     H249437   5.414   1.207   2.695
16399WAT      O49438   2.874   2.433   1.342
16399WAT     H149439   2.932   2.374   1.285
16399WAT     H249440   2.828   2.500   1.283
16400WAT      O49441   5.038   1.895   8.411
16400WAT     H149442   5.032   1.918   8.508
16400WAT     H249443   5.010   1.800   8.397
16401WAT      O49444   7.325   6.447   6.205
16401WAT     H149445   7.308   6.533   6.254
16401WAT     H249446   7.268   6.375   6.243
16402WAT      O49447   4.255   1.528   7.897
16402WAT     H149448   4.282   1.475   7.816
16402WAT     H249449   4.211   1.467   7.963
16403WAT      O49450   0.174   7.108   6.026
16403WAT     H149451   0.121   7.042   6.079
16403WAT     H249452   0.163   7.199   6.066
16404WAT      O49453   9.336   7.015   3.553
16404WAT     H149454   9.375   7.063   3.474
16404WAT     H249455   9.293   6.930   3.523
16405WAT      O49456   9.439   0.790   4.417
16405WAT     H149457   9.499   0.850   4.363
16405WAT     H249458   9.407   0.839   4.498
16406WAT      O49459   3.621   7.588   2.642
16406WAT     H149460   3.523   7.565   2.643
16406WAT     H249461   3.666   7.539   2.568
16407WAT      O49462   0.742   9.417   0.274
16407WAT     H149463   0.819   9.383   0.221
16407WAT     H249464   0.678   9.465   0.214
16408WAT      O49465   1.500   0.019   1.164
16408WAT     H149466   1.583   0.024   1.109
16408WAT     H249467   1.440  -0.053   1.128
16409WAT      O49468   7.262   0.838   8.371
16409WAT     H149469   7.168   0.806   8.357
16409WAT     H249470   7.316   0.821   8.288
16410WAT      O49471   9.728   8.628   3.468
16410WAT     H149472   9.798   8.614   3.398
16410WAT     H249473   9.745   8.567   3.545
16411WAT      O49474   3.807   1.180   6.055
16411WAT     H149475   3.822   1.272   6.090
16411WAT     H249476   3.852   1.114   6.115
16412WAT      O49477   4.487   4.936   7.338
16412WAT     H149478   4.532   4.879   7.407
16412WAT     H249479   4.388   4.925   7.345
16413WAT      O49480   6.274   3.280   9.257
16413WAT     H149481   6.242   3.318   9.344
16413WAT     H249482   6.196   3.263   9.198
16414WAT      O49483   5.305   4.917   3.725
16414WAT     H149484   5.274   4.876   3.811
16414WAT     H249485   5.362   4.996   3.744
16415WAT      O49486   5.856   4.481   7.830
16415WAT     H149487   5.757   4.475   7.816
16415WAT     H249488   5.882   4.576   7.846
16416WAT      O49489   7.166   7.528   6.275
16416WAT     H149490   7.194   7.472   6.198
16416WAT     H249491   7.247   7.565   6.320
16417WAT      O49492   9.296   6.020   2.876
16417WAT     H149493   9.394   6.001   2.886
16417WAT     H249494   9.251   6.010   2.964
16418WAT      O49495   8.588   0.197   2.349
16418WAT     H149496   8.589   0.223   2.446
16418WAT     H249497   8.665   0.240   2.302
16419WAT      O49498   6.005   8.668   5.966
16419WAT     H149499   6.090   8.620   5.945
16419WAT     H249500   5.975   8.719   5.886
16420WAT      O49501   3.271   8.695   3.145
16420WAT     H149502   3.183   8.657   3.114
16420WAT     H249503   3.290   8.663   3.238
16421WAT      O49504   9.360   2.324   5.445
16421WAT     H149505   9.331   2.228   5.448
16421WAT     H249506   9.452   2.332   5.483
16422WAT      O49507   3.879   1.718   5.972
16422WAT     H149508   3.979   1.710   5.976
16422WAT     H249509   3.854   1.812   5.948
16423WAT      O49510   1.792   7.928   9.733
16423WAT     H149511   1.702   7.963   9.708
16423WAT     H249512   1.782   7.837   9.772
16424WAT      O49513   0.020   0.177   9.338
16424WAT     H149514   0.030   0.248   9.408
16424WAT     H249515   0.029   0.087   9.380
16425WAT      O49516   5.001   7.138   6.723
16425WAT     H149517   4.951   7.119   6.808
16425WAT     H249518   4.965   7.221   6.681
16426WAT      O49519   8.127   4.836   3.703
16426WAT     H149520   8.120   4.763   3.635
16426WAT     H249521   8.223   4.858   3.719
16427WAT      O49522   1.786   6.022   5.738
16427WAT     H149523   1.859   5.974   5.787
16427WAT     H249524   1.698   5.990   5.771
16428WAT      O49525   9.013   2.279   7.255
16428WAT     H149526   9.006   2.359   7.315
16428WAT     H249527   9.089   2.221   7.286
16429WAT      O49528   1.825   3.843   7.233
16429WAT     H149529   1.855   3.760   7.278
16429WAT     H249530   1.883   3.862   7.154
16430WAT      O49531   0.132   8.906   4.669
16430WAT     H149532   0.218   8.932   4.713
16430WAT     H249533   0.067   8.875   4.738
16431WAT      O49534   3.690   7.015   7.229
16431WAT     H149535   3.682   7.020   7.328
16431WAT     H249536   3.755   6.943   7.204
16432WAT      O49537   9.713   3.114   0.771
16432WAT     H149538   9.744   3.097   0.677
16432WAT     H249539   9.750   3.201   0.803
16433WAT      O49540   9.453   7.174   9.656
16433WAT     H149541   9.537   7.197   9.706
16433WAT     H249542   9.471   7.095   9.596
16434WAT      O49543   2.307   3.923   3.653
16434WAT     H149544   2.396   3.948   3.614
16434WAT     H249545   2.321   3.866   3.734
16435WAT      O49546   4.018   8.046   8.673
16435WAT     H149547   3.934   8.029   8.621
16435WAT     H249548   4.075   7.964   8.673
16436WAT      O49549   4.973   6.048   5.214
16436WAT     H149550   5.054   6.053   5.156
16436WAT     H249551   4.976   5.964   5.268
16437WAT      O49552   8.002   2.037   4.189
16437WAT     H149553   8.029   1.942   4.170
16437WAT     H249554   8.046   2.067   4.273
16438WAT      O49555   7.276   7.595   5.886
16438WAT     H149556   7.202   7.639   5.836
16438WAT     H249557   7.351   7.661   5.899
16439WAT      O49558   6.951   6.274   8.092
16439WAT     H149559   6.921   6.321   8.009
16439WAT     H249560   6.873   6.227   8.134
16440WAT      O49561   6.482   1.592   9.490
16440WAT     H149562   6.407   1.542   9.534
16440WAT     H249563   6.464   1.690   9.497
16441WAT      O49564   2.944   4.442   8.992
16441WAT     H149565   2.911   4.535   8.982
16441WAT     H249566   2.867   4.378   8.982
16442WAT      O49567   2.314   7.798   6.149
16442WAT     H149568   2.250   7.721   6.148
16442WAT     H249569   2.389   7.777   6.213
16443WAT      O49570   4.441   8.021   7.712
16443WAT     H149571   4.461   8.052   7.805
16443WAT     H249572   4.405   7.927   7.715
16444WAT      O49573   9.505   0.793   5.841
16444WAT     H149574   9.407   0.778   5.830
16444WAT     H249575   9.521   0.863   5.911
16445WAT      O49576   6.822   1.030   2.469
16445WAT     H149577   6.818   0.931   2.487
16445WAT     H249578   6.897   1.049   2.407
16446WAT      O49579   0.239   4.741   0.882
16446WAT     H149580   0.325   4.784   0.853
16446WAT     H249581   0.212   4.777   0.972
16447WAT      O49582   7.829   3.055   7.467
16447WAT     H149583   7.854   2.981   7.405
16447WAT     H249584   7.730   3.070   7.463
16448WAT      O49585   4.210   8.628   1.655
16448WAT     H149586   4.129   8.580   1.687
16448WAT     H249587   4.203   8.645   1.556
16449WAT      O49588   0.100   1.875   1.424
16449WAT     H149589   0.029   1.829   1.372
16449WAT     H249590   0.123   1.962   1.380
16450WAT      O49591   4.085   6.610   9.829
16450WAT     H149592   4.004   6.556   9.807
16450WAT     H249593   4.070   6.658   9.916
16451WAT      O49594   3.326   2.325   3.813
16451WAT     H149595   3.319   2.260   3.737
16451WAT     H249596   3.336   2.418   3.777
16452WAT      O49597   7.491   6.418   7.455
16452WAT     H149598   7.553   6.363   7.400
16452WAT     H249599   7.503   6.396   7.552
16453WAT      O49600   9.157   8.337   6.832
16453WAT     H149601   9.111   8.373   6.751
16453WAT     H249602   9.229   8.401   6.861
16454WAT      O49603   3.367   6.461   4.026
16454WAT     H149604   3.304   6.511   3.966
16454WAT     H249605   3.404   6.381   3.978
16455WAT      O49606   6.060   8.974   7.922
16455WAT     H149607   6.062   8.880   7.957
16455WAT     H249608   6.109   9.034   7.985
16456WAT      O49609   3.177   8.815   7.754
16456WAT     H149610   3.178   8.914   7.772
16456WAT     H249611   3.271   8.782   7.748
16457WAT      O49612   8.265   7.482   5.168
16457WAT     H149613   8.227   7.569   5.137
16457WAT     H249614   8.219   7.453   5.252
16458WAT      O49615   4.111   7.283   9.540
16458WAT     H149616   4.057   7.213   9.587
16458WAT     H249617   4.094   7.372   9.582
16459WAT      O49618   5.823   1.602   3.878
16459WAT     H149619   5.875   1.601   3.963
16459WAT     H249620   5.885   1.603   3.800
16460WAT      O49621   9.077   9.080   8.326
16460WAT     H149622   9.110   9.128   8.244
16460WAT     H249623   8.978   9.092   8.334
16461WAT      O49624   1.181   1.832   7.910
16461WAT     H149625   1.223   1.827   8.001
16461WAT     H249626   1.220   1.760   7.852
16462WAT      O49627   5.942   0.401   2.315
16462WAT     H149628   5.864   0.340   2.331
16462WAT     H249629   5.972   0.391   2.220
16463WAT      O49630   3.341   0.913   5.252
16463WAT     H149631   3.399   0.910   5.334
16463WAT     H249632   3.310   1.006   5.237
16464WAT      O49633   5.994   1.551   1.105
16464WAT     H149634   5.924   1.539   1.175
16464WAT     H249635   6.053   1.628   1.129
16465WAT      O49636   0.765   5.937   5.307
16465WAT     H149637   0.684   5.881   5.290
16465WAT     H249638   0.791   5.985   5.223
16466WAT      O49639   0.982   6.913   4.411
16466WAT     H149640   0.961   7.008   4.435
16466WAT     H249641   0.988   6.904   4.312
16467WAT      O49642   2.736   0.400   5.711
16467WAT     H149643   2.662   0.409   5.644
16467WAT     H249644   2.821   0.434   5.671
16468WAT      O49645   2.069   1.820   0.937
16468WAT     H149646   2.144   1.823   1.003
16468WAT     H249647   1.982   1.836   0.984
16469WAT      O49648   8.725   0.315   7.889
16469WAT     H149649   8.628   0.290   7.889
16469WAT     H249650   8.741   0.385   7.819
16470WAT      O49651   2.342   3.122   3.986
16470WAT     H149652   2.417   3.183   4.008
16470WAT     H249653   2.334   3.053   4.058
16471WAT      O49654   3.044   4.902   3.004
16471WAT     H149655   2.952   4.866   2.987
16471WAT     H249656   3.089   4.847   3.074
16472WAT      O49657   1.566   8.776   5.052
16472WAT     H149658   1.617   8.752   5.135
16472WAT     H249659   1.531   8.693   5.009
16473WAT      O49660   1.019   5.832   5.109
16473WAT     H149661   0.928   5.871   5.117
16473WAT     H249662   1.012   5.732   5.105
16474WAT      O49663   4.362   3.921   2.697
16474WAT     H149664   4.350   3.919   2.598
16474WAT     H249665   4.409   4.005   2.724
16475WAT      O49666   1.257   3.632   9.460
16475WAT     H149667   1.225   3.598   9.548
16475WAT     H249668   1.352   3.661   9.468
16476WAT      O49669   4.480   5.491   7.148
16476WAT     H149670   4.432   5.568   7.106
16476WAT     H249671   4.522   5.436   7.077
16477WAT      O49672   3.015   3.106   4.547
16477WAT     H149673   3.050   3.012   4.541
16477WAT     H249674   2.920   3.108   4.514
16478WAT      O49675   4.179   6.322   9.494
16478WAT     H149676   4.233   6.238   9.506
16478WAT     H249677   4.083   6.298   9.481
16479WAT      O49678   0.588   6.678   4.822
16479WAT     H149679   0.642   6.703   4.902
16479WAT     H249680   0.629   6.719   4.740
16480WAT      O49681   6.766   5.769   3.713
16480WAT     H149682   6.729   5.688   3.758
16480WAT     H249683   6.809   5.828   3.781
16481WAT      O49684   0.442   6.438   8.997
16481WAT     H149685   0.478   6.479   9.081
16481WAT     H249686   0.488   6.479   8.918
16482WAT      O49687   5.572   7.893   7.666
16482WAT     H149688   5.532   7.944   7.589
16482WAT     H249689   5.668   7.875   7.648
16483WAT      O49690   5.546   4.032   1.215
16483WAT     H149691   5.549   4.119   1.166
16483WAT     H249692   5.591   3.962   1.160
16484WAT      O49693   8.670   4.220   6.194
16484WAT     H149694   8.620   4.143   6.152
16484WAT     H249695   8.606   4.295   6.210
16485WAT      O49696   8.423   6.424   5.286
16485WAT     H149697   8.350   6.491   5.305
16485WAT     H249698   8.451   6.433   5.190
16486WAT      O49699   8.332   3.787   0.979
16486WAT     H149700   8.344   3.883   0.953
16486WAT     H249701   8.252   3.779   1.038
16487WAT      O49702   1.679   5.458   2.642
16487WAT     H149703   1.622   5.527   2.598
16487WAT     H249704   1.650   5.367   2.612
16488WAT      O49705   2.935   2.565   7.376
16488WAT     H149706   2.892   2.647   7.336
16488WAT     H249707   2.923   2.566   7.475
16489WAT      O49708   6.938   4.960   0.342
16489WAT     H149709   6.988   4.982   0.426
16489WAT     H249710   6.932   4.861   0.331
16490WAT      O49711   3.744   2.141   1.868
16490WAT     H149712   3.701   2.106   1.785
16490WAT     H249713   3.688   2.119   1.947
16491WAT      O49714   2.733   0.913   5.259
16491WAT     H149715   2.823   0.924   5.301
16491WAT     H249716   2.662   0.918   5.330
16492WAT      O49717   8.094   3.042   3.885
16492WAT     H149718   8.042   2.957   3.871
16492WAT     H249719   8.054   3.093   3.961
16493WAT      O49720   4.694   3.844   2.885
16493WAT     H149721   4.614   3.896   2.915
16493WAT     H249722   4.701   3.761   2.942
16494WAT      O49723   8.231   4.190   1.001
16494WAT     H149724   8.177   4.122   1.051
16494WAT     H249725   8.317   4.206   1.050
16495WAT      O49726   1.075   5.813   7.814
16495WAT     H149727   1.128   5.884   7.861
16495WAT     H249728   1.014   5.856   7.748
16496WAT      O49729   8.926   3.736   6.402
16496WAT     H149730   8.838   3.769   6.436
16496WAT     H249731   8.973   3.809   6.352
16497WAT      O49732   8.852   3.923   3.945
16497WAT     H149733   8.814   3.835   3.918
16497WAT     H249734   8.938   3.939   3.898
16498WAT      O49735   0.530   7.936   7.188
16498WAT     H149736   0.434   7.953   7.167
16498WAT     H249737   0.552   7.840   7.170
16499WAT      O49738   6.347   8.646   2.974
16499WAT     H149739   6.381   8.553   2.990
16499WAT     H249740   6.273   8.665   3.038
16500WAT      O49741   6.506   4.951   7.243
16500WAT     H149742   6.571   4.885   7.280
16500WAT     H249743   6.495   4.936   7.145
16501WAT      O49744   2.804   0.031   4.134
16501WAT     H149745   2.811   0.091   4.054
16501WAT     H249746   2.707   0.023   4.160
16502WAT      O49747   6.247   4.751   9.352
16502WAT     H149748   6.232   4.773   9.449
16502WAT     H249749   6.337   4.707   9.342
16503WAT      O49750   1.071   3.382   1.522
16503WAT     H149751   1.021   3.432   1.593
16503WAT     H249752   1.028   3.293   1.508
16504WAT      O49753   8.801   8.443   4.496
16504WAT     H149754   8.774   8.474   4.587
16504WAT     H249755   8.795   8.343   4.491
16505WAT      O49756   3.935   2.313   3.065
16505WAT     H149757   3.969   2.219   3.069
16505WAT     H249758   4.010   2.374   3.039
16506WAT      O49759   0.296   0.673   9.637
16506WAT     H149760   0.358   0.751   9.625
16506WAT     H249761   0.330   0.616   9.712
16507WAT      O49762   9.719   9.607   8.629
16507WAT     H149763   9.737   9.705   8.630
16507WAT     H249764   9.623   9.591   8.606
16508WAT      O49765   8.959   5.174   1.657
16508WAT     H149766   9.051   5.145   1.629
16508WAT     H249767   8.959   5.191   1.756
16509WAT      O49768   5.215   8.295   6.520
16509WAT     H149769   5.302   8.344   6.513
16509WAT     H249770   5.157   8.320   6.442
16510WAT      O49771   0.582   8.319   8.140
16510WAT     H149772   0.636   8.304   8.223
16510WAT     H249773   0.517   8.393   8.156
16511WAT      O49774   6.284   8.099   9.714
16511WAT     H149775   6.284   8.138   9.806
16511WAT     H249776   6.368   8.047   9.700
16512WAT      O49777   1.140   8.030   8.299
16512WAT     H149778   1.205   7.986   8.361
16512WAT     H249779   1.154   8.128   8.299
16513WAT      O49780   4.727   5.281   9.093
16513WAT     H149781   4.726   5.359   9.031
16513WAT     H249782   4.761   5.309   9.182
16514WAT      O49783   0.717   2.248   3.241
16514WAT     H149784   0.747   2.316   3.174
16514WAT     H249785   0.789   2.232   3.308
16515WAT      O49786   5.662   4.966   8.213
16515WAT     H149787   5.716   4.909   8.274
16515WAT     H249788   5.571   4.981   8.253
16516WAT      O49789   2.823   0.100   8.627
16516WAT     H149790   2.847   0.076   8.721
16516WAT     H249791   2.819   0.016   8.572
16517WAT      O49792   1.692   9.340   3.132
16517WAT     H149793   1.780   9.324   3.087
16517WAT     H249794   1.676   9.439   3.139
16518WAT      O49795   5.072   5.933   4.775
16518WAT     H149796   5.109   6.007   4.831
16518WAT     H249797   5.072   5.961   4.679
16519WAT      O49798   6.629   5.812   4.356
16519WAT     H149799   6.676   5.900   4.370
16519WAT     H249800   6.595   5.779   4.444
16520WAT      O49801   8.102   4.087   4.161
16520WAT     H149802   8.142   4.141   4.235
16520WAT     H249803   8.148   3.999   4.155
16521WAT      O49804   4.497   1.596   5.095
16521WAT     H149805   4.493   1.499   5.122
16521WAT     H249806   4.512   1.602   4.996
16522WAT      O49807   3.562   2.113   7.616
16522WAT     H149808   3.660   2.132   7.623
16522WAT     H249809   3.514   2.158   7.690
16523WAT      O49810   0.400   5.402   3.639
16523WAT     H149811   0.336   5.456   3.583
16523WAT     H249812   0.400   5.438   3.732
16524WAT      O49813   2.247   6.559   0.932
16524WAT     H149814   2.321   6.611   0.890
16524WAT     H249815   2.180   6.532   0.863
16525WAT      O49816   5.796   2.490   6.631
16525WAT     H149817   5.718   2.428   6.621
16525WAT     H249818   5.863   2.471   6.559
16526WAT      O49819   2.680   1.535   0.184
16526WAT     H149820   2.662   1.471   0.109
16526WAT     H249821   2.611   1.607   0.184
16527WAT      O49822   9.807   6.981   8.243
16527WAT     H149823   9.876   7.052   8.253
16527WAT     H249824   9.850   6.897   8.212
16528WAT      O49825   8.031   3.165   2.316
16528WAT     H149826   7.972   3.147   2.238
16528WAT     H249827   8.049   3.079   2.364
16529WAT      O49828   0.127   3.449   9.535
16529WAT     H149829   0.077   3.510   9.474
16529WAT     H249830   0.062   3.397   9.591
16530WAT      O49831   0.241   5.979   5.398
16530WAT     H149832   0.255   6.066   5.444
16530WAT     H249833   0.281   5.905   5.452
16531WAT      O49834   7.709   1.135   1.746
16531WAT     H149835   7.703   1.229   1.776
16531WAT     H249836   7.789   1.091   1.788
16532WAT      O49837   0.562   7.724   2.218
16532WAT     H149838   0.571   7.717   2.318
16532WAT     H249839   0.584   7.817   2.190
16533WAT      O49840   3.974   5.768   3.660
16533WAT     H149841   3.876   5.766   3.640
16533WAT     H249842   4.021   5.700   3.602
16534WAT      O49843   4.382   5.356   5.602
16534WAT     H149844   4.351   5.367   5.696
16534WAT     H249845   4.393   5.259   5.581
16535WAT      O49846   1.545   2.526   2.849
16535WAT     H149847   1.624   2.548   2.792
16535WAT     H249848   1.506   2.611   2.886
16536WAT      O49849   6.994   0.549   8.746
16536WAT     H149850   7.065   0.588   8.687
16536WAT     H249851   6.931   0.621   8.775
16537WAT      O49852   3.977   4.051   5.550
16537WAT     H149853   3.895   4.074   5.498
16537WAT     H249854   3.994   4.121   5.619
16538WAT      O49855   0.407   0.252   9.329
16538WAT     H149856   0.494   0.260   9.279
16538WAT     H249857   0.380   0.156   9.334
16539WAT      O49858   8.046   4.196   1.418
16539WAT     H149859   8.051   4.102   1.385
16539WAT     H249860   8.015   4.256   1.344
16540WAT      O49861   8.026   6.621   2.636
16540WAT     H149862   7.986   6.712   2.623
16540WAT     H249863   7.953   6.557   2.662
16541WAT      O49864   5.072   9.614   4.593
16541WAT     H149865   5.164   9.651   4.580
16541WAT     H249866   5.007   9.667   4.537
16542WAT      O49867   9.193   3.771   8.822
16542WAT     H149868   9.247   3.807   8.898
16542WAT     H249869   9.213   3.825   8.740
16543WAT      O49870   0.081   0.652   7.750
16543WAT     H149871  -0.002   0.600   7.772
16543WAT     H249872   0.160   0.609   7.794
16544WAT      O49873   7.904   6.492   6.174
16544WAT     H149874   7.906   6.392   6.175
16544WAT     H249875   7.861   6.525   6.257
16545WAT      O49876   4.155   4.883   2.554
16545WAT     H149877   4.226   4.947   2.584
16545WAT     H249878   4.197   4.794   2.535
16546WAT      O49879   0.046   5.995   6.435
16546WAT     H149880   0.094   6.064   6.489
16546WAT     H249881  -0.018   6.039   6.373
16547WAT      O49882   5.347   8.828   5.000
16547WAT     H149883   5.344   8.917   5.044
16547WAT     H249884   5.404   8.766   5.053
16548WAT      O49885   9.658   6.020   1.713
16548WAT     H149886   9.688   6.115   1.710
16548WAT     H249887   9.583   6.007   1.649
16549WAT      O49888   5.251   7.067   3.842
16549WAT     H149889   5.245   7.157   3.886
16549WAT     H249890   5.159   7.033   3.823
16550WAT      O49891   3.698   9.172   6.609
16550WAT     H149892   3.705   9.191   6.511
16550WAT     H249893   3.737   9.082   6.628
16551WAT      O49894   1.211   6.784   5.599
16551WAT     H149895   1.142   6.825   5.659
16551WAT     H249896   1.207   6.684   5.608
16552WAT      O49897   1.110   3.622   7.443
16552WAT     H149898   1.179   3.646   7.375
16552WAT     H249899   1.079   3.705   7.489
16553WAT      O49900   2.486   3.653   5.982
16553WAT     H149901   2.460   3.721   5.913
16553WAT     H249902   2.586   3.644   5.984
16554WAT      O49903   6.670   5.860   2.045
16554WAT     H149904   6.626   5.909   1.969
16554WAT     H249905   6.736   5.795   2.008
16555WAT      O49906   4.510   8.231   0.120
16555WAT     H149907   4.548   8.253   0.030
16555WAT     H249908   4.490   8.133   0.124
16556WAT      O49909   4.182   1.289   0.256
16556WAT     H149910   4.236   1.374   0.258
16556WAT     H249911   4.086   1.311   0.238
16557WAT      O49912   1.968   7.362   1.859
16557WAT     H149913   1.936   7.344   1.766
16557WAT     H249914   1.931   7.450   1.890
16558WAT      O49915   1.817   0.929   2.300
16558WAT     H149916   1.868   1.005   2.259
16558WAT     H249917   1.733   0.964   2.341
16559WAT      O49918   4.102   6.597   9.521
16559WAT     H149919   4.011   6.579   9.560
16559WAT     H249920   4.153   6.511   9.514
16560WAT      O49921   7.428   3.249   6.189
16560WAT     H149922   7.350   3.275   6.247
16560WAT     H249923   7.511   3.291   6.224
16561WAT      O49924   6.503   3.426   9.253
16561WAT     H149925   6.578   3.368   9.284
16561WAT     H249926   6.420   3.369   9.243
16562WAT      O49927   4.466   0.300   3.960
16562WAT     H149928   4.397   0.369   3.982
16562WAT     H249929   4.504   0.320   3.869
16563WAT      O49930   0.898   8.119   4.280
16563WAT     H149931   0.927   8.062   4.204
16563WAT     H249932   0.976   8.171   4.314
16564WAT      O49933   3.280   0.590   1.036
16564WAT     H149934   3.200   0.542   1.073
16564WAT     H249935   3.274   0.686   1.061
16565WAT      O49936   1.575   7.197   3.556
16565WAT     H149937   1.552   7.276   3.499
16565WAT     H249938   1.547   7.113   3.509
16566WAT      O49939   5.529   4.451   5.728
16566WAT     H149940   5.623   4.419   5.738
16566WAT     H249941   5.467   4.372   5.731
16567WAT      O49942   2.736   7.182   1.704
16567WAT     H149943   2.652   7.234   1.718
16567WAT     H249944   2.807   7.217   1.766
16568WAT      O49945   2.829   3.975   4.810
16568WAT     H149946   2.732   3.951   4.807
16568WAT     H249947   2.847   4.035   4.888
16569WAT      O49948   5.169   1.107   4.794
16569WAT     H149949   5.233   1.145   4.728
16569WAT     H249950   5.079   1.150   4.782
16570WAT      O49951   2.470   4.475   8.326
16570WAT     H149952   2.538   4.402   8.322
16570WAT     H249953   2.388   4.446   8.276
16571WAT      O49954   2.365   6.025   8.074
16571WAT     H149955   2.283   6.081   8.084
16571WAT     H249956   2.358   5.944   8.132
16572WAT      O49957   9.092   4.534   2.944
16572WAT     H149958   9.175   4.482   2.964
16572WAT     H249959   9.023   4.473   2.904
16573WAT      O49960   9.525   1.229   8.364
16573WAT     H149961   9.458   1.225   8.438
16573WAT     H249962   9.506   1.309   8.306
16574WAT      O49963   7.706   1.920   3.869
16574WAT     H149964   7.621   1.972   3.869
16574WAT     H249965   7.727   1.891   3.963
16575WAT      O49966   3.274   0.642   9.399
16575WAT     H149967   3.258   0.648   9.301
16575WAT     H249968   3.353   0.585   9.417
16576WAT      O49969   1.936   1.392   7.886
16576WAT     H149970   1.842   1.378   7.919
16576WAT     H249971   1.941   1.369   7.789
16577WAT      O49972   0.826   4.067   1.534
16577WAT     H149973   0.743   4.023   1.499
16577WAT     H249974   0.838   4.043   1.630
16578WAT      O49975   2.590   8.875   1.960
16578WAT     H149976   2.587   8.865   2.060
16578WAT     H249977   2.671   8.828   1.925
16579WAT      O49978   9.711   5.539   4.374
16579WAT     H149979   9.780   5.609   4.353
16579WAT     H249980   9.664   5.564   4.459
16580WAT      O49981   7.006   9.672   0.042
16580WAT     H149982   7.010   9.739  -0.033
16580WAT     H249983   6.985   9.719   0.127
16581WAT      O49984   4.036   1.528   3.642
16581WAT     H149985   4.077   1.553   3.729
16581WAT     H249986   4.108   1.508   3.575
16582WAT      O49987   5.692   4.837   6.797
16582WAT     H149988   5.775   4.851   6.851
16582WAT     H249989   5.638   4.921   6.798
16583WAT      O49990   8.385   3.157   1.405
16583WAT     H149991   8.372   3.061   1.431
16583WAT     H249992   8.483   3.177   1.398
16584WAT      O49993   1.272   9.729   5.336
16584WAT     H149994   1.311   9.795   5.400
16584WAT     H249995   1.255   9.774   5.248
16585WAT      O49996   8.922   8.021   0.087
16585WAT     H149997   8.939   7.952   0.158
16585WAT     H249998   8.863   7.982   0.016
16586WAT      O49999   2.213   5.942   4.651
16586WAT     H150000   2.255   5.894   4.573
16586WAT     H250001   2.154   6.015   4.617
16587WAT      O50002   6.743   7.552   5.137
16587WAT     H150003   6.655   7.554   5.088
16587WAT     H250004   6.772   7.458   5.149
16588WAT      O50005   8.608   6.245   5.072
16588WAT     H150006   8.603   6.287   4.981
16588WAT     H250007   8.520   6.204   5.094
16589WAT      O50008   2.300   2.051   1.013
16589WAT     H150009   2.371   2.040   0.944
16589WAT     H250010   2.338   2.028   1.103
16590WAT      O50011   3.891   4.854   7.683
16590WAT     H150012   3.971   4.880   7.738
16590WAT     H250013   3.907   4.877   7.587
16591WAT      O50014   3.373   3.159   2.578
16591WAT     H150015   3.456   3.113   2.608
16591WAT     H250016   3.376   3.173   2.479
16592WAT      O50017   1.018   5.398   3.844
16592WAT     H150018   1.035   5.416   3.747
16592WAT     H250019   0.926   5.427   3.869
16593WAT      O50020   8.232   0.570   3.734
16593WAT     H150021   8.256   0.666   3.719
16593WAT     H250022   8.299   0.528   3.795
16594WAT      O50023   1.487   3.134   2.496
16594WAT     H150024   1.400   3.168   2.461
16594WAT     H250025   1.495   3.158   2.593
16595WAT      O50026   1.925   7.103   3.102
16595WAT     H150027   1.949   7.016   3.061
16595WAT     H250028   1.940   7.177   3.036
16596WAT      O50029   5.858   9.212   2.737
16596WAT     H150030   5.876   9.126   2.784
16596WAT     H250031   5.816   9.192   2.648
16597WAT      O50032   6.875   0.411   4.895
16597WAT     H150033   6.882   0.434   4.992
16597WAT     H250034   6.819   0.479   4.848
16598WAT      O50035   6.511   7.060   0.427
16598WAT     H150036   6.443   7.128   0.399
16598WAT     H250037   6.468   6.992   0.486
16599WAT      O50038   0.107   4.720   7.151
16599WAT     H150039   0.111   4.798   7.214
16599WAT     H250040   0.199   4.685   7.136
16600WAT      O50041   1.763   9.248   5.727
16600WAT     H150042   1.847   9.232   5.675
16600WAT     H250043   1.775   9.213   5.820
16601WAT      O50044   9.812   5.558   7.636
16601WAT     H150045   9.815   5.480   7.698
16601WAT     H250046   9.903   5.573   7.597
16602WAT      O50047   3.057   0.653   0.307
16602WAT     H150048   3.002   0.654   0.223
16602WAT     H250049   3.032   0.574   0.362
16603WAT      O50050   9.018   2.616   3.370
16603WAT     H150051   9.066   2.547   3.424
16603WAT     H250052   8.954   2.666   3.428
16604WAT      O50053   3.441   2.284   9.808
16604WAT     H150054   3.470   2.309   9.716
16604WAT     H250055   3.376   2.352   9.843
16605WAT      O50056   7.846   0.026   3.355
16605WAT     H150057   7.852   0.060   3.449
16605WAT     H250058   7.799  -0.062   3.355
16606WAT      O50059   9.241   6.393   4.072
16606WAT     H150060   9.264   6.300   4.101
16606WAT     H250061   9.191   6.391   3.986
16607WAT      O50062   7.159   3.078   7.012
16607WAT     H150063   7.079   3.043   7.062
16607WAT     H250064   7.224   3.003   6.996
16608WAT      O50065   2.679   9.721   3.807
16608WAT     H150066   2.760   9.685   3.855
16608WAT     H250067   2.599   9.665   3.830
16609WAT      O50068   3.609   3.236   0.758
16609WAT     H150069   3.516   3.215   0.728
16609WAT     H250070   3.612   3.327   0.798
16610WAT      O50071   6.931   4.876   8.867
16610WAT     H150072   6.891   4.924   8.788
16610WAT     H250073   6.893   4.914   8.951
16611WAT      O50074   3.833   0.915   9.381
16611WAT     H150075   3.823   0.963   9.293
16611WAT     H250076   3.851   0.818   9.364
16612WAT      O50077   0.073   8.868   8.840
16612WAT     H150078  -0.002   8.931   8.815
16612WAT     H250079   0.051   8.823   8.926
16613WAT      O50080   3.105   1.252   7.129
16613WAT     H150081   3.030   1.287   7.073
16613WAT     H250082   3.148   1.328   7.178
16614WAT      O50083   3.351   3.137   6.662
16614WAT     H150084   3.400   3.157   6.577
16614WAT     H250085   3.387   3.054   6.703
16615WAT      O50086   4.847   2.289   2.384
16615WAT     H150087   4.836   2.192   2.407
16615WAT     H250088   4.929   2.301   2.328
16616WAT      O50089   1.436   1.802   0.575
16616WAT     H150090   1.418   1.706   0.553
16616WAT     H250091   1.532   1.812   0.602
16617WAT      O50092   6.259   3.948   9.180
16617WAT     H150093   6.184   3.911   9.126
16617WAT     H250094   6.232   3.954   9.276
16618WAT      O50095   3.831   0.028   1.850
16618WAT     H150096   3.826   0.004   1.946
16618WAT     H250097   3.857  -0.052   1.796
16619WAT      O50098   6.806   1.282   8.487
16619WAT     H150099   6.754   1.304   8.570
16619WAT     H250100   6.831   1.185   8.489
16620WAT      O50101   9.272   8.798   2.816
16620WAT     H150102   9.258   8.838   2.907
16620WAT     H250103   9.239   8.703   2.817
16621WAT      O50104   5.713   3.416   8.844
16621WAT     H150105   5.715   3.366   8.757
16621WAT     H250106   5.632   3.389   8.896
16622WAT      O50107   0.967   7.647   6.863
16622WAT     H150108   1.030   7.642   6.941
16622WAT     H250109   0.938   7.742   6.851
16623WAT      O50110   3.345   1.245   3.161
16623WAT     H150111   3.329   1.177   3.233
16623WAT     H250112   3.263   1.301   3.150
16624WAT      O50113   0.628   6.668   3.004
16624WAT     H150114   0.681   6.705   2.927
16624WAT     H250115   0.687   6.658   3.084
16625WAT      O50116   2.399   7.166   4.418
16625WAT     H150117   2.471   7.200   4.479
16625WAT     H250118   2.440   7.111   4.345
16626WAT      O50119   0.272   1.412   1.879
16626WAT     H150120   0.316   1.342   1.823
16626WAT     H250121   0.173   1.401   1.874
16627WAT      O50122   5.973   6.857   3.512
16627WAT     H150123   6.021   6.823   3.432
16627WAT     H250124   5.892   6.909   3.483
16628WAT      O50125   2.385   4.399   5.006
16628WAT     H150126   2.358   4.427   5.098
16628WAT     H250127   2.485   4.399   5.000
16629WAT      O50128   7.294   7.202   9.145
16629WAT     H150129   7.356   7.280   9.143
16629WAT     H250130   7.200   7.234   9.151
16630WAT      O50131   2.198   8.723   4.165
16630WAT     H150132   2.151   8.737   4.077
16630WAT     H250133   2.137   8.676   4.228
16631WAT      O50134   3.594   5.648   5.629
16631WAT     H150135   3.616   5.628   5.724
16631WAT     H250136   3.633   5.736   5.603
16632WAT      O50137   8.985   3.092   9.199
16632WAT     H150138   9.017   3.006   9.159
16632WAT     H250139   9.041   3.115   9.278
16633WAT      O50140   2.191   2.638   0.331
16633WAT     H150141   2.145   2.604   0.413
16633WAT     H250142   2.182   2.737   0.326
16634WAT      O50143   9.570   0.862   5.549
16634WAT     H150144   9.609   0.947   5.515
16634WAT     H250145   9.576   0.860   5.649
16635WAT      O50146   0.289   3.346   7.640
16635WAT     H150147   0.377   3.298   7.632
16635WAT     H250148   0.268   3.359   7.737
16636WAT      O50149   2.668   7.267   8.803
16636WAT     H150150   2.666   7.328   8.883
16636WAT     H250151   2.720   7.311   8.730
16637WAT      O50152   9.472   1.421   2.174
16637WAT     H150153   9.389   1.474   2.192
16637WAT     H250154   9.465   1.332   2.219
16638WAT      O50155   9.080   6.185   7.994
16638WAT     H150156   9.094   6.254   8.065
16638WAT     H250157   8.990   6.143   8.006
16639WAT      O50158   7.649   8.398   8.496
16639WAT     H150159   7.729   8.376   8.440
16639WAT     H250160   7.596   8.315   8.513
16640WAT      O50161   2.956   6.859   1.264
16640WAT     H150162   2.955   6.867   1.364
16640WAT     H250163   2.993   6.769   1.239
16641WAT      O50164   0.627   9.372   8.072
16641WAT     H150165   0.578   9.427   8.004
16641WAT     H250166   0.686   9.432   8.127
16642WAT      O50167   1.450   3.321   7.252
16642WAT     H150168   1.379   3.322   7.182
16642WAT     H250169   1.488   3.413   7.262
16643WAT      O50170   0.963   0.151   6.967
16643WAT     H150171   1.016   0.112   7.043
16643WAT     H250172   0.976   0.095   6.885
16644WAT      O50173   0.948   2.392   5.570
16644WAT     H150174   0.914   2.298   5.572
16644WAT     H250175   0.943   2.427   5.477
16645WAT      O50176   6.154   0.536   6.837
16645WAT     H150177   6.249   0.566   6.834
16645WAT     H250178   6.094   0.615   6.833
16646WAT      O50179   1.357   1.024   7.911
16646WAT     H150180   1.401   1.064   7.992
16646WAT     H250181   1.378   1.081   7.831
16647WAT      O50182   6.399   2.825   2.991
16647WAT     H150183   6.402   2.775   2.905
16647WAT     H250184   6.378   2.762   3.066
16648WAT      O50185   2.719   8.955   6.862
16648WAT     H150186   2.761   8.991   6.946
16648WAT     H250187   2.773   8.879   6.827
16649WAT      O50188   9.278   5.424   1.720
16649WAT     H150189   9.281   5.384   1.628
16649WAT     H250190   9.197   5.482   1.728
16650WAT      O50191   9.687   5.839   6.390
16650WAT     H150192   9.779   5.848   6.426
16650WAT     H250193   9.645   5.929   6.379
16651WAT      O50194   4.562   2.512   3.112
16651WAT     H150195   4.487   2.455   3.079
16651WAT     H250196   4.536   2.608   3.107
16652WAT      O50197   4.887   9.371   4.168
16652WAT     H150198   4.845   9.459   4.145
16652WAT     H250199   4.965   9.385   4.228
16653WAT      O50200   6.011   6.945   7.496
16653WAT     H150201   6.003   6.891   7.580
16653WAT     H250202   6.007   7.042   7.519
16654WAT      O50203   6.739   8.684   5.581
16654WAT     H150204   6.774   8.766   5.627
16654WAT     H250205   6.646   8.664   5.614
16655WAT      O50206   8.087   5.294   5.372
16655WAT     H150207   8.171   5.319   5.323
16655WAT     H250208   8.026   5.373   5.375
16656WAT      O50209   5.839   8.697   4.635
16656WAT     H150210   5.778   8.624   4.603
16656WAT     H250211   5.820   8.716   4.731
16657WAT      O50212   5.233   3.883   9.853
16657WAT     H150213   5.195   3.827   9.779
16657WAT     H250214   5.242   3.828   9.936
16658WAT      O50215   7.252   0.026   3.421
16658WAT     H150216   7.209   0.116   3.423
16658WAT     H250217   7.351   0.036   3.410
16659WAT      O50218   9.756   1.958   5.216
16659WAT     H150219   9.813   1.928   5.292
16659WAT     H250220   9.814   1.983   5.138
16660WAT      O50221   1.519   0.007   9.058
16660WAT     H150222   1.531  -0.054   8.979
16660WAT     H250223   1.436  -0.019   9.108
16661WAT      O50224   3.394   3.520   3.362
16661WAT     H150225   3.336   3.539   3.441
16661WAT     H250226   3.406   3.421   3.353
16662WAT      O50227   2.060   7.646   5.490
16662WAT     H150228   2.138   7.698   5.454
16662WAT     H250229   2.087   7.601   5.575
16663WAT      O50230   1.068   7.318   4.023
16663WAT     H150231   1.137   7.329   4.094
16663WAT     H250232   1.086   7.234   3.972
16664WAT      O50233   3.469   1.304   9.814
16664WAT     H150234   3.480   1.341   9.906
16664WAT     H250235   3.521   1.219   9.806
16665WAT      O50236   5.705   7.557   5.865
16665WAT     H150237   5.739   7.463   5.873
16665WAT     H250238   5.622   7.568   5.919
16666WAT      O50239   4.845   5.369   8.528
16666WAT     H150240   4.895   5.313   8.594
16666WAT     H250241   4.749   5.375   8.555
16667WAT      O50242   1.241   6.245   1.809
16667WAT     H150243   1.229   6.290   1.897
16667WAT     H250244   1.319   6.183   1.813
16668WAT      O50245   4.134   4.978   9.302
16668WAT     H150246   4.227   4.990   9.268
16668WAT     H250247   4.071   5.032   9.245
16669WAT      O50248   1.135   0.716   9.786
16669WAT     H150249   1.184   0.760   9.862
16669WAT     H250250   1.201   0.672   9.726
16670WAT      O50251   8.960   1.901   4.272
16670WAT     H150252   8.931   1.816   4.316
16670WAT     H250253   8.885   1.938   4.217
16671WAT      O50254   8.763   8.975   0.497
16671WAT     H150255   8.689   8.963   0.431
16671WAT     H250256   8.777   8.890   0.547
16672WAT      O50257   0.425   4.446   8.324
16672WAT     H150258   0.373   4.418   8.405
16672WAT     H250259   0.369   4.435   8.243
16673WAT      O50260   0.184   2.966   5.698
16673WAT     H150261   0.163   2.962   5.600
16673WAT     H250262   0.260   2.905   5.718
16674WAT      O50263   6.321   7.461   2.841
16674WAT     H150264   6.281   7.509   2.762
16674WAT     H250265   6.326   7.363   2.821
16675WAT      O50266   6.294   2.373   6.844
16675WAT     H150267   6.289   2.453   6.904
16675WAT     H250268   6.272   2.401   6.750
16676WAT      O50269   7.110   9.154   0.485
16676WAT     H150270   7.202   9.174   0.518
16676WAT     H250271   7.071   9.236   0.443
16677WAT      O50272   9.708   9.701   8.106
16677WAT     H150273   9.799   9.660   8.110
16677WAT     H250274   9.704   9.765   8.030
16678WAT      O50275   9.830   0.671   5.193
16678WAT     H150276   9.826   0.663   5.093
16678WAT     H250277   9.923   0.652   5.224
16679WAT      O50278   7.556   9.025   9.842
16679WAT     H150279   7.654   9.012   9.857
16679WAT     H250280   7.507   9.015   9.929
16680WAT      O50281   4.231   3.543   5.456
16680WAT     H150282   4.200   3.611   5.522
16680WAT     H250283   4.323   3.566   5.425
16681WAT      O50284   8.489   4.736   5.974
16681WAT     H150285   8.457   4.759   6.066
16681WAT     H250286   8.411   4.717   5.916
16682WAT      O50287   7.418   6.188   9.091
16682WAT     H150288   7.439   6.249   9.014
16682WAT     H250289   7.331   6.143   9.075
16683WAT      O50290   6.219   2.884   8.740
16683WAT     H150291   6.282   2.873   8.816
16683WAT     H250292   6.131   2.841   8.763
16684WAT      O50293   8.976   3.481   6.332
16684WAT     H150294   8.962   3.447   6.425
16684WAT     H250295   8.959   3.580   6.330
16685WAT      O50296   8.716   4.117   5.398
16685WAT     H150297   8.681   4.023   5.395
16685WAT     H250298   8.639   4.181   5.402
16686WAT      O50299   0.808   1.205   9.022
16686WAT     H150300   0.758   1.132   9.068
16686WAT     H250301   0.754   1.240   8.945
16687WAT      O50302   2.139   4.620   6.868
16687WAT     H150303   2.054   4.664   6.898
16687WAT     H250304   2.204   4.618   6.943
16688WAT      O50305   9.088   8.482   9.241
16688WAT     H150306   9.074   8.384   9.225
16688WAT     H250307   9.136   8.522   9.163
16689WAT      O50308   4.198   4.043   6.542
16689WAT     H150309   4.242   4.115   6.595
16689WAT     H250310   4.142   3.986   6.603
16690WAT      O50311   3.284   7.823   8.509
16690WAT     H150312   3.293   7.752   8.578
16690WAT     H250313   3.249   7.783   8.424
16691WAT      O50314   9.838   5.807   0.800
16691WAT     H150315   9.889   5.722   0.809
16691WAT     H250316   9.755   5.802   0.855
16692WAT      O50317   7.040   9.731   7.453
16692WAT     H150318   6.952   9.757   7.493
16692WAT     H250319   7.043   9.758   7.357
16693WAT      O50320   9.384   9.036   4.084
16693WAT     H150321   9.332   8.988   4.154
16693WAT     H250322   9.345   9.017   3.994
16694WAT      O50323   7.212   2.468   5.617
16694WAT     H150324   7.306   2.443   5.593
16694WAT     H250325   7.150   2.443   5.542
16695WAT      O50326   0.103   7.300   0.116
16695WAT     H150327   0.112   7.356   0.034
16695WAT     H250328   0.139   7.349   0.194
16696WAT      O50329   1.169   2.529   8.000
16696WAT     H150330   1.231   2.518   7.923
16696WAT     H250331   1.179   2.452   8.063
16697WAT      O50332   5.753   7.261   1.748
16697WAT     H150333   5.812   7.314   1.687
16697WAT     H250334   5.718   7.320   1.821
16698WAT      O50335   8.470   6.400   0.803
16698WAT     H150336   8.544   6.359   0.854
16698WAT     H250337   8.392   6.416   0.863
16699WAT      O50338   6.381   2.767   8.021
16699WAT     H150339   6.320   2.789   8.097
16699WAT     H250340   6.360   2.826   7.944
16700WAT      O50341   8.652   1.026   0.172
16700WAT     H150342   8.680   1.111   0.127
16700WAT     H250343   8.612   1.048   0.261
16701WAT      O50344   3.943   7.319   0.575
16701WAT     H150345   3.857   7.268   0.579
16701WAT     H250346   3.940   7.393   0.641
16702WAT      O50347   5.450   9.152   2.715
16702WAT     H150348   5.478   9.132   2.621
16702WAT     H250349   5.521   9.124   2.778
16703WAT      O50350   7.921   8.817   4.081
16703WAT     H150351   7.938   8.772   3.993
16703WAT     H250352   7.903   8.914   4.066
16704WAT      O50353   1.919   3.334   2.037
16704WAT     H150354   1.885   3.428   2.046
16704WAT     H250355   1.846   3.271   2.064
16705WAT      O50356   7.849   5.527   8.438
16705WAT     H150357   7.805   5.468   8.506
16705WAT     H250358   7.791   5.606   8.419
16706WAT      O50359   3.529   6.577   1.580
16706WAT     H150360   3.449   6.599   1.636
16706WAT     H250361   3.599   6.533   1.637
16707WAT      O50362   1.769   3.356   4.470
16707WAT     H150363   1.695   3.423   4.472
16707WAT     H250364   1.741   3.274   4.520
16708WAT      O50365   1.053   7.047   4.907
16708WAT     H150366   1.078   7.109   4.832
16708WAT     H250367   1.134   7.025   4.960
16709WAT      O50368   6.128   8.616   8.370
16709WAT     H150369   6.034   8.608   8.336
16709WAT     H250370   6.172   8.695   8.328
16710WAT      O50371   4.351   1.401   7.690
16710WAT     H150372   4.368   1.486   7.640
16710WAT     H250373   4.437   1.352   7.701
16711WAT      O50374   8.222   9.545   4.024
16711WAT     H150375   8.309   9.594   4.025
16711WAT     H250376   8.222   9.478   3.950
16712WAT      O50377   8.109   4.997   1.293
16712WAT     H150378   8.063   4.977   1.207
16712WAT     H250379   8.113   4.914   1.349
16713WAT      O50380   1.418   4.862   6.680
16713WAT     H150381   1.464   4.928   6.621
16713WAT     H250382   1.335   4.903   6.717
16714WAT      O50383   0.747   6.687   3.241
16714WAT     H150384   0.778   6.598   3.276
16714WAT     H250385   0.724   6.746   3.318
16715WAT      O50386   0.700   1.289   5.438
16715WAT     H150387   0.636   1.252   5.371
16715WAT     H250388   0.786   1.313   5.391
16716WAT      O50389   2.399   7.055   2.363
16716WAT     H150390   2.395   7.102   2.451
16716WAT     H250391   2.385   7.122   2.290
16717WAT      O50392   5.611   3.113   0.207
16717WAT     H150393   5.550   3.097   0.130
16717WAT     H250394   5.679   3.040   0.211
16718WAT      O50395   3.851   2.469   5.877
16718WAT     H150396   3.781   2.409   5.916
16718WAT     H250397   3.860   2.551   5.934
16719WAT      O50398   3.747   6.261   7.965
16719WAT     H150399   3.807   6.184   7.942
16719WAT     H250400   3.683   6.232   8.036
16720WAT      O50401   5.818   9.726   4.578
16720WAT     H150402   5.913   9.725   4.610
16720WAT     H250403   5.763   9.667   4.637
16721WAT      O50404   0.346   4.056   7.375
16721WAT     H150405   0.283   4.134   7.386
16721WAT     H250406   0.300   3.973   7.407
16722WAT      O50407   3.539   9.582   2.976
16722WAT     H150408   3.568   9.631   2.894
16722WAT     H250409   3.618   9.570   3.037
16723WAT      O50410   5.746   8.371   9.242
16723WAT     H150411   5.836   8.331   9.229
16723WAT     H250412   5.749   8.468   9.221
16724WAT      O50413   8.985   2.482   7.445
16724WAT     H150414   8.932   2.458   7.526
16724WAT     H250415   9.030   2.570   7.459
16725WAT      O50416   8.081   1.721   3.157
16725WAT     H150417   8.158   1.696   3.215
16725WAT     H250418   7.999   1.731   3.214
16726WAT      O50419   4.635   4.360   3.393
16726WAT     H150420   4.591   4.294   3.332
16726WAT     H250421   4.587   4.361   3.481
16727WAT      O50422   6.058   5.087   2.957
16727WAT     H150423   6.009   5.106   3.042
16727WAT     H250424   6.139   5.031   2.977
16728WAT      O50425   2.097   4.468   6.605
16728WAT     H150426   2.064   4.374   6.612
16728WAT     H250427   2.079   4.516   6.691
16729WAT      O50428   2.135   9.119   2.634
16729WAT     H150429   2.224   9.073   2.632
16729WAT     H250430   2.148   9.218   2.627
16730WAT      O50431   8.943   8.314   3.519
16730WAT     H150432   9.038   8.291   3.537
16730WAT     H250433   8.888   8.231   3.517
16731WAT      O50434   1.831   4.023   7.729
16731WAT     H150435   1.848   3.952   7.661
16731WAT     H250436   1.749   4.074   7.704
16732WAT      O50437   3.743   5.512   8.592
16732WAT     H150438   3.779   5.451   8.662
16732WAT     H250439   3.810   5.522   8.518
16733WAT      O50440   7.932   6.136   4.039
16733WAT     H150441   7.912   6.047   3.997
16733WAT     H250442   7.940   6.125   4.138
16734WAT      O50443   0.549   1.041   9.798
16734WAT     H150444   0.552   1.110   9.725
16734WAT     H250445   0.629   1.052   9.857
16735WAT      O50446   0.349   3.692   4.837
16735WAT     H150447   0.418   3.728   4.774
16735WAT     H250448   0.384   3.608   4.879
16736WAT      O50449   1.022   5.530   7.801
16736WAT     H150450   1.088   5.465   7.764
16736WAT     H250451   1.058   5.623   7.792
16737WAT      O50452   8.827   2.976   2.278
16737WAT     H150453   8.755   2.980   2.208
16737WAT     H250454   8.787   2.986   2.369
16738WAT      O50455   9.645   5.594   4.076
16738WAT     H150456   9.625   5.575   3.979
16738WAT     H250457   9.647   5.508   4.127
16739WAT      O50458   5.756   0.684   1.341
16739WAT     H150459   5.691   0.686   1.265
16739WAT     H250460   5.819   0.608   1.330
16740WAT      O50461   6.405   9.818   0.613
16740WAT     H150462   6.482   9.797   0.673
16740WAT     H250463   6.330   9.753   0.630
16741WAT      O50464   0.676   6.978   7.236
16741WAT     H150465   0.634   7.001   7.148
16741WAT     H250466   0.605   6.975   7.307
16742WAT      O50467   3.534   5.218   7.158
16742WAT     H150468   3.629   5.212   7.189
16742WAT     H250469   3.508   5.133   7.111
16743WAT      O50470   0.554   2.045   7.096
16743WAT     H150471   0.575   2.143   7.103
16743WAT     H250472   0.459   2.029   7.121
16744WAT      O50473   4.765   6.059   7.446
16744WAT     H150474   4.758   6.001   7.365
16744WAT     H250475   4.732   6.151   7.424
16745WAT      O50476   7.287   0.211   7.009
16745WAT     H150477   7.304   0.115   7.030
16745WAT     H250478   7.369   0.251   6.968
16746WAT      O50479   2.242   7.375   1.802
16746WAT     H150480   2.291   7.456   1.834
16746WAT     H250481   2.146   7.381   1.829
16747WAT      O50482   8.975   1.418   2.169
16747WAT     H150483   9.063   1.437   2.125
16747WAT     H250484   8.935   1.503   2.203
16748WAT      O50485   5.102   1.484   3.287
16748WAT     H150486   5.198   1.468   3.266
16748WAT     H250487   5.089   1.579   3.316
16749WAT      O50488   2.355   7.409   3.156
16749WAT     H150489   2.313   7.323   3.183
16749WAT     H250490   2.385   7.402   3.061
16750WAT      O50491   8.274   5.637   0.577
16750WAT     H150492   8.276   5.664   0.674
16750WAT     H250493   8.180   5.635   0.545
16751WAT      O50494   1.670   1.897   6.929
16751WAT     H150495   1.640   1.886   7.023
16751WAT     H250496   1.769   1.879   6.923
16752WAT      O50497   2.851   2.047   1.530
16752WAT     H150498   2.759   2.008   1.525
16752WAT     H250499   2.889   2.032   1.621
16753WAT      O50500   8.879   7.948   4.199
16753WAT     H150501   8.969   7.949   4.243
16753WAT     H250502   8.818   8.011   4.248
16754WAT      O50503   6.022   5.927   9.771
16754WAT     H150504   6.093   5.883   9.826
16754WAT     H250505   6.005   6.019   9.804
16755WAT      O50506   3.026   3.409   5.294
16755WAT     H150507   2.951   3.437   5.234
16755WAT     H250508   3.040   3.311   5.287
16756WAT      O50509   1.370   7.595   1.976
16756WAT     H150510   1.410   7.590   1.885
16756WAT     H250511   1.349   7.691   1.998
16757WAT      O50512   4.789   1.663   5.930
16757WAT     H150513   4.876   1.705   5.903
16757WAT     H250514   4.801   1.564   5.937
16758WAT      O50515   8.514   9.764   3.969
16758WAT     H150516   8.596   9.812   3.939
16758WAT     H250517   8.527   9.730   4.063
16759WAT      O50518   7.427   6.825   4.487
16759WAT     H150519   7.336   6.847   4.450
16759WAT     H250520   7.497   6.866   4.429
16760WAT      O50521   2.619   0.309   1.107
16760WAT     H150522   2.681   0.269   1.175
16760WAT     H250523   2.671   0.332   1.025
16761WAT      O50524   4.775   8.399   0.073
16761WAT     H150525   4.778   8.311   0.025
16761WAT     H250526   4.863   8.446   0.063
16762WAT      O50527   9.714   8.099   0.408
16762WAT     H150528   9.768   8.177   0.440
16762WAT     H250529   9.641   8.131   0.348
16763WAT      O50530   5.629   0.982   1.545
16763WAT     H150531   5.596   0.919   1.475
16763WAT     H250532   5.630   1.075   1.509
16764WAT      O50533   9.754   3.900   1.074
16764WAT     H150534   9.807   3.912   0.989
16764WAT     H250535   9.677   3.964   1.074
16765WAT      O50536   3.139   5.462   0.306
16765WAT     H150537   3.203   5.433   0.234
16765WAT     H250538   3.101   5.381   0.350
16766WAT      O50539   3.206   5.430   8.410
16766WAT     H150540   3.168   5.512   8.366
16766WAT     H250541   3.302   5.420   8.383
16767WAT      O50542   9.344   6.115   4.429
16767WAT     H150543   9.400   6.045   4.475
16767WAT     H250544   9.250   6.108   4.460
16768WAT      O50545   2.669   4.793   5.031
16768WAT     H150546   2.730   4.774   5.107
16768WAT     H250547   2.720   4.838   4.957
16769WAT      O50548   6.401   7.982   4.337
16769WAT     H150549   6.444   8.065   4.302
16769WAT     H250550   6.453   7.902   4.305
16770WAT      O50551   0.541   4.701   2.903
16770WAT     H150552   0.625   4.708   2.956
16770WAT     H250553   0.562   4.670   2.810
16771WAT      O50554   8.937   1.196   9.759
16771WAT     H150555   9.024   1.150   9.741
16771WAT     H250556   8.898   1.227   9.672
16772WAT      O50557   8.457   2.946   5.687
16772WAT     H150558   8.514   2.865   5.692
16772WAT     H250559   8.413   2.962   5.776
16773WAT      O50560   5.699   5.509   0.882
16773WAT     H150561   5.698   5.445   0.806
16773WAT     H250562   5.605   5.529   0.910
16774WAT      O50563   7.900   0.239   1.014
16774WAT     H150564   7.944   0.323   1.045
16774WAT     H250565   7.942   0.160   1.059
16775WAT      O50566   5.730   2.892   4.722
16775WAT     H150567   5.711   2.945   4.805
16775WAT     H250568   5.826   2.904   4.696
16776WAT      O50569   3.223   0.548   3.280
16776WAT     H150570   3.133   0.516   3.310
16776WAT     H250571   3.273   0.472   3.239
16777WAT      O50572   1.967   1.389   3.795
16777WAT     H150573   2.033   1.325   3.835
16777WAT     H250574   1.946   1.461   3.861
16778WAT      O50575   4.640   3.636   0.624
16778WAT     H150576   4.740   3.629   0.621
16778WAT     H250577   4.602   3.597   0.540
16779WAT      O50578   3.307   6.386   6.959
16779WAT     H150579   3.276   6.292   6.969
16779WAT     H250580   3.343   6.419   7.047
16780WAT      O50581   5.651   5.486   7.429
16780WAT     H150582   5.737   5.498   7.480
16780WAT     H250583   5.584   5.552   7.462
16781WAT      O50584   3.494   4.496   5.524
16781WAT     H150585   3.542   4.507   5.612
16781WAT     H250586   3.433   4.417   5.529
16782WAT      O50587   6.550   2.765   4.586
16782WAT     H150588   6.578   2.812   4.503
16782WAT     H250589   6.494   2.826   4.642
16783WAT      O50590   0.424   5.828   7.072
16783WAT     H150591   0.503   5.875   7.114
16783WAT     H250592   0.453   5.784   6.987
16784WAT      O50593   1.295   9.689   6.958
16784WAT     H150594   1.354   9.749   6.905
16784WAT     H250595   1.245   9.742   7.026
16785WAT      O50596   2.476   3.642   9.576
16785WAT     H150597   2.444   3.550   9.553
16785WAT     H250598   2.517   3.642   9.667
16786WAT      O50599   7.789   2.477   6.439
16786WAT     H150600   7.845   2.452   6.517
16786WAT     H250601   7.786   2.401   6.374
16787WAT      O50602   0.227   8.042   8.317
16787WAT     H150603   0.246   8.098   8.397
16787WAT     H250604   0.287   8.070   8.241
16788WAT      O50605   9.098   4.972   8.119
16788WAT     H150606   9.129   4.948   8.027
16788WAT     H250607   8.998   4.966   8.124
16789WAT      O50608   3.743   0.094   0.598
16789WAT     H150609   3.651   0.120   0.571
16789WAT     H250610   3.780   0.162   0.662
16790WAT      O50611   1.119   2.700   7.625
16790WAT     H150612   1.157   2.792   7.618
16790WAT     H250613   1.021   2.705   7.647
16791WAT      O50614   0.486   0.392   3.249
16791WAT     H150615   0.422   0.468   3.242
16791WAT     H250616   0.467   0.325   3.177
16792WAT      O50617   1.855   2.874   1.256
16792WAT     H150618   1.905   2.934   1.194
16792WAT     H250619   1.815   2.799   1.205
16793WAT      O50620   3.773   2.957   6.594
16793WAT     H150621   3.759   3.052   6.622
16793WAT     H250622   3.821   2.907   6.666
16794WAT      O50623   8.227   2.682   7.574
16794WAT     H150624   8.141   2.632   7.583
16794WAT     H250625   8.295   2.643   7.636
16795WAT      O50626   7.186   1.306   5.787
16795WAT     H150627   7.124   1.279   5.861
16795WAT     H250628   7.156   1.263   5.702
16796WAT      O50629   0.827   0.468   6.689
16796WAT     H150630   0.739   0.430   6.718
16796WAT     H250631   0.894   0.453   6.762
16797WAT      O50632   0.112   3.495   3.400
16797WAT     H150633   0.137   3.398   3.393
16797WAT     H250634   0.194   3.550   3.415
16798WAT      O50635   1.809   3.151   3.406
16798WAT     H150636   1.738   3.093   3.446
16798WAT     H250637   1.837   3.220   3.473
16799WAT      O50638   6.397   0.063   8.657
16799WAT     H150639   6.463   0.003   8.702
16799WAT     H250640   6.323   0.085   8.721
16800WAT      O50641   7.248   8.013   3.239
16800WAT     H150642   7.244   8.092   3.301
16800WAT     H250643   7.300   8.038   3.157
16801WAT      O50644   6.901   3.119   9.735
16801WAT     H150645   6.924   3.037   9.788
16801WAT     H250646   6.804   3.116   9.710
16802WAT      O50647   2.609   4.736   7.783
16802WAT     H150648   2.636   4.810   7.721
16802WAT     H250649   2.565   4.775   7.864
16803WAT      O50650   2.049   4.707   4.084
16803WAT     H150651   2.025   4.676   4.176
16803WAT     H250652   2.058   4.628   4.024
16804WAT      O50653   0.555   3.547   9.715
16804WAT     H150654   0.647   3.559   9.678
16804WAT     H250655   0.543   3.607   9.794
16805WAT      O50656   1.481   2.078   1.892
16805WAT     H150657   1.392   2.089   1.849
16805WAT     H250658   1.477   2.000   1.956
16806WAT      O50659   2.729   0.339   0.866
16806WAT     H150660   2.812   0.385   0.833
16806WAT     H250661   2.678   0.303   0.789
16807WAT      O50662   2.955   7.267   5.500
16807WAT     H150663   3.026   7.269   5.570
16807WAT     H250664   2.987   7.315   5.418
16808WAT      O50665   2.852   8.337   0.700
16808WAT     H150666   2.830   8.264   0.765
16808WAT     H250667   2.783   8.409   0.705
16809WAT      O50668   6.803   8.497   6.721
16809WAT     H150669   6.834   8.483   6.815
16809WAT     H250670   6.814   8.412   6.670
16810WAT      O50671   8.158   4.039   2.013
16810WAT     H150672   8.141   4.085   2.099
16810WAT     H250673   8.074   4.036   1.959
16811WAT      O50674   2.428   6.787   3.329
16811WAT     H150675   2.348   6.757   3.277
16811WAT     H250676   2.398   6.845   3.406
16812WAT      O50677   5.014   7.521   0.489
16812WAT     H150678   5.016   7.527   0.588
16812WAT     H250679   5.047   7.431   0.460
16813WAT      O50680   9.871   7.851   6.615
16813WAT     H150681   9.778   7.872   6.585
16813WAT     H250682   9.879   7.753   6.632
16814WAT      O50683   5.387   9.670   7.323
16814WAT     H150684   5.424   9.638   7.236
16814WAT     H250685   5.367   9.591   7.382
16815WAT      O50686   7.302   4.034   1.381
16815WAT     H150687   7.327   4.016   1.286
16815WAT     H250688   7.323   3.954   1.436
16816WAT      O50689   9.759   3.677   4.468
16816WAT     H150690   9.820   3.755   4.473
16816WAT     H250691   9.812   3.592   4.472
16817WAT      O50692   4.127   2.661   4.183
16817WAT     H150693   4.069   2.696   4.110
16817WAT     H250694   4.123   2.723   4.261
16818WAT      O50695   0.993   1.941   5.763
16818WAT     H150696   1.014   1.923   5.859
16818WAT     H250697   0.921   1.879   5.732
16819WAT      O50698   3.333   0.429   0.104
16819WAT     H150699   3.236   0.452   0.092
16819WAT     H250700   3.379   0.436   0.015
16820WAT      O50701   9.472   0.739   1.608
16820WAT     H150702   9.562   0.779   1.591
16820WAT     H250703   9.478   0.640   1.601
16821WAT      O50704   6.445   4.208   0.518
16821WAT     H150705   6.536   4.222   0.557
16821WAT     H250706   6.438   4.115   0.482
16822WAT      O50707   0.301   1.646   7.552
16822WAT     H150708   0.223   1.664   7.613
16822WAT     H250709   0.332   1.552   7.565
16823WAT      O50710   3.594   4.714   5.144
16823WAT     H150711   3.684   4.756   5.148
16823WAT     H250712   3.550   4.735   5.057
16824WAT      O50713   8.930   7.475   7.997
16824WAT     H150714   8.935   7.572   7.976
16824WAT     H250715   8.884   7.427   7.923
16825WAT      O50716   5.373   5.944   0.591
16825WAT     H150717   5.303   5.901   0.534
16825WAT     H250718   5.420   5.873   0.644
16826WAT      O50719   5.324   0.566   9.747
16826WAT     H150720   5.414   0.581   9.707
16826WAT     H250721   5.323   0.601   9.841
16827WAT      O50722   0.631   2.316   7.130
16827WAT     H150723   0.720   2.271   7.142
16827WAT     H250724   0.640   2.412   7.157
16828WAT      O50725   1.012   6.635   4.751
16828WAT     H150726   0.988   6.722   4.794
16828WAT     H250727   0.998   6.560   4.816
16829WAT      O50728   2.920   8.162   2.912
16829WAT     H150729   2.942   8.252   2.951
16829WAT     H250730   3.005   8.109   2.903
16830WAT      O50731   4.795   0.995   7.657
16830WAT     H150732   4.843   1.073   7.616
16830WAT     H250733   4.857   0.948   7.720
16831WAT      O50734   3.630   5.363   5.271
16831WAT     H150735   3.607   5.269   5.296
16831WAT     H250736   3.700   5.398   5.333
16832WAT      O50737   9.562   3.455   1.627
16832WAT     H150738   9.539   3.515   1.704
16832WAT     H250739   9.623   3.383   1.658
16833WAT      O50740   3.352   7.180   2.115
16833WAT     H150741   3.274   7.231   2.152
16833WAT     H250742   3.360   7.199   2.017
16834WAT      O50743   1.763   0.847   6.080
16834WAT     H150744   1.830   0.843   6.155
16834WAT     H250745   1.707   0.929   6.091
16835WAT      O50746   7.303   0.523   2.114
16835WAT     H150747   7.310   0.427   2.138
16835WAT     H250748   7.278   0.532   2.017
16836WAT      O50749   8.936   7.153   1.587
16836WAT     H150750   8.927   7.214   1.666
16836WAT     H250751   8.932   7.058   1.617
16837WAT      O50752   8.566   6.416   2.083
16837WAT     H150753   8.532   6.426   2.177
16837WAT     H250754   8.602   6.504   2.052
16838WAT      O50755   4.970   8.736   2.038
16838WAT     H150756   4.894   8.671   2.038
16838WAT     H250757   5.019   8.729   1.951
16839WAT      O50758   7.354   9.546   5.482
16839WAT     H150759   7.437   9.570   5.431
16839WAT     H250760   7.376   9.485   5.557
16840WAT      O50761   5.522   4.484   2.316
16840WAT     H150762   5.565   4.493   2.226
16840WAT     H250763   5.426   4.513   2.310
16841WAT      O50764   2.334   7.727   4.779
16841WAT     H150765   2.283   7.746   4.695
16841WAT     H250766   2.407   7.662   4.759
16842WAT      O50767   6.841   0.076   7.554
16842WAT     H150768   6.803   0.051   7.465
16842WAT     H250769   6.898   0.158   7.544
16843WAT      O50770   4.518   0.198   3.233
16843WAT     H150771   4.506   0.290   3.196
16843WAT     H250772   4.432   0.166   3.274
16844WAT      O50773   9.506   1.422   4.022
16844WAT     H150774   9.449   1.368   4.085
16844WAT     H250775   9.559   1.489   4.074
16845WAT      O50776   4.829   4.857   2.107
16845WAT     H150777   4.789   4.941   2.144
16845WAT     H250778   4.781   4.832   2.023
16846WAT      O50779   1.185   4.419   2.255
16846WAT     H150780   1.251   4.484   2.217
16846WAT     H250781   1.226   4.374   2.335
16847WAT      O50782   9.308   8.024   7.056
16847WAT     H150783   9.369   8.098   7.028
16847WAT     H250784   9.216   8.061   7.069
16848WAT      O50785   7.585   5.125   5.140
16848WAT     H150786   7.675   5.164   5.116
16848WAT     H250787   7.525   5.198   5.171
16849WAT      O50788   8.017   2.163   7.454
16849WAT     H150789   7.941   2.172   7.389
16849WAT     H250790   7.994   2.095   7.523
16850WAT      O50791   7.430   0.497   1.493
16850WAT     H150792   7.495   0.572   1.479
16850WAT     H250793   7.337   0.531   1.480
16851WAT      O50794   8.447   1.173   9.383
16851WAT     H150795   8.477   1.223   9.303
16851WAT     H250796   8.479   1.219   9.466
16852WAT      O50797   4.824   6.226   1.034
16852WAT     H150798   4.815   6.324   1.017
16852WAT     H250799   4.757   6.198   1.104
16853WAT      O50800   0.490   2.847   9.191
16853WAT     H150801   0.566   2.853   9.255
16853WAT     H250802   0.517   2.885   9.103
16854WAT      O50803   4.478   7.460   9.602
16854WAT     H150804   4.575   7.457   9.627
16854WAT     H250805   4.454   7.375   9.555
16855WAT      O50806   7.872   9.654   4.465
16855WAT     H150807   7.840   9.559   4.465
16855WAT     H250808   7.795   9.715   4.444
16856WAT      O50809   5.036   0.620   5.301
16856WAT     H150810   5.041   0.668   5.213
16856WAT     H250811   4.999   0.529   5.286
16857WAT      O50812   4.145   8.436   5.258
16857WAT     H150813   4.115   8.489   5.338
16857WAT     H250814   4.237   8.399   5.275
16858WAT      O50815   6.090   7.069   5.189
16858WAT     H150816   6.162   7.030   5.247
16858WAT     H250817   6.076   7.010   5.109
16859WAT      O50818   3.407   3.253   3.404
16859WAT     H150819   3.481   3.217   3.461
16859WAT     H250820   3.322   3.255   3.458
16860WAT      O50821   2.545   8.881   9.411
16860WAT     H150822   2.568   8.839   9.498
16860WAT     H250823   2.599   8.964   9.399
16861WAT      O50824   9.203   2.676   9.007
16861WAT     H150825   9.235   2.723   8.924
16861WAT     H250826   9.245   2.586   9.011
16862WAT      O50827   7.609   2.959   1.094
16862WAT     H150828   7.700   2.975   1.055
16862WAT     H250829   7.565   2.883   1.046
16863WAT      O50830   4.297   1.407   8.328
16863WAT     H150831   4.295   1.505   8.345
16863WAT     H250832   4.347   1.361   8.402
16864WAT      O50833   3.568   0.542   0.396
16864WAT     H150834   3.567   0.625   0.341
16864WAT     H250835   3.567   0.462   0.336
16865WAT      O50836   8.540   9.252   8.288
16865WAT     H150837   8.526   9.166   8.338
16865WAT     H250838   8.590   9.234   8.203
16866WAT      O50839   4.350   6.544   9.700
16866WAT     H150840   4.360   6.517   9.604
16866WAT     H250841   4.254   6.566   9.718
16867WAT      O50842   7.911   9.575   9.420
16867WAT     H150843   7.998   9.530   9.442
16867WAT     H250844   7.864   9.523   9.349
16868WAT      O50845   0.811   1.872   7.658
16868WAT     H150846   0.799   1.774   7.678
16868WAT     H250847   0.735   1.904   7.601
16869WAT      O50848   1.753   7.822   1.541
16869WAT     H150849   1.818   7.798   1.470
16869WAT     H250850   1.782   7.783   1.628
16870WAT      O50851   3.143   2.129   1.648
16870WAT     H150852   3.181   2.203   1.703
16870WAT     H250853   3.174   2.137   1.553
16871WAT      O50854   8.104   3.431   5.994
16871WAT     H150855   8.081   3.446   5.898
16871WAT     H250856   8.157   3.509   6.029
16872WAT      O50857   6.749   9.827   5.625
16872WAT     H150858   6.747   9.781   5.537
16872WAT     H250859   6.843   9.852   5.648
16873WAT      O50860   3.277   0.317   6.773
16873WAT     H150861   3.334   0.249   6.820
16873WAT     H250862   3.308   0.409   6.797
16874WAT      O50863   4.111   0.328   5.707
16874WAT     H150864   4.139   0.320   5.612
16874WAT     H250865   4.025   0.278   5.721
16875WAT      O50866   2.403   6.105   7.646
16875WAT     H150867   2.408   6.021   7.701
16875WAT     H250868   2.495   6.130   7.617
16876WAT      O50869   8.367   4.950   3.762
16876WAT     H150870   8.449   4.988   3.805
16876WAT     H250871   8.357   4.987   3.670
16877WAT      O50872   5.452   7.954   4.221
16877WAT     H150873   5.499   7.963   4.133
16877WAT     H250874   5.455   8.042   4.269
16878WAT      O50875   5.580   4.510   7.753
16878WAT     H150876   5.543   4.602   7.764
16878WAT     H250877   5.570   4.482   7.657
16879WAT      O50878   1.211   9.696   6.673
16879WAT     H150879   1.237   9.674   6.767
16879WAT     H250880   1.230   9.617   6.614
16880WAT      O50881   5.974   2.023   4.175
16880WAT     H150882   5.939   1.977   4.094
16880WAT     H250883   6.062   2.065   4.154
16881WAT      O50884   7.709   6.672   0.696
16881WAT     H150885   7.697   6.579   0.661
16881WAT     H250886   7.625   6.724   0.681
16882WAT      O50887   8.622   6.710   9.375
16882WAT     H150888   8.643   6.784   9.311
16882WAT     H250889   8.527   6.681   9.362
16883WAT      O50890   3.697   2.630   2.797
16883WAT     H150891   3.632   2.554   2.794
16883WAT     H250892   3.703   2.672   2.706
16884WAT      O50893   8.544   5.637   0.165
16884WAT     H150894   8.521   5.544   0.196
16884WAT     H250895   8.470   5.673   0.108
16885WAT      O50896   6.471   2.167   0.358
16885WAT     H150897   6.474   2.070   0.335
16885WAT     H250898   6.551   2.191   0.412
16886WAT      O50899   4.256   2.498   5.371
16886WAT     H150900   4.222   2.583   5.412
16886WAT     H250901   4.292   2.439   5.443
16887WAT      O50902   3.001   7.699   1.987
16887WAT     H150903   2.935   7.720   2.059
16887WAT     H250904   3.020   7.601   1.986
16888WAT      O50905   4.904   7.176   9.713
16888WAT     H150906   4.816   7.133   9.692
16888WAT     H250907   4.940   7.135   9.797
16889WAT      O50908   9.293   8.658   6.526
16889WAT     H150909   9.260   8.564   6.511
16889WAT     H250910   9.386   8.666   6.489
16890WAT      O50911   7.919   9.408   8.537
16890WAT     H150912   7.884   9.364   8.454
16890WAT     H250913   7.867   9.376   8.616
16891WAT      O50914   8.503   4.543   0.963
16891WAT     H150915   8.588   4.500   0.993
16891WAT     H250916   8.509   4.642   0.974
16892WAT      O50917   6.081   2.986   7.316
16892WAT     H150918   6.007   3.047   7.288
16892WAT     H250919   6.137   2.962   7.236
16893WAT      O50920   5.589   6.121   5.528
16893WAT     H150921   5.506   6.071   5.507
16893WAT     H250922   5.667   6.080   5.480
16894WAT      O50923   8.644   9.662   5.673
16894WAT     H150924   8.626   9.758   5.653
16894WAT     H250925   8.565   9.607   5.646
16895WAT      O50926   6.536   5.900   3.629
16895WAT     H150927   6.478   5.844   3.570
16895WAT     H250928   6.613   5.845   3.662
16896WAT      O50929   4.925   6.662   0.215
16896WAT     H150930   4.918   6.599   0.137
16896WAT     H250931   4.836   6.705   0.231
16897WAT      O50932   3.934   5.031   5.358
16897WAT     H150933   4.021   5.030   5.307
16897WAT     H250934   3.945   5.087   5.440
16898WAT      O50935   0.032   0.400   6.990
16898WAT     H150936   0.018   0.477   6.927
16898WAT     H250937   0.101   0.339   6.952
16899WAT      O50938   7.357   0.365   7.652
16899WAT     H150939   7.355   0.422   7.570
16899WAT     H250940   7.436   0.389   7.708
16900WAT      O50941   1.298   2.529   0.654
16900WAT     H150942   1.371   2.570   0.709
16900WAT     H250943   1.337   2.485   0.573
16901WAT      O50944   8.456   6.088   1.797
16901WAT     H150945   8.381   6.027   1.826
16901WAT     H250946   8.452   6.173   1.848
16902WAT      O50947   1.245   3.176   2.383
16902WAT     H150948   1.239   3.082   2.351
16902WAT     H250949   1.155   3.206   2.414
16903WAT      O50950   3.016   0.224   2.124
16903WAT     H150951   3.043   0.256   2.033
16903WAT     H250952   2.957   0.291   2.167
16904WAT      O50953   1.413   7.290   3.758
16904WAT     H150954   1.450   7.255   3.672
16904WAT     H250955   1.362   7.218   3.804
16905WAT      O50956   9.832   9.807   0.548
16905WAT     H150957   9.863   9.800   0.643
16905WAT     H250958   9.858   9.896   0.511
16906WAT      O50959   9.008   9.234   4.970
16906WAT     H150960   9.087   9.178   4.995
16906WAT     H250961   8.981   9.213   4.876
16907WAT      O50962   9.283   1.267   3.152
16907WAT     H150963   9.252   1.247   3.245
16907WAT     H250964   9.227   1.215   3.087
16908WAT      O50965   3.979   6.687   6.096
16908WAT     H150966   3.972   6.597   6.054
16908WAT     H250967   4.003   6.755   6.026
16909WAT      O50968   9.504   8.636   2.387
16909WAT     H150969   9.454   8.559   2.428
16909WAT     H250970   9.596   8.606   2.361
16910WAT      O50971   6.554   8.386   5.611
16910WAT     H150972   6.470   8.372   5.559
16910WAT     H250973   6.628   8.334   5.571
16911WAT      O50974   1.789   3.567   8.107
16911WAT     H150975   1.842   3.513   8.042
16911WAT     H250976   1.808   3.535   8.200
16912WAT      O50977   5.108   5.187   3.898
16912WAT     H150978   5.061   5.106   3.861
16912WAT     H250979   5.085   5.266   3.842
16913WAT      O50980   4.230   4.171   8.554
16913WAT     H150981   4.286   4.247   8.589
16913WAT     H250982   4.209   4.187   8.458
16914WAT      O50983   1.078   9.453   1.224
16914WAT     H150984   1.111   9.482   1.314
16914WAT     H250985   1.147   9.397   1.179
16915WAT      O50986   2.475   9.251   6.554
16915WAT     H150987   2.519   9.320   6.612
16915WAT     H250988   2.376   9.256   6.567
16916WAT      O50989   2.221   9.311   3.374
16916WAT     H150990   2.239   9.366   3.455
16916WAT     H250991   2.156   9.238   3.398
16917WAT      O50992   7.869   7.700   8.620
16917WAT     H150993   7.928   7.719   8.699
16917WAT     H250994   7.900   7.754   8.541
16918WAT      O50995   1.960   4.100   2.724
16918WAT     H150996   1.959   4.113   2.824
16918WAT     H250997   1.943   4.004   2.703
16919WAT      O50998   8.543   8.634   6.212
16919WAT     H150999   8.465   8.571   6.212
16919WAT     H251000   8.575   8.646   6.118
16920WAT      O51001   2.624   9.649   1.910
16920WAT     H151002   2.622   9.713   1.987
16920WAT     H251003   2.635   9.556   1.944
16921WAT      O51004   5.117   7.095   6.000
16921WAT     H151005   5.097   7.192   5.988
16921WAT     H251006   5.099   7.068   6.095
16922WAT      O51007   9.779   9.082   8.771
16922WAT     H151008   9.737   9.075   8.681
16922WAT     H251009   9.841   9.161   8.773
16923WAT      O51010   6.440   5.613   7.376
16923WAT     H151011   6.378   5.689   7.359
16923WAT     H251012   6.507   5.607   7.302
16924WAT      O51013   7.226   9.330   0.727
16924WAT     H151014   7.248   9.286   0.814
16924WAT     H251015   7.182   9.418   0.745
16925WAT      O51016   9.489   2.825   1.354
16925WAT     H151017   9.462   2.841   1.259
16925WAT     H251018   9.464   2.731   1.380
16926WAT      O51019   8.717   5.231   2.797
16926WAT     H151020   8.666   5.238   2.711
16926WAT     H251021   8.660   5.187   2.867
16927WAT      O51022   8.191   5.997   1.850
16927WAT     H151023   8.150   5.956   1.932
16927WAT     H251024   8.186   6.097   1.858
16928WAT      O51025   9.292   4.236   5.062
16928WAT     H151026   9.197   4.260   5.079
16928WAT     H251027   9.351   4.286   5.125
16929WAT      O51028   7.657   0.552   1.892
16929WAT     H151029   7.715   0.567   1.812
16929WAT     H251030   7.684   0.466   1.936
16930WAT      O51031   2.339   0.250   6.585
16930WAT     H151032   2.300   0.321   6.644
16930WAT     H251033   2.435   0.270   6.567
16931WAT      O51034   5.314   5.318   0.953
16931WAT     H151035   5.264   5.327   1.039
16931WAT     H251036   5.259   5.267   0.887
16932WAT      O51037   7.060   6.607   4.574
16932WAT     H151038   6.985   6.556   4.531
16932WAT     H251039   7.023   6.687   4.621
16933WAT      O51040   8.831   0.121   7.305
16933WAT     H151041   8.768   0.120   7.382
16933WAT     H251042   8.860   0.028   7.284
16934WAT      O51043   2.352   0.925   4.849
16934WAT     H151044   2.450   0.917   4.866
16934WAT     H251045   2.305   0.947   4.935
16935WAT      O51046   4.046   1.050   5.670
16935WAT     H151047   3.979   1.072   5.599
16935WAT     H251048   4.136   1.035   5.628
16936WAT      O51049   2.289   1.176   2.063
16936WAT     H151050   2.295   1.138   2.156
16936WAT     H251051   2.209   1.236   2.057
16937WAT      O51052   5.057   8.899   8.327
16937WAT     H151053   5.031   8.982   8.377
16937WAT     H251054   5.135   8.856   8.373
16938WAT      O51055   6.633   7.148   0.939
16938WAT     H151056   6.606   7.240   0.912
16938WAT     H251057   6.670   7.099   0.860
16939WAT      O51058   0.548   3.012   8.700
16939WAT     H151059   0.525   3.107   8.721
16939WAT     H251060   0.517   2.990   8.608
16940WAT      O51061   6.968   4.309   8.793
16940WAT     H151062   7.043   4.334   8.732
16940WAT     H251063   6.881   4.317   8.744
16941WAT      O51064   9.227   7.529   9.631
16941WAT     H151065   9.143   7.550   9.581
16941WAT     H251066   9.266   7.614   9.667
16942WAT      O51067   7.935   5.952   4.657
16942WAT     H151068   7.905   5.918   4.746
16942WAT     H251069   7.951   6.051   4.663
16943WAT      O51070   9.111   6.115   4.608
16943WAT     H151071   9.066   6.174   4.542
16943WAT     H251072   9.042   6.065   4.660
16944WAT      O51073   5.276   5.321   9.877
16944WAT     H151074   5.344   5.385   9.840
16944WAT     H251075   5.214   5.371   9.938
16945WAT      O51076   9.333   4.838   1.410
16945WAT     H151077   9.347   4.928   1.452
16945WAT     H251078   9.361   4.841   1.314
16946WAT      O51079   4.183   8.932   6.170
16946WAT     H151080   4.233   8.866   6.114
16946WAT     H251081   4.104   8.966   6.119
16947WAT      O51082   4.131   9.207   6.617
16947WAT     H151083   4.041   9.227   6.657
16947WAT     H251084   4.155   9.112   6.635
16948WAT      O51085   2.579   6.575   1.781
16948WAT     H151086   2.488   6.600   1.814
16948WAT     H251087   2.572   6.491   1.727
16949WAT      O51088   6.432   4.267   5.253
16949WAT     H151089   6.401   4.190   5.197
16949WAT     H251090   6.529   4.283   5.236
16950WAT      O51091   5.336   0.738   7.469
16950WAT     H151092   5.337   0.736   7.369
16950WAT     H251093   5.430   0.739   7.503
16951WAT      O51094   8.825   8.075   3.193
16951WAT     H151095   8.773   8.023   3.125
16951WAT     H251096   8.783   8.165   3.206
16952WAT      O51097   6.910   5.977   8.552
16952WAT     H151098   6.915   6.071   8.584
16952WAT     H251099   6.975   5.963   8.477
16953WAT      O51100   1.464   6.319   9.151
16953WAT     H151101   1.490   6.348   9.059
16953WAT     H251102   1.478   6.394   9.215
16954WAT      O51103   2.841   9.039   0.498
16954WAT     H151104   2.889   9.037   0.585
16954WAT     H251105   2.904   9.013   0.424
16955WAT      O51106   7.011   3.756   9.531
16955WAT     H151107   6.969   3.782   9.618
16955WAT     H251108   7.037   3.838   9.480
16956WAT      O51109   4.685   0.070   9.409
16956WAT     H151110   4.754   0.118   9.462
16956WAT     H251111   4.723   0.047   9.319
16957WAT      O51112   4.330   6.836   6.618
16957WAT     H151113   4.421   6.810   6.585
16957WAT     H251114   4.283   6.889   6.547
16958WAT      O51115   7.726   2.771   1.351
16958WAT     H151116   7.787   2.712   1.298
16958WAT     H251117   7.686   2.839   1.290
16959WAT      O51118   3.788   3.808   9.056
16959WAT     H151119   3.820   3.852   9.141
16959WAT     H251120   3.689   3.792   9.063
16960WAT      O51121   6.374   6.137   1.515
16960WAT     H151122   6.446   6.095   1.461
16960WAT     H251123   6.314   6.191   1.456
16961WAT      O51124   7.350   2.677   8.395
16961WAT     H151125   7.362   2.773   8.368
16961WAT     H251126   7.294   2.672   8.477
16962WAT      O51127   9.585   0.013   9.531
16962WAT     H151128   9.572   0.111   9.519
16962WAT     H251129   9.522  -0.021   9.601
16963WAT      O51130   4.722   2.425   6.926
16963WAT     H151131   4.776   2.341   6.926
16963WAT     H251132   4.625   2.402   6.924
16964WAT      O51133   8.292   3.122   5.531
16964WAT     H151134   8.218   3.066   5.495
16964WAT     H251135   8.357   3.065   5.580
16965WAT      O51136   7.350   5.359   1.766
16965WAT     H151137   7.367   5.275   1.818
16965WAT     H251138   7.437   5.398   1.737
16966WAT      O51139   3.683   2.718   9.426
16966WAT     H151140   3.699   2.781   9.501
16966WAT     H251141   3.766   2.666   9.407
16967WAT      O51142   3.420   7.344   1.172
16967WAT     H151143   3.369   7.328   1.087
16967WAT     H251144   3.358   7.337   1.250
16968WAT      O51145   4.384   6.832   0.484
16968WAT     H151146   4.389   6.922   0.441
16968WAT     H251147   4.477   6.799   0.504
16969WAT      O51148   9.619   0.479   2.227
16969WAT     H151149   9.614   0.412   2.301
16969WAT     H251150   9.699   0.538   2.241
16970WAT      O51151   8.637   6.006   9.640
16970WAT     H151152   8.663   5.914   9.613
16970WAT     H251153   8.636   6.066   9.560
16971WAT      O51154   1.950   7.759   5.007
16971WAT     H151155   1.947   7.660   4.991
16971WAT     H251156   1.861   7.799   4.986
16972WAT      O51157   4.891   0.176   3.574
16972WAT     H151158   4.955   0.252   3.581
16972WAT     H251159   4.942   0.091   3.560
16973WAT      O51160   6.254   4.929   3.035
16973WAT     H151161   6.318   4.895   3.104
16973WAT     H251162   6.265   4.877   2.951
16974WAT      O51163   0.062   6.707   2.258
16974WAT     H151164   0.133   6.661   2.312
16974WAT     H251165   0.063   6.805   2.278
16975WAT      O51166   1.319   7.585   5.571
16975WAT     H151167   1.264   7.529   5.509
16975WAT     H251168   1.358   7.527   5.641
16976WAT      O51169   4.322   0.488   1.169
16976WAT     H151170   4.414   0.492   1.131
16976WAT     H251171   4.268   0.564   1.132
16977WAT      O51172   6.618   3.936   7.499
16977WAT     H151173   6.555   3.859   7.486
16977WAT     H251174   6.635   3.949   7.597
16978WAT      O51175   6.162   5.554   4.544
16978WAT     H151176   6.175   5.599   4.456
16978WAT     H251177   6.247   5.558   4.596
16979WAT      O51178   1.727   1.812   4.053
16979WAT     H151179   1.728   1.792   4.151
16979WAT     H251180   1.632   1.829   4.023
16980WAT      O51181   0.690   4.953   1.546
16980WAT     H151182   0.713   5.050   1.541
16980WAT     H251183   0.640   4.935   1.631
16981WAT      O51184   6.261   2.187   4.708
16981WAT     H151185   6.254   2.239   4.624
16981WAT     H251186   6.287   2.247   4.783
16982WAT      O51187   6.257   0.240   1.636
16982WAT     H151188   6.308   0.161   1.669
16982WAT     H251189   6.224   0.293   1.714
16983WAT      O51190   9.823   7.531   3.407
16983WAT     H151191   9.782   7.506   3.494
16983WAT     H251192   9.908   7.479   3.393
16984WAT      O51193   9.213   4.560   0.074
16984WAT     H151194   9.232   4.605   0.161
16984WAT     H251195   9.183   4.628   0.007
16985WAT      O51196   7.891   4.546   9.001
16985WAT     H151197   7.798   4.508   9.008
16985WAT     H251198   7.885   4.645   8.987
16986WAT      O51199   7.644   4.088   3.535
16986WAT     H151200   7.633   4.127   3.627
16986WAT     H251201   7.737   4.055   3.523
16987WAT      O51202   4.375   1.505   6.542
16987WAT     H151203   4.461   1.512   6.593
16987WAT     H251204   4.391   1.452   6.458
16988WAT      O51205   3.000   5.238   0.433
16988WAT     H151206   2.947   5.216   0.514
16988WAT     H251207   3.005   5.157   0.374
16989WAT      O51208   4.694   6.352   0.013
16989WAT     H151209   4.791   6.330   0.029
16989WAT     H251210   4.661   6.411   0.086
16990WAT      O51211   1.644   6.828   1.310
16990WAT     H151212   1.604   6.741   1.280
16990WAT     H251213   1.584   6.871   1.378
16991WAT      O51214   0.176   1.626   7.290
16991WAT     H151215   0.213   1.598   7.379
16991WAT     H251216   0.161   1.725   7.290
16992WAT      O51217   9.250   0.540   9.700
16992WAT     H151218   9.162   0.532   9.747
16992WAT     H251219   9.324   0.513   9.763
16993WAT      O51220   7.438   5.136   1.927
16993WAT     H151221   7.520   5.109   1.977
16993WAT     H251222   7.377   5.057   1.917
16994WAT      O51223   8.787   7.151   9.781
16994WAT     H151224   8.737   7.076   9.826
16994WAT     H251225   8.861   7.112   9.726
16995WAT      O51226   2.493   2.307   1.361
16995WAT     H151227   2.536   2.332   1.275
16995WAT     H251228   2.409   2.255   1.343
16996WAT      O51229   8.370   5.485   7.189
16996WAT     H151230   8.346   5.495   7.286
16996WAT     H251231   8.465   5.457   7.181
16997WAT      O51232   6.329   1.563   2.064
16997WAT     H151233   6.406   1.557   2.001
16997WAT     H251234   6.335   1.489   2.131
16998WAT      O51235   5.964   2.019   7.597
16998WAT     H151236   5.910   2.104   7.593
16998WAT     H251237   5.969   1.986   7.691
16999WAT      O51238   2.041   8.848   1.365
16999WAT     H151239   1.950   8.813   1.386
16999WAT     H251240   2.099   8.773   1.333
17000WAT      O51241   7.616   4.237   1.310
17000WAT     H151242   7.538   4.226   1.371
17000WAT     H251243   7.629   4.334   1.289
17001WAT      O51244   4.971   7.333   0.164
17001WAT     H151245   4.912   7.411   0.183
17001WAT     H251246   5.065   7.355   0.188
17002WAT      O51247   7.184   8.489   3.398
17002WAT     H151248   7.270   8.531   3.368
17002WAT     H251249   7.185   8.477   3.497
17003WAT      O51250   3.372   0.578   6.848
17003WAT     H151251   3.343   0.635   6.772
17003WAT     H251252   3.471   0.566   6.846
17004WAT      O51253   7.078   9.756   6.043
17004WAT     H151254   7.029   9.837   6.012
17004WAT     H251255   7.047   9.731   6.135
17005WAT      O51256   2.359   6.637   1.932
17005WAT     H151257   2.427   6.676   1.993
17005WAT     H251258   2.342   6.542   1.958
17006WAT      O51259   2.495   5.262   3.996
17006WAT     H151260   2.409   5.275   4.046
17006WAT     H251261   2.534   5.351   3.974
17007WAT      O51262   9.852   4.236   8.970
17007WAT     H151263   9.800   4.284   9.040
17007WAT     H251264   9.791   4.181   8.914
17008WAT      O51265   5.493   9.528   2.463
17008WAT     H151266   5.437   9.603   2.428
17008WAT     H251267   5.579   9.565   2.499
17009WAT      O51268   1.959   2.515   2.940
17009WAT     H151269   1.941   2.608   2.973
17009WAT     H251270   2.032   2.518   2.871
17010WAT      O51271   6.672   6.724   6.856
17010WAT     H151272   6.601   6.794   6.870
17010WAT     H251273   6.707   6.694   6.945
17011WAT      O51274   2.599   1.400   6.398
17011WAT     H151275   2.549   1.438   6.476
17011WAT     H251276   2.603   1.468   6.325
17012WAT      O51277   9.793   4.849   7.577
17012WAT     H151278   9.705   4.838   7.532
17012WAT     H251279   9.784   4.917   7.650
17013WAT      O51280   9.023   5.909   8.341
17013WAT     H151281   9.105   5.924   8.286
17013WAT     H251282   9.050   5.874   8.431
17014WAT      O51283   5.366   7.096   7.183
17014WAT     H151284   5.433   7.044   7.129
17014WAT     H251285   5.274   7.064   7.161
17015WAT      O51286   6.527   8.683   3.495
17015WAT     H151287   6.435   8.649   3.474
17015WAT     H251288   6.562   8.736   3.418
17016WAT      O51289   8.059   6.929   1.179
17016WAT     H151290   8.034   7.016   1.136
17016WAT     H251291   7.985   6.900   1.240
17017WAT      O51292   1.682   5.152   9.682
17017WAT     H151293   1.742   5.132   9.760
17017WAT     H251294   1.721   5.225   9.627
17018WAT      O51295   8.940   0.102   4.656
17018WAT     H151296   8.852   0.149   4.654
17018WAT     H251297   9.004   0.152   4.715
17019WAT      O51298   8.752   2.639   4.734
17019WAT     H151299   8.843   2.616   4.768
17019WAT     H251300   8.761   2.697   4.653
17020WAT      O51301   9.780   3.327   1.391
17020WAT     H151302   9.707   3.394   1.404
17020WAT     H251303   9.799   3.317   1.294
17021WAT      O51304   8.239   5.696   9.484
17021WAT     H151305   8.147   5.717   9.515
17021WAT     H251306   8.278   5.777   9.439
17022WAT      O51307   0.071   2.069   5.024
17022WAT     H151308   0.118   2.158   5.027
17022WAT     H251309   0.132   1.999   5.060
17023WAT      O51310   4.840   8.937   7.327
17023WAT     H151311   4.779   9.012   7.351
17023WAT     H251312   4.873   8.893   7.410
17024WAT      O51313   0.530   2.619   0.061
17024WAT     H151314   0.449   2.670   0.032
17024WAT     H251315   0.569   2.570  -0.016
17025WAT      O51316   5.569   6.655   2.531
17025WAT     H151317   5.498   6.643   2.461
17025WAT     H251318   5.639   6.585   2.520
17026WAT      O51319   7.450   3.905   6.967
17026WAT     H151320   7.476   3.935   7.059
17026WAT     H251321   7.386   3.971   6.927
17027WAT      O51322   6.653   4.519   7.035
17027WAT     H151323   6.578   4.586   7.038
17027WAT     H251324   6.677   4.500   6.940
17028WAT      O51325   1.197   6.724   0.714
17028WAT     H151326   1.146   6.683   0.790
17028WAT     H251327   1.184   6.823   0.715
17029WAT      O51328   2.325   4.029   4.584
17029WAT     H151329   2.349   4.124   4.567
17029WAT     H251330   2.398   3.985   4.637
17030WAT      O51331   3.815   4.845   6.446
17030WAT     H151332   3.859   4.777   6.387
17030WAT     H251333   3.863   4.850   6.533
17031WAT      O51334   5.816   5.890   7.962
17031WAT     H151335   5.903   5.897   8.011
17031WAT     H251336   5.822   5.817   7.894
17032WAT      O51337   8.783   3.021   5.395
17032WAT     H151338   8.729   3.075   5.460
17032WAT     H251339   8.880   3.041   5.408
17033WAT      O51340   7.800   6.130   8.388
17033WAT     H151341   7.798   6.197   8.314
17033WAT     H251342   7.739   6.161   8.462
17034WAT      O51343   9.836   2.764   3.207
17034WAT     H151344   9.885   2.691   3.160
17034WAT     H251345   9.792   2.727   3.289
17035WAT      O51346   5.741   7.339   4.464
17035WAT     H151347   5.755   7.276   4.541
17035WAT     H251348   5.643   7.353   4.449
17036WAT      O51349   7.151   5.063   6.728
17036WAT     H151350   7.193   5.070   6.818
17036WAT     H251351   7.222   5.059   6.658
17037WAT      O51352   5.755   6.248   9.250
17037WAT     H151353   5.735   6.239   9.347
17037WAT     H251354   5.829   6.314   9.236
17038WAT      O51355   0.302   0.843   2.743
17038WAT     H151356   0.213   0.800   2.724
17038WAT     H251357   0.375   0.780   2.716
17039WAT      O51358   4.651   1.154   3.622
17039WAT     H151359   4.685   1.150   3.528
17039WAT     H251360   4.712   1.101   3.681
17040WAT      O51361   7.641   7.841   8.716
17040WAT     H151362   7.620   7.771   8.785
17040WAT     H251363   7.735   7.828   8.683
17041WAT      O51364   3.660   8.562   1.055
17041WAT     H151365   3.668   8.604   0.964
17041WAT     H251366   3.565   8.538   1.072
17042WAT      O51367   3.463   0.290   2.393
17042WAT     H151368   3.393   0.239   2.342
17042WAT     H251369   3.418   0.354   2.455
17043WAT      O51370   9.419   6.351   3.870
17043WAT     H151371   9.372   6.363   3.957
17043WAT     H251372   9.398   6.261   3.833
17044WAT      O51373   3.695   2.369   9.603
17044WAT     H151374   3.755   2.447   9.582
17044WAT     H251375   3.639   2.347   9.523
17045WAT      O51376   6.509   8.787   3.216
17045WAT     H151377   6.537   8.699   3.177
17045WAT     H251378   6.485   8.850   3.142
17046WAT      O51379   2.245   4.550   9.229
17046WAT     H151380   2.155   4.511   9.247
17046WAT     H251381   2.264   4.622   9.295
17047WAT      O51382   3.476   0.780   3.910
17047WAT     H151383   3.567   0.751   3.940
17047WAT     H251384   3.453   0.867   3.954
17048WAT      O51385   0.444   6.706   7.857
17048WAT     H151386   0.479   6.623   7.814
17048WAT     H251387   0.502   6.783   7.832
17049WAT      O51388   4.776   9.739   0.792
17049WAT     H151389   4.741   9.647   0.773
17049WAT     H251390   4.699   9.800   0.814
17050WAT      O51391   3.530   0.981   6.587
17050WAT     H151392   3.546   0.896   6.537
17050WAT     H251393   3.455   1.031   6.545
17051WAT      O51394   0.471   6.812   0.832
17051WAT     H151395   0.485   6.831   0.735
17051WAT     H251396   0.551   6.763   0.868
17052WAT      O51397   7.748   5.723   2.460
17052WAT     H151398   7.743   5.636   2.412
17052WAT     H251399   7.665   5.736   2.514
17053WAT      O51400   1.514   2.703   3.930
17053WAT     H151401   1.583   2.699   3.858
17053WAT     H251402   1.433   2.651   3.901
17054WAT      O51403   0.976   6.885   5.692
17054WAT     H151404   0.968   6.838   5.604
17054WAT     H251405   0.902   6.950   5.702
17055WAT      O51406   9.861   3.617   9.366
17055WAT     H151407   9.852   3.540   9.303
17055WAT     H251408   9.773   3.662   9.377
17056WAT      O51409   8.072   9.214   4.778
17056WAT     H151410   7.987   9.220   4.830
17056WAT     H251411   8.101   9.305   4.750
17057WAT      O51412   6.794   6.237   1.409
17057WAT     H151413   6.801   6.180   1.327
17057WAT     H251414   6.719   6.302   1.397
17058WAT      O51415   1.638   4.669   5.772
17058WAT     H151416   1.546   4.708   5.782
17058WAT     H251417   1.679   4.700   5.686
17059WAT      O51418   4.541   2.183   6.086
17059WAT     H151419   4.589   2.114   6.032
17059WAT     H251420   4.444   2.162   6.087
17060WAT      O51421   5.862   3.168   6.935
17060WAT     H151422   5.783   3.175   6.996
17060WAT     H251423   5.918   3.090   6.961
17061WAT      O51424   9.138   6.960   5.439
17061WAT     H151425   9.160   6.982   5.534
17061WAT     H251426   9.040   6.965   5.424
17062WAT      O51427   4.022   7.197   9.864
17062WAT     H151428   3.963   7.277   9.868
17062WAT     H251429   3.978   7.121   9.912
17063WAT      O51430   3.662   9.080   2.184
17063WAT     H151431   3.610   9.058   2.102
17063WAT     H251432   3.613   9.047   2.265
17064WAT      O51433   9.367   9.541   9.749
17064WAT     H151434   9.368   9.499   9.840
17064WAT     H251435   9.333   9.475   9.682
17065WAT      O51436   9.187   0.047   0.676
17065WAT     H151437   9.136   0.128   0.647
17065WAT     H251438   9.150   0.014   0.763
17066WAT      O51439   5.673   3.513   8.012
17066WAT     H151440   5.703   3.447   8.080
17066WAT     H251441   5.612   3.580   8.055
17067WAT      O51442   5.410   0.560   0.600
17067WAT     H151443   5.438   0.653   0.577
17067WAT     H251444   5.345   0.527   0.532
17068WAT      O51445   8.289   9.770   0.498
17068WAT     H151446   8.376   9.719   0.503
17068WAT     H251447   8.279   9.809   0.406
17069WAT      O51448   7.128   6.002   7.001
17069WAT     H151449   7.129   5.910   6.962
17069WAT     H251450   7.213   6.049   6.978
17070WAT      O51451   4.999   0.323   1.719
17070WAT     H151452   4.972   0.326   1.623
17070WAT     H251453   4.921   0.348   1.776
17071WAT      O51454   7.289   4.674   9.196
17071WAT     H151455   7.265   4.589   9.150
17071WAT     H251456   7.309   4.745   9.128
17072WAT      O51457   3.937   4.030   4.155
17072WAT     H151458   4.013   4.093   4.138
17072WAT     H251459   3.972   3.947   4.199
17073WAT      O51460   0.898   3.344   5.452
17073WAT     H151461   0.865   3.274   5.388
17073WAT     H251462   0.979   3.310   5.500
17074WAT      O51463   2.452   8.682   0.136
17074WAT     H151464   2.524   8.703   0.069
17074WAT     H251465   2.488   8.697   0.228
17075WAT      O51466   0.957   9.408   6.557
17075WAT     H151467   0.909   9.468   6.493
17075WAT     H251468   0.892   9.374   6.625
17076WAT      O51469   0.829   7.215   4.121
17076WAT     H151470   0.923   7.246   4.106
17076WAT     H251471   0.784   7.277   4.186
17077WAT      O51472   8.487   6.198   7.296
17077WAT     H151473   8.444   6.215   7.207
17077WAT     H251474   8.537   6.111   7.293
17078WAT      O51475   5.174   1.973   5.582
17078WAT     H151476   5.218   2.062   5.593
17078WAT     H251477   5.109   1.959   5.657
17079WAT      O51478   7.673   0.030   6.221
17079WAT     H151479   7.581   0.068   6.207
17079WAT     H251480   7.666  -0.060   6.263
17080WAT      O51481   1.181   7.017   7.190
17080WAT     H151482   1.086   7.009   7.160
17080WAT     H251483   1.213   6.928   7.223
17081WAT      O51484   6.119   7.816   1.552
17081WAT     H151485   6.129   7.912   1.527
17081WAT     H251486   6.022   7.793   1.557
17082WAT      O51487   2.545   2.747   4.605
17082WAT     H151488   2.565   2.842   4.582
17082WAT     H251489   2.447   2.737   4.625
17083WAT      O51490   7.427   1.929   7.871
17083WAT     H151491   7.381   1.898   7.788
17083WAT     H251492   7.427   1.856   7.939
17084WAT      O51493   8.933   1.641   6.638
17084WAT     H151494   8.964   1.711   6.574
17084WAT     H251495   9.004   1.572   6.649
17085WAT      O51496   7.717   7.326   9.742
17085WAT     H151497   7.796   7.297   9.796
17085WAT     H251498   7.660   7.387   9.796
17086WAT      O51499   6.494   6.153   3.489
17086WAT     H151500   6.514   6.105   3.403
17086WAT     H251501   6.487   6.087   3.563
17087WAT      O51502   6.465   2.746   0.783
17087WAT     H151503   6.493   2.675   0.719
17087WAT     H251504   6.544   2.779   0.834
17088WAT      O51505   5.990   5.403   1.541
17088WAT     H151506   6.060   5.381   1.473
17088WAT     H251507   5.931   5.323   1.554
17089WAT      O51508   5.781   6.862   4.876
17089WAT     H151509   5.709   6.916   4.830
17089WAT     H251510   5.783   6.770   4.836
17090WAT      O51511   8.139   8.437   2.039
17090WAT     H151512   8.180   8.409   2.126
17090WAT     H251513   8.185   8.520   2.006
17091WAT      O51514   0.015   0.453   1.888
17091WAT     H151515  -0.074   0.464   1.843
17091WAT     H251516   0.028   0.527   1.954
17092WAT      O51517   9.577   2.142   1.836
17092WAT     H151518   9.647   2.212   1.822
17092WAT     H251519   9.620   2.053   1.849
17093WAT      O51520   5.988   9.139   2.001
17093WAT     H151521   5.944   9.227   1.984
17093WAT     H251522   5.947   9.096   2.081
17094WAT      O51523   8.531   1.350   1.655
17094WAT     H151524   8.595   1.395   1.717
17094WAT     H251525   8.553   1.375   1.561
17095WAT      O51526   7.446   3.857   3.200
17095WAT     H151527   7.500   3.844   3.117
17095WAT     H251528   7.409   3.950   3.202
17096WAT      O51529   3.091   2.192   6.619
17096WAT     H151530   2.992   2.177   6.612
17096WAT     H251531   3.115   2.277   6.571
17097WAT      O51532   1.409   6.412   3.570
17097WAT     H151533   1.351   6.413   3.651
17097WAT     H251534   1.353   6.393   3.489
17098WAT      O51535   0.075   8.145   3.523
17098WAT     H151536   0.015   8.223   3.542
17098WAT     H251537   0.138   8.132   3.600
17099WAT      O51538   0.822   1.463   3.038
17099WAT     H151539   0.782   1.545   2.997
17099WAT     H251540   0.798   1.459   3.135
17100WAT      O51541   4.539   2.202   1.217
17100WAT     H151542   4.516   2.254   1.300
17100WAT     H251543   4.538   2.264   1.139
17101WAT      O51544   9.870   1.137   2.433
17101WAT     H151545   9.840   1.135   2.529
17101WAT     H251546   9.950   1.198   2.425
17102WAT      O51547   3.122   4.914   2.691
17102WAT     H151548   3.033   4.869   2.698
17102WAT     H251549   3.172   4.879   2.612
17103WAT      O51550   4.859   0.253   9.560
17103WAT     H151551   4.798   0.282   9.633
17103WAT     H251552   4.939   0.207   9.600
17104WAT      O51553   8.874   4.695   8.088
17104WAT     H151554   8.864   4.645   8.174
17104WAT     H251555   8.971   4.704   8.066
17105WAT      O51556   4.837   4.450   6.275
17105WAT     H151557   4.920   4.478   6.323
17105WAT     H251558   4.780   4.395   6.335
17106WAT      O51559   6.052   5.630   5.069
17106WAT     H151560   6.107   5.561   5.022
17106WAT     H251561   5.957   5.624   5.038
17107WAT      O51562   6.026   5.844   7.228
17107WAT     H151563   5.987   5.884   7.144
17107WAT     H251564   5.987   5.890   7.308
17108WAT      O51565   4.327   5.482   7.400
17108WAT     H151566   4.379   5.498   7.317
17108WAT     H251567   4.309   5.384   7.410
17109WAT      O51568   0.163   8.361   2.789
17109WAT     H151569   0.155   8.459   2.808
17109WAT     H251570   0.205   8.315   2.867
17110WAT      O51571   8.849   8.958   0.908
17110WAT     H151572   8.936   8.910   0.922
17110WAT     H251573   8.867   9.050   0.872
17111WAT      O51574   3.834   7.233   6.793
17111WAT     H151575   3.864   7.188   6.708
17111WAT     H251576   3.753   7.186   6.829
17112WAT      O51577   8.461   2.121   4.732
17112WAT     H151578   8.525   2.097   4.659
17112WAT     H251579   8.423   2.212   4.715
17113WAT      O51580   3.019   5.590   0.811
17113WAT     H151581   3.059   5.514   0.860
17113WAT     H251582   3.024   5.573   0.713
17114WAT      O51583   5.065   3.802   6.459
17114WAT     H151584   5.029   3.875   6.401
17114WAT     H251585   5.145   3.836   6.510
17115WAT      O51586   2.904   0.138   2.883
17115WAT     H151587   2.824   0.103   2.930
17115WAT     H251588   2.951   0.205   2.941
17116WAT      O51589   5.896   2.582   9.775
17116WAT     H151590   5.817   2.588   9.714
17116WAT     H251591   5.975   2.547   9.725
17117WAT      O51592   1.282   9.540   8.612
17117WAT     H151593   1.228   9.593   8.678
17117WAT     H251594   1.375   9.577   8.607
17118WAT      O51595   7.418   5.326   2.399
17118WAT     H151596   7.440   5.228   2.392
17118WAT     H251597   7.361   5.341   2.479
17119WAT      O51598   7.984   7.294   3.409
17119WAT     H151599   8.070   7.306   3.458
17119WAT     H251600   7.957   7.380   3.366
17120WAT      O51601   6.791   5.897   0.636
17120WAT     H151602   6.866   5.964   0.642
17120WAT     H251603   6.829   5.807   0.617
17121WAT      O51604   6.794   5.144   2.388
17121WAT     H151605   6.736   5.063   2.398
17121WAT     H251606   6.767   5.194   2.306
17122WAT      O51607   9.076   4.571   5.110
17122WAT     H151608   9.086   4.591   5.013
17122WAT     H251609   9.065   4.472   5.123
17123WAT      O51610   3.645   9.430   7.547
17123WAT     H151611   3.697   9.514   7.560
17123WAT     H251612   3.687   9.375   7.474
17124WAT      O51613   0.615   7.796   3.745
17124WAT     H151614   0.535   7.855   3.735
17124WAT     H251615   0.687   7.846   3.793
17125WAT      O51616   7.669   0.769   8.692
17125WAT     H151617   7.673   0.752   8.593
17125WAT     H251618   7.761   0.769   8.729
17126WAT      O51619   4.439   4.076   4.845
17126WAT     H151620   4.527   4.122   4.860
17126WAT     H251621   4.384   4.130   4.782
17127WAT      O51622   5.345   1.766   9.273
17127WAT     H151623   5.253   1.728   9.264
17127WAT     H251624   5.395   1.717   9.344
17128WAT      O51625   1.633   2.069   9.303
17128WAT     H151626   1.704   2.129   9.341
17128WAT     H251627   1.675   1.986   9.267
17129WAT      O51628   8.220   2.625   5.122
17129WAT     H151629   8.187   2.655   5.033
17129WAT     H251630   8.245   2.704   5.177
17130WAT      O51631   2.259   7.031   2.682
17130WAT     H151632   2.188   7.101   2.669
17130WAT     H251633   2.299   7.042   2.773
17131WAT      O51634   5.165   9.829   4.311
17131WAT     H151635   5.085   9.883   4.339
17131WAT     H251636   5.245   9.888   4.304
17132WAT      O51637   4.864   1.139   2.762
17132WAT     H151638   4.806   1.132   2.843
17132WAT     H251639   4.837   1.220   2.710
17133WAT      O51640   3.436   2.890   1.612
17133WAT     H151641   3.358   2.954   1.615
17133WAT     H251642   3.521   2.942   1.601
17134WAT      O51643   3.590   2.288   5.578
17134WAT     H151644   3.572   2.380   5.612
17134WAT     H251645   3.552   2.221   5.642
17135WAT      O51646   5.277   3.048   8.640
17135WAT     H151647   5.192   3.087   8.676
17135WAT     H251648   5.339   3.123   8.614
17136WAT      O51649   0.509   2.816   8.396
17136WAT     H151650   0.575   2.825   8.321
17136WAT     H251651   0.493   2.719   8.415
17137WAT      O51652   3.183   1.569   9.340
17137WAT     H151653   3.116   1.531   9.403
17137WAT     H251654   3.213   1.498   9.276
17138WAT      O51655   1.317   1.142   3.627
17138WAT     H151656   1.411   1.113   3.613
17138WAT     H251657   1.295   1.217   3.564
17139WAT      O51658   0.934   9.795   8.980
17139WAT     H151659   0.910   9.778   9.075
17139WAT     H251660   0.960   9.891   8.968
17140WAT      O51661   7.124   6.515   9.870
17140WAT     H151662   7.037   6.474   9.896
17140WAT     H251663   7.194   6.491   9.938
17141WAT      O51664   8.212   4.389   1.517
17141WAT     H151665   8.146   4.313   1.511
17141WAT     H251666   8.232   4.423   1.425
17142WAT      O51667   5.138   8.052   0.619
17142WAT     H151668   5.198   8.034   0.697
17142WAT     H251669   5.137   7.971   0.560
17143WAT      O51670   3.259   4.044   5.138
17143WAT     H151671   3.187   4.090   5.190
17143WAT     H251672   3.344   4.096   5.145
17144WAT      O51673   3.311   9.549   5.127
17144WAT     H151674   3.227   9.549   5.072
17144WAT     H251675   3.289   9.533   5.223
17145WAT      O51676   8.950   2.717   7.881
17145WAT     H151677   8.885   2.653   7.923
17145WAT     H251678   9.022   2.739   7.948
17146WAT      O51679   8.391   2.630   4.484
17146WAT     H151680   8.374   2.722   4.449
17146WAT     H251681   8.459   2.584   4.426
17147WAT      O51682   9.442   6.828   1.288
17147WAT     H151683   9.385   6.781   1.356
17147WAT     H251684   9.461   6.921   1.321
17148WAT      O51685   2.157   3.289   3.629
17148WAT     H151686   2.146   3.386   3.609
17148WAT     H251687   2.147   3.273   3.727
17149WAT      O51688   1.103   0.029   3.700
17149WAT     H151689   1.138   0.122   3.694
17149WAT     H251690   1.179  -0.034   3.716
17150WAT      O51691   7.226   1.130   4.750
17150WAT     H151692   7.271   1.041   4.760
17150WAT     H251693   7.135   1.117   4.711
17151WAT      O51694   1.958   1.114   5.028
17151WAT     H151695   1.930   1.076   4.940
17151WAT     H251696   2.042   1.069   5.058
17152WAT      O51697   8.974   4.452   7.507
17152WAT     H151698   8.905   4.408   7.565
17152WAT     H251699   9.064   4.442   7.548
17153WAT      O51700   7.213   6.507   7.449
17153WAT     H151701   7.221   6.606   7.459
17153WAT     H251702   7.304   6.466   7.444
17154WAT      O51703   9.765   3.888   9.691
17154WAT     H151704   9.714   3.973   9.704
17154WAT     H251705   9.788   3.849   9.781
17155WAT      O51706   5.941   4.122   3.993
17155WAT     H151707   5.876   4.073   3.935
17155WAT     H251708   5.941   4.081   4.084
17156WAT      O51709   2.799   1.203   8.693
17156WAT     H151710   2.802   1.228   8.789
17156WAT     H251711   2.711   1.160   8.673
17157WAT      O51712   1.576   3.979   7.032
17157WAT     H151713   1.491   3.926   7.027
17157WAT     H251714   1.599   3.996   7.127
17158WAT      O51715   4.717   1.736   9.774
17158WAT     H151716   4.661   1.818   9.758
17158WAT     H251717   4.812   1.763   9.790
17159WAT      O51718   9.482   8.152   1.203
17159WAT     H151719   9.394   8.113   1.177
17159WAT     H251720   9.536   8.084   1.252
17160WAT      O51721   1.737   3.754   5.732
17160WAT     H151722   1.766   3.730   5.640
17160WAT     H251723   1.810   3.730   5.797
17161WAT      O51724   4.851   6.312   4.346
17161WAT     H151725   4.769   6.295   4.292
17161WAT     H251726   4.861   6.410   4.362
17162WAT      O51727   2.119   0.860   6.691
17162WAT     H151728   2.093   0.801   6.768
17162WAT     H251729   2.043   0.864   6.626
17163WAT      O51730   9.793   9.081   6.084
17163WAT     H151731   9.859   9.154   6.101
17163WAT     H251732   9.752   9.052   6.170
17164WAT      O51733   4.702   6.661   9.478
17164WAT     H151734   4.727   6.592   9.546
17164WAT     H251735   4.768   6.736   9.481
17165WAT      O51736   8.685   2.325   3.006
17165WAT     H151737   8.588   2.328   3.031
17165WAT     H251738   8.738   2.292   3.084
17166WAT      O51739   9.455   6.453   1.969
17166WAT     H151740   9.444   6.409   2.058
17166WAT     H251741   9.547   6.491   1.962
17167WAT      O51742   2.068   0.336   7.635
17167WAT     H151743   2.081   0.432   7.659
17167WAT     H251744   2.130   0.280   7.689
17168WAT      O51745   6.726   5.889   7.997
17168WAT     H151746   6.819   5.915   7.973
17168WAT     H251747   6.726   5.798   8.038
17169WAT      O51748   3.536   1.783   4.560
17169WAT     H151749   3.551   1.795   4.462
17169WAT     H251750   3.617   1.743   4.602
17170WAT      O51751   7.257   5.531   4.947
17170WAT     H151752   7.222   5.609   4.895
17170WAT     H251753   7.253   5.550   5.045
17171WAT      O51754   3.073   2.317   9.459
17171WAT     H151755   3.059   2.232   9.410
17171WAT     H251756   3.033   2.393   9.407
17172WAT      O51757   5.739   6.092   4.466
17172WAT     H151758   5.701   6.023   4.528
17172WAT     H251759   5.737   6.058   4.372
17173WAT      O51760   4.134   9.803   1.128
17173WAT     H151761   4.114   9.816   1.225
17173WAT     H251762   4.210   9.862   1.100
17174WAT      O51763   2.372   8.346   1.936
17174WAT     H151764   2.321   8.280   1.881
17174WAT     H251765   2.357   8.438   1.902
17175WAT      O51766   2.479   8.453   2.343
17175WAT     H151767   2.559   8.475   2.288
17175WAT     H251768   2.503   8.382   2.409
17176WAT      O51769   8.028   3.149   6.266
17176WAT     H151770   8.020   3.114   6.360
17176WAT     H251771   8.035   3.249   6.269
17177WAT      O51772   0.544   6.033   4.627
17177WAT     H151773   0.469   6.068   4.572
17177WAT     H251774   0.630   6.045   4.578
17178WAT      O51775   6.858   2.180   6.447
17178WAT     H151776   6.760   2.173   6.467
17178WAT     H251777   6.905   2.221   6.525
17179WAT      O51778   4.028   9.046   9.285
17179WAT     H151779   4.115   8.999   9.300
17179WAT     H251780   3.966   9.027   9.361
17180WAT      O51781   5.797   8.667   1.827
17180WAT     H151782   5.888   8.625   1.827
17180WAT     H251783   5.735   8.614   1.886
17181WAT      O51784   3.309   9.780   6.372
17181WAT     H151785   3.250   9.699   6.373
17181WAT     H251786   3.313   9.818   6.280
17182WAT      O51787   5.055   2.404   3.632
17182WAT     H151788   5.112   2.363   3.704
17182WAT     H251789   4.982   2.341   3.607
17183WAT      O51790   1.210   8.915   1.680
17183WAT     H151791   1.134   8.963   1.637
17183WAT     H251792   1.280   8.981   1.706
17184WAT      O51793   3.573   9.483   9.870
17184WAT     H151794   3.652   9.523   9.916
17184WAT     H251795   3.544   9.401   9.919
17185WAT      O51796   3.295   1.071   0.463
17185WAT     H151797   3.290   0.971   0.463
17185WAT     H251798   3.249   1.107   0.382
17186WAT      O51799   7.087   9.601   4.919
17186WAT     H151800   7.070   9.563   4.828
17186WAT     H251801   7.122   9.694   4.911
17187WAT      O51802   1.980   8.922   5.988
17187WAT     H151803   2.023   8.950   6.074
17187WAT     H251804   2.051   8.902   5.921
17188WAT      O51805   2.135   5.401   7.543
17188WAT     H151806   2.087   5.320   7.579
17188WAT     H251807   2.180   5.448   7.619
17189WAT      O51808   2.857   1.865   8.736
17189WAT     H151809   2.779   1.839   8.793
17189WAT     H251810   2.824   1.891   8.645
17190WAT      O51811   3.820   7.136   4.467
17190WAT     H151812   3.902   7.082   4.447
17190WAT     H251813   3.765   7.089   4.536
17191WAT      O51814   2.425   6.279   9.279
17191WAT     H151815   2.468   6.351   9.226
17191WAT     H251816   2.399   6.315   9.369
17192WAT      O51817   6.884   1.175   0.386
17192WAT     H151818   6.883   1.108   0.312
17192WAT     H251819   6.893   1.128   0.474
17193WAT      O51820   1.382   7.711   4.231
17193WAT     H151821   1.368   7.768   4.150
17193WAT     H251822   1.472   7.667   4.227
17194WAT      O51823   1.550   9.006   4.884
17194WAT     H151824   1.596   8.937   4.940
17194WAT     H251825   1.541   9.091   4.936
17195WAT      O51826   6.757   9.762   1.664
17195WAT     H151827   6.700   9.701   1.608
17195WAT     H251828   6.757   9.729   1.759
17196WAT      O51829   9.249   7.345   5.568
17196WAT     H151830   9.166   7.399   5.586
17196WAT     H251831   9.262   7.337   5.469
17197WAT      O51832   6.129   5.355   0.176
17197WAT     H151833   6.222   5.358   0.214
17197WAT     H251834   6.074   5.289   0.226
17198WAT      O51835   3.407   4.068   0.550
17198WAT     H151836   3.444   4.019   0.629
17198WAT     H251837   3.429   4.018   0.466
17199WAT      O51838   7.594   8.179   0.023
17199WAT     H151839   7.522   8.233  -0.021
17199WAT     H251840   7.556   8.133   0.103
17200WAT      O51841   8.709   9.700   0.204
17200WAT     H151842   8.719   9.756   0.286
17200WAT     H251843   8.626   9.728   0.155
17201WAT      O51844   1.234   9.763   7.785
17201WAT     H151845   1.318   9.809   7.815
17201WAT     H251846   1.257   9.695   7.715
17202WAT      O51847   0.531   2.990   1.081
17202WAT     H151848   0.610   2.931   1.061
17202WAT     H251849   0.493   2.964   1.170
17203WAT      O51850   7.630   1.063   4.650
17203WAT     H151851   7.716   1.098   4.613
17203WAT     H251852   7.555   1.087   4.589
17204WAT      O51853   7.810   9.023   6.864
17204WAT     H151854   7.755   8.992   6.942
17204WAT     H251855   7.794   8.962   6.786
17205WAT      O51856   8.501   3.583   3.008
17205WAT     H151857   8.405   3.602   2.989
17205WAT     H251858   8.556   3.605   2.928
17206WAT      O51859   6.035   4.535   4.285
17206WAT     H151860   5.979   4.466   4.239
17206WAT     H251861   6.028   4.524   4.384
17207WAT      O51862   6.287   4.058   4.623
17207WAT     H151863   6.285   4.150   4.582
17207WAT     H251864   6.284   4.066   4.723
17208WAT      O51865   6.823   2.170   7.066
17208WAT     H151866   6.887   2.222   7.121
17208WAT     H251867   6.770   2.232   7.007
17209WAT      O51868   7.769   5.210   8.799
17209WAT     H151869   7.833   5.151   8.749
17209WAT     H251870   7.809   5.302   8.808
17210WAT      O51871   1.986   8.563   3.245
17210WAT     H151872   1.988   8.593   3.149
17210WAT     H251873   1.924   8.485   3.255
17211WAT      O51874   9.447   7.176   0.562
17211WAT     H151875   9.511   7.253   0.560
17211WAT     H251876   9.432   7.144   0.468
17212WAT      O51877   8.277   7.074   0.803
17212WAT     H151878   8.239   7.114   0.720
17212WAT     H251879   8.356   7.127   0.833
17213WAT      O51880   9.457   4.393   6.430
17213WAT     H151881   9.432   4.296   6.437
17213WAT     H251882   9.408   4.434   6.352
17214WAT      O51883   9.589   7.457   1.690
17214WAT     H151884   9.585   7.529   1.620
17214WAT     H251885   9.549   7.373   1.653
17215WAT      O51886   4.795   0.716   0.254
17215WAT     H151887   4.721   0.689   0.194
17215WAT     H251888   4.777   0.682   0.347
17216WAT      O51889   7.401   9.481   3.435
17216WAT     H151890   7.396   9.517   3.342
17216WAT     H251891   7.316   9.433   3.456
17217WAT      O51892   8.623   1.218   7.256
17217WAT     H151893   8.564   1.223   7.175
17217WAT     H251894   8.572   1.246   7.337
17218WAT      O51895   3.817   6.597   3.415
17218WAT     H151896   3.744   6.649   3.458
17218WAT     H251897   3.856   6.651   3.340
17219WAT      O51898   7.791   1.237   3.118
17219WAT     H151899   7.766   1.205   3.210
17219WAT     H251900   7.846   1.320   3.126
17220WAT      O51901   3.126   2.040   6.100
17220WAT     H151902   3.033   2.075   6.106
17220WAT     H251903   3.158   2.016   6.192
17221WAT      O51904   4.711   3.892   2.604
17221WAT     H151905   4.643   3.956   2.569
17221WAT     H251906   4.703   3.885   2.704
17222WAT      O51907   8.610   2.899   6.804
17222WAT     H151908   8.623   2.963   6.728
17222WAT     H251909   8.648   2.810   6.781
17223WAT      O51910   2.414   2.127   6.677
17223WAT     H151911   2.489   2.158   6.619
17223WAT     H251912   2.330   2.120   6.624
17224WAT      O51913   4.120   3.578   0.093
17224WAT     H151914   4.143   3.550  -0.000
17224WAT     H251915   4.179   3.654   0.120
17225WAT      O51916   5.816   0.450   7.565
17225WAT     H151917   5.857   0.374   7.516
17225WAT     H251918   5.801   0.425   7.660
17226WAT      O51919   8.592   0.580   5.441
17226WAT     H151920   8.579   0.481   5.432
17226WAT     H251921   8.669   0.597   5.503
17227WAT      O51922   4.275   5.636   1.779
17227WAT     H151923   4.224   5.570   1.834
17227WAT     H251924   4.215   5.713   1.756
17228WAT      O51925   6.909   8.003   8.710
17228WAT     H151926   6.833   8.001   8.775
17228WAT     H251927   6.981   8.064   8.743
17229WAT      O51928   6.693   5.687   5.760
17229WAT     H151929   6.605   5.701   5.805
17229WAT     H251930   6.758   5.756   5.791
17230WAT      O51931   8.084   7.068   3.258
17230WAT     H151932   8.127   7.039   3.173
17230WAT     H251933   8.063   7.166   3.253
17231WAT      O51934   7.153   9.450   0.070
17231WAT     H151935   7.253   9.451   0.065
17231WAT     H251936   7.119   9.544   0.066
17232WAT      O51937   5.358   4.628   7.377
17232WAT     H151938   5.443   4.579   7.396
17232WAT     H251939   5.325   4.602   7.286
17233WAT      O51940   6.565   1.480   5.510
17233WAT     H151941   6.651   1.530   5.497
17233WAT     H251942   6.534   1.443   5.423
17234WAT      O51943   2.774   0.024   0.573
17234WAT     H151944   2.720   0.107   0.582
17234WAT     H251945   2.715  -0.056   0.583
17235WAT      O51946   3.552   9.316   6.782
17235WAT     H151947   3.462   9.318   6.737
17235WAT     H251948   3.612   9.255   6.731
17236WAT      O51949   7.689   3.151   1.809
17236WAT     H151950   7.758   3.200   1.862
17236WAT     H251951   7.678   3.059   1.846
17237WAT      O51952   4.483   4.014   1.525
17237WAT     H151953   4.435   4.094   1.561
17237WAT     H251954   4.582   4.031   1.526
17238WAT      O51955   6.649   1.531   9.734
17238WAT     H151956   6.633   1.524   9.635
17238WAT     H251957   6.571   1.490   9.782
17239WAT      O51958   1.032   8.113   6.956
17239WAT     H151959   1.120   8.072   6.979
17239WAT     H251960   1.020   8.198   7.007
17240WAT      O51961   4.081   1.242   9.615
17240WAT     H151962   4.001   1.194   9.580
17240WAT     H251963   4.098   1.213   9.709
17241WAT      O51964   8.976   0.560   6.752
17241WAT     H151965   9.013   0.653   6.753
17241WAT     H251966   8.877   0.563   6.764
17242WAT      O51967   7.628   3.329   9.561
17242WAT     H151968   7.664   3.380   9.483
17242WAT     H251969   7.704   3.282   9.607
17243WAT      O51970   4.970   9.098   2.397
17243WAT     H151971   5.029   9.176   2.378
17243WAT     H251972   5.006   9.047   2.475
17244WAT      O51973   2.311   9.055   8.934
17244WAT     H151974   2.255   9.130   8.969
17244WAT     H251975   2.264   8.968   8.950
17245WAT      O51976   6.152   8.056   4.288
17245WAT     H151977   6.238   8.013   4.313
17245WAT     H251978   6.125   8.027   4.196
17246WAT      O51979   3.116   8.658   5.092
17246WAT     H151980   3.057   8.619   5.021
17246WAT     H251981   3.161   8.740   5.057
17247WAT      O51982   8.071   0.261   3.160
17247WAT     H151983   8.052   0.328   3.088
17247WAT     H251984   7.991   0.202   3.172
17248WAT      O51985   7.831   9.548   4.092
17248WAT     H151986   7.733   9.543   4.111
17248WAT     H251987   7.856   9.642   4.073
17249WAT      O51988   9.143   3.489   4.002
17249WAT     H151989   9.139   3.437   3.917
17249WAT     H251990   9.162   3.585   3.982
17250WAT      O51991   9.130   5.871   1.618
17250WAT     H151992   9.084   5.960   1.618
17250WAT     H251993   9.108   5.822   1.703
17251WAT      O51994   1.049   6.508   1.275
17251WAT     H151995   1.111   6.498   1.353
17251WAT     H251996   0.995   6.424   1.265
17252WAT      O51997   8.613   4.927   6.719
17252WAT     H151998   8.627   4.964   6.811
17252WAT     H251999   8.517   4.938   6.693
17253WAT      O52000   1.147   2.170   8.969
17253WAT     H152001   1.232   2.221   8.978
17253WAT     H252002   1.159   2.096   8.903
17254WAT      O52003   8.167   8.810   8.919
17254WAT     H152004   8.266   8.821   8.909
17254WAT     H252005   8.148   8.717   8.950
17255WAT      O52006   8.106   1.745   2.483
17255WAT     H152007   8.022   1.798   2.495
17255WAT     H252008   8.091   1.651   2.512
17256WAT      O52009   2.392   1.497   6.642
17256WAT     H152010   2.331   1.425   6.674
17256WAT     H252011   2.338   1.570   6.600
17257WAT      O52012   5.756   2.272   7.881
17257WAT     H152013   5.842   2.258   7.930
17257WAT     H252014   5.748   2.202   7.809
17258WAT      O52015   3.885   0.695   3.630
17258WAT     H152016   3.937   0.650   3.702
17258WAT     H252017   3.798   0.727   3.667
17259WAT      O52018   8.470   2.338   6.136
17259WAT     H152019   8.433   2.421   6.178
17259WAT     H252020   8.566   2.353   6.111
17260WAT      O52021   1.383   3.891   3.850
17260WAT     H152022   1.395   3.940   3.936
17260WAT     H252023   1.338   3.951   3.784
17261WAT      O52024   3.185   1.557   2.760
17261WAT     H152025   3.093   1.564   2.800
17261WAT     H252026   3.180   1.505   2.675
17262WAT      O52027   0.941   5.537   5.189
17262WAT     H152028   0.905   5.454   5.232
17262WAT     H252029   0.965   5.517   5.094
17263WAT      O52030   8.581   3.091   4.789
17263WAT     H152031   8.646   3.165   4.802
17263WAT     H252032   8.587   3.056   4.695
17264WAT      O52033   8.548   7.371   0.367
17264WAT     H152034   8.599   7.312   0.304
17264WAT     H252035   8.558   7.335   0.460
17265WAT      O52036   2.867   2.831   0.432
17265WAT     H152037   2.910   2.860   0.517
17265WAT     H252038   2.826   2.740   0.444
17266WAT      O52039   1.465   3.758   5.362
17266WAT     H152040   1.442   3.712   5.275
17266WAT     H252041   1.392   3.741   5.429
17267WAT      O52042   2.799   7.985   8.996
17267WAT     H152043   2.720   8.019   8.945
17267WAT     H252044   2.780   7.989   9.094
17268WAT      O52045   0.054   7.209   8.200
17268WAT     H152046  -0.002   7.218   8.118
17268WAT     H252047   0.074   7.299   8.237
17269WAT      O52048   7.934   0.965   9.172
17269WAT     H152049   8.011   0.914   9.209
17269WAT     H252050   7.923   1.051   9.223
17270WAT      O52051   5.397   2.805   5.541
17270WAT     H152052   5.404   2.899   5.574
17270WAT     H252053   5.373   2.744   5.617
17271WAT      O52054   6.010   8.585   2.780
17271WAT     H152055   5.950   8.520   2.734
17271WAT     H252056   5.987   8.587   2.878
17272WAT      O52057   3.694   7.038   3.557
17272WAT     H152058   3.628   6.999   3.623
17272WAT     H252059   3.679   7.136   3.550
17273WAT      O52060   5.372   7.140   0.391
17273WAT     H152061   5.375   7.055   0.338
17273WAT     H252062   5.459   7.188   0.380
17274WAT      O52063   2.162   9.011   7.885
17274WAT     H152064   2.145   8.955   7.804
17274WAT     H252065   2.109   9.096   7.878
17275WAT      O52066   7.210   4.798   6.348
17275WAT     H152067   7.134   4.861   6.330
17275WAT     H252068   7.198   4.758   6.439
17276WAT      O52069   7.131   5.092   0.989
17276WAT     H152070   7.149   5.159   1.061
17276WAT     H252071   7.188   5.111   0.909
17277WAT      O52072   8.088   0.974   4.610
17277WAT     H152073   8.117   1.047   4.672
17277WAT     H252074   8.050   0.899   4.663
17278WAT      O52075   0.832   7.883   6.829
17278WAT     H152076   0.878   7.960   6.873
17278WAT     H252077   0.734   7.904   6.821
17279WAT      O52078   3.151   5.095   5.152
17279WAT     H152079   3.156   5.123   5.248
17279WAT     H252080   3.163   5.176   5.093
17280WAT      O52081   4.871   7.810   1.801
17280WAT     H152082   4.887   7.724   1.752
17280WAT     H252083   4.838   7.790   1.893
17281WAT      O52084   7.901   3.254   1.968
17281WAT     H152085   7.905   3.169   2.020
17281WAT     H252086   7.850   3.322   2.021
17282WAT      O52087   6.731   9.268   1.757
17282WAT     H152088   6.767   9.335   1.691
17282WAT     H252089   6.679   9.198   1.708
17283WAT      O52090   8.698   4.116   4.085
17283WAT     H152091   8.753   4.050   4.033
17283WAT     H252092   8.612   4.072   4.113
17284WAT      O52093   7.636   8.585   7.069
17284WAT     H152094   7.562   8.528   7.033
17284WAT     H252095   7.673   8.544   7.152
17285WAT      O52096   1.691   3.456   2.414
17285WAT     H152097   1.693   3.367   2.368
17285WAT     H252098   1.782   3.497   2.409
17286WAT      O52099   7.756   6.040   0.452
17286WAT     H152100   7.659   6.062   0.459
17286WAT     H252101   7.809   6.125   0.445
17287WAT      O52102   2.789   1.618   8.383
17287WAT     H152103   2.782   1.581   8.476
17287WAT     H252104   2.697   1.631   8.346
17288WAT      O52105   7.744   9.012   1.522
17288WAT     H152106   7.734   9.092   1.463
17288WAT     H252107   7.775   9.042   1.613
17289WAT      O52108   5.221   5.554   4.041
17289WAT     H152109   5.164   5.514   4.113
17289WAT     H252110   5.206   5.653   4.037
17290WAT      O52111   2.598   8.231   2.062
17290WAT     H152112   2.512   8.265   2.023
17290WAT     H252113   2.654   8.308   2.091
17291WAT      O52114   9.846   9.593   6.331
17291WAT     H152115   9.929   9.646   6.345
17291WAT     H252116   9.785   9.643   6.269
17292WAT      O52117   4.762   4.452   5.984
17292WAT     H152118   4.794   4.436   6.077
17292WAT     H252119   4.822   4.404   5.919
17293WAT      O52120   3.280   1.500   7.659
17293WAT     H152121   3.335   1.420   7.634
17293WAT     H252122   3.248   1.546   7.576
17294WAT      O52123   8.814   8.489   7.690
17294WAT     H152124   8.772   8.422   7.628
17294WAT     H252125   8.830   8.575   7.641
17295WAT      O52126   7.497   7.017   5.491
17295WAT     H152127   7.439   7.089   5.529
17295WAT     H252128   7.480   7.009   5.393
17296WAT      O52129   2.098   5.967   4.919
17296WAT     H152130   2.011   6.007   4.892
17296WAT     H252131   2.163   5.973   4.843
17297WAT      O52132   3.024   6.125   7.351
17297WAT     H152133   2.975   6.211   7.361
17297WAT     H252134   3.002   6.084   7.263
17298WAT      O52135   1.659   7.796   2.758
17298WAT     H152136   1.696   7.875   2.709
17298WAT     H252137   1.676   7.713   2.705
17299WAT      O52138   6.835   5.318   3.443
17299WAT     H152139   6.872   5.297   3.534
17299WAT     H252140   6.788   5.238   3.407
17300WAT      O52141   1.045   0.913   4.166
17300WAT     H152142   1.069   1.010   4.170
17300WAT     H252143   1.059   0.879   4.073
17301WAT      O52144   7.681   9.229   8.597
17301WAT     H152145   7.731   9.264   8.517
17301WAT     H252146   7.643   9.139   8.575
17302WAT      O52147   3.940   8.500   2.277
17302WAT     H152148   3.982   8.525   2.364
17302WAT     H252149   3.840   8.506   2.285
17303WAT      O52150   4.272   3.396   1.795
17303WAT     H152151   4.193   3.444   1.756
17303WAT     H252152   4.353   3.415   1.739
17304WAT      O52153   9.040   3.966   5.697
17304WAT     H152154   9.017   3.989   5.603
17304WAT     H252155   9.005   4.036   5.759
17305WAT      O52156   8.125   2.302   5.693
17305WAT     H152157   8.036   2.268   5.726
17305WAT     H252158   8.146   2.389   5.738
17306WAT      O52159   5.633   1.894   3.007
17306WAT     H152160   5.626   1.847   3.095
17306WAT     H252161   5.561   1.860   2.946
17307WAT      O52162   6.432   4.788   6.353
17307WAT     H152163   6.367   4.712   6.358
17307WAT     H252164   6.470   4.793   6.261
17308WAT      O52165   4.078   5.072   9.574
17308WAT     H152166   4.157   5.117   9.616
17308WAT     H252167   4.102   5.044   9.481
17309WAT      O52168   9.557   7.948   5.034
17309WAT     H152169   9.615   7.874   4.999
17309WAT     H252170   9.607   8.034   5.030
17310WAT      O52171   7.345   0.715   7.197
17310WAT     H152172   7.435   0.676   7.180
17310WAT     H252173   7.275   0.651   7.166
17311WAT      O52174   6.663   1.356   3.620
17311WAT     H152175   6.639   1.273   3.671
17311WAT     H252176   6.720   1.415   3.677
17312WAT      O52177   3.534   2.663   6.269
17312WAT     H152178   3.542   2.762   6.278
17312WAT     H252179   3.493   2.626   6.353
17313WAT      O52180   4.171   5.302   4.601
17313WAT     H152181   4.091   5.242   4.590
17313WAT     H252182   4.226   5.269   4.679
17314WAT      O52183   7.585   2.769   0.568
17314WAT     H152184   7.539   2.852   0.602
17314WAT     H252185   7.619   2.786   0.476
17315WAT      O52186   5.699   1.644   9.449
17315WAT     H152187   5.729   1.682   9.361
17315WAT     H252188   5.700   1.544   9.444
17316WAT      O52189   6.874   4.831   5.438
17316WAT     H152190   6.953   4.858   5.383
17316WAT     H252191   6.904   4.811   5.531
17317WAT      O52192   7.804   7.438   5.174
17317WAT     H152193   7.712   7.402   5.161
17317WAT     H252194   7.872   7.366   5.158
17318WAT      O52195   3.274   2.528   4.132
17318WAT     H152196   3.206   2.583   4.083
17318WAT     H252197   3.229   2.476   4.205
17319WAT      O52198   4.246   5.790   8.480
17319WAT     H152199   4.330   5.777   8.429
17319WAT     H252200   4.169   5.755   8.427
17320WAT      O52201   7.138   5.521   2.949
17320WAT     H152202   7.084   5.570   3.017
17320WAT     H252203   7.228   5.563   2.941
17321WAT      O52204   5.238   7.187   5.251
17321WAT     H152205   5.171   7.173   5.178
17321WAT     H252206   5.246   7.285   5.270
17322WAT      O52207   8.526   4.333   7.055
17322WAT     H152208   8.506   4.286   7.140
17322WAT     H252209   8.443   4.375   7.019
17323WAT      O52210   0.884   1.137   6.377
17323WAT     H152211   0.850   1.133   6.283
17323WAT     H252212   0.943   1.216   6.388
17324WAT      O52213   6.412   5.938   3.929
17324WAT     H152214   6.475   5.929   3.851
17324WAT     H252215   6.334   5.877   3.915
17325WAT      O52216   4.354   4.955   8.063
17325WAT     H152217   4.381   4.891   7.990
17325WAT     H252218   4.260   4.985   8.047
17326WAT      O52219   0.756   3.612   9.229
17326WAT     H152220   0.757   3.547   9.153
17326WAT     H252221   0.830   3.591   9.293
17327WAT      O52222   0.160   4.361   2.568
17327WAT     H152223   0.230   4.339   2.501
17327WAT     H252224   0.175   4.453   2.603
17328WAT      O52225   3.810   2.514   7.071
17328WAT     H152226   3.742   2.567   7.121
17328WAT     H252227   3.899   2.558   7.080
17329WAT      O52228   6.092   6.610   1.187
17329WAT     H152229   6.132   6.527   1.148
17329WAT     H252230   6.151   6.688   1.168
17330WAT      O52231   5.267   9.740   1.646
17330WAT     H152232   5.340   9.744   1.579
17330WAT     H252233   5.305   9.729   1.737
17331WAT      O52234   6.394   7.269   0.315
17331WAT     H152235   6.463   7.316   0.261
17331WAT     H252236   6.304   7.284   0.274
17332WAT      O52237   6.191   9.002   7.422
17332WAT     H152238   6.268   9.019   7.361
17332WAT     H252239   6.210   8.921   7.478
17333WAT      O52240   4.670   0.895   9.041
17333WAT     H152241   4.694   0.985   9.077
17333WAT     H252242   4.652   0.903   8.943
17334WAT      O52243   9.028   9.811   4.265
17334WAT     H152244   9.101   9.770   4.320
17334WAT     H252245   9.034   9.776   4.171
17335WAT      O52246   2.508   2.680   2.181
17335WAT     H152247   2.567   2.645   2.108
17335WAT     H252248   2.420   2.706   2.143
17336WAT      O52249   5.208   8.988   5.602
17336WAT     H152250   5.128   9.046   5.596
17336WAT     H252251   5.181   8.892   5.592
17337WAT      O52252   7.142   9.345   5.714
17337WAT     H152253   7.118   9.439   5.741
17337WAT     H252254   7.242   9.337   5.709
17338WAT      O52255   1.046   8.497   6.114
17338WAT     H152256   0.957   8.453   6.105
17338WAT     H252257   1.083   8.479   6.204
17339WAT      O52258   6.025   0.263   8.592
17339WAT     H152259   6.053   0.168   8.607
17339WAT     H252260   5.931   0.275   8.624
17340WAT      O52261   9.799   0.157   1.078
17340WAT     H152262   9.706   0.137   1.109
17340WAT     H252263   9.836   0.078   1.029
17341WAT      O52264   5.740   0.607   3.743
17341WAT     H152265   5.641   0.599   3.727
17341WAT     H252266   5.782   0.517   3.734
17342WAT      O52267   6.609   0.482   4.512
17342WAT     H152268   6.527   0.521   4.472
17342WAT     H252269   6.587   0.392   4.551
17343WAT      O52270   1.252   4.531   5.793
17343WAT     H152271   1.319   4.597   5.828
17343WAT     H252272   1.196   4.575   5.723
17344WAT      O52273   9.714   1.561   7.572
17344WAT     H152274   9.665   1.544   7.487
17344WAT     H252275   9.785   1.630   7.557
17345WAT      O52276   1.557   8.623   3.484
17345WAT     H152277   1.464   8.656   3.499
17345WAT     H252278   1.591   8.657   3.396
17346WAT      O52279   2.317   3.818   4.984
17346WAT     H152280   2.362   3.907   4.982
17346WAT     H252281   2.332   3.771   4.898
17347WAT      O52282   3.825   1.856   9.706
17347WAT     H152283   3.840   1.955   9.717
17347WAT     H252284   3.888   1.806   9.766
17348WAT      O52285   9.740   0.066   4.160
17348WAT     H152286   9.766   0.135   4.093
17348WAT     H252287   9.809  -0.007   4.160
17349WAT      O52288   7.482   8.983   4.115
17349WAT     H152289   7.404   8.983   4.054
17349WAT     H252290   7.565   9.005   4.064
17350WAT      O52291   9.809   2.382   3.203
17350WAT     H152292   9.732   2.410   3.260
17350WAT     H252293   9.894   2.391   3.255
17351WAT      O52294   3.680   2.970   5.509
17351WAT     H152295   3.774   2.965   5.477
17351WAT     H252296   3.623   3.012   5.439
17352WAT      O52297   2.871   8.739   6.783
17352WAT     H152298   2.926   8.738   6.867
17352WAT     H252299   2.930   8.718   6.705
17353WAT      O52300   7.151   6.076   9.047
17353WAT     H152301   7.060   6.110   9.022
17353WAT     H252302   7.141   6.005   9.117
17354WAT      O52303   9.587   8.959   8.944
17354WAT     H152304   9.646   8.959   9.024
17354WAT     H252305   9.634   9.004   8.868
17355WAT      O52306   5.534   3.143   1.464
17355WAT     H152307   5.532   3.104   1.556
17355WAT     H252308   5.445   3.182   1.442
17356WAT      O52309   3.147   6.956   5.868
17356WAT     H152310   3.192   7.044   5.880
17356WAT     H252311   3.194   6.887   5.922
17357WAT      O52312   8.677   7.007   6.777
17357WAT     H152313   8.759   6.980   6.727
17357WAT     H252314   8.701   7.031   6.871
17358WAT      O52315   3.329   1.003   8.382
17358WAT     H152316   3.348   1.001   8.284
17358WAT     H252317   3.280   1.087   8.406
17359WAT      O52318   7.588   1.218   6.383
17359WAT     H152319   7.649   1.239   6.459
17359WAT     H252320   7.638   1.169   6.312
17360WAT      O52321   2.541   2.995   2.912
17360WAT     H152322   2.571   3.064   2.846
17360WAT     H252323   2.590   2.909   2.896
17361WAT      O52324   6.598   2.078   1.282
17361WAT     H152325   6.530   2.061   1.211
17361WAT     H252326   6.688   2.051   1.248
17362WAT      O52327   2.561   3.466   2.676
17362WAT     H152328   2.511   3.494   2.594
17362WAT     H252329   2.496   3.453   2.751
17363WAT      O52330   6.864   4.698   9.665
17363WAT     H152331   6.940   4.698   9.730
17363WAT     H252332   6.889   4.645   9.584
17364WAT      O52333   5.365   9.325   5.619
17364WAT     H152334   5.441   9.351   5.679
17364WAT     H252335   5.381   9.233   5.584
17365WAT      O52336   9.166   0.396   0.398
17365WAT     H152337   9.259   0.393   0.432
17365WAT     H252338   9.152   0.324   0.330
17366WAT      O52339   7.594   2.805   2.579
17366WAT     H152340   7.527   2.873   2.608
17366WAT     H252341   7.611   2.740   2.654
17367WAT      O52342   5.708   9.561   4.787
17367WAT     H152343   5.768   9.539   4.865
17367WAT     H252344   5.621   9.596   4.821
17368WAT      O52345   8.707   8.191   4.250
17368WAT     H152346   8.645   8.158   4.322
17368WAT     H252347   8.675   8.159   4.161
17369WAT      O52348   3.500   6.529   3.172
17369WAT     H152349   3.516   6.514   3.269
17369WAT     H252350   3.450   6.451   3.134
17370WAT      O52351   5.075   2.337   2.259
17370WAT     H152352   5.130   2.381   2.188
17370WAT     H252353   5.123   2.341   2.346
17371WAT      O52354   4.713   9.530   4.402
17371WAT     H152355   4.765   9.606   4.441
17371WAT     H252356   4.710   9.538   4.303
17372WAT      O52357   0.476   5.973   2.912
17372WAT     H152358   0.489   6.070   2.893
17372WAT     H252359   0.378   5.955   2.926
17373WAT      O52360   9.667   5.475   3.793
17373WAT     H152361   9.747   5.415   3.782
17373WAT     H252362   9.600   5.453   3.722
17374WAT      O52363   2.998   3.267   1.259
17374WAT     H152364   3.032   3.180   1.225
17374WAT     H252365   3.070   3.313   1.312
17375WAT      O52366   7.137   6.743   1.525
17375WAT     H152367   7.202   6.817   1.510
17375WAT     H252368   7.071   6.769   1.595
17376WAT      O52369   5.200   7.672   9.401
17376WAT     H152370   5.199   7.751   9.339
17376WAT     H252371   5.108   7.637   9.413
17377WAT      O52372   7.269   2.131   6.808
17377WAT     H152373   7.235   2.225   6.806
17377WAT     H252374   7.199   2.069   6.773
17378WAT      O52375   1.316   3.689   8.817
17378WAT     H152376   1.380   3.714   8.745
17378WAT     H252377   1.325   3.752   8.894
17379WAT      O52378   4.385   3.424   6.769
17379WAT     H152379   4.433   3.397   6.853
17379WAT     H252380   4.287   3.428   6.787
17380WAT      O52381   6.131   4.710   2.216
17380WAT     H152382   6.203   4.742   2.154
17380WAT     H252383   6.077   4.788   2.248
17381WAT      O52384   0.176   4.579   5.315
17381WAT     H152385   0.266   4.555   5.351
17381WAT     H252386   0.185   4.658   5.254
17382WAT      O52387   1.425   5.155   9.715
17382WAT     H152388   1.521   5.141   9.692
17382WAT     H252389   1.407   5.116   9.806
17383WAT      O52390   7.111   3.327   5.608
17383WAT     H152391   7.185   3.391   5.629
17383WAT     H252392   7.054   3.315   5.689
17384WAT      O52393   7.877   8.384   3.347
17384WAT     H152394   7.955   8.326   3.369
17384WAT     H252395   7.829   8.409   3.430
17385WAT      O52396   5.847   2.986   3.602
17385WAT     H152397   5.849   2.935   3.688
17385WAT     H252398   5.838   2.923   3.526
17386WAT      O52399   5.866   1.323   3.536
17386WAT     H152400   5.842   1.349   3.629
17386WAT     H252401   5.917   1.398   3.493
17387WAT      O52402   5.476   3.739   1.589
17387WAT     H152403   5.421   3.762   1.668
17387WAT     H252404   5.418   3.736   1.507
17388WAT      O52405   9.160   4.230   9.642
17388WAT     H152406   9.077   4.209   9.591
17388WAT     H252407   9.217   4.292   9.589
17389WAT      O52408   1.912   5.999   3.090
17389WAT     H152409   1.898   5.980   3.188
17389WAT     H252410   1.887   6.094   3.071
17390WAT      O52411   4.578   3.984   0.302
17390WAT     H152412   4.569   4.059   0.368
17390WAT     H252413   4.519   4.001   0.224
17391WAT      O52414   8.661   7.887   5.005
17391WAT     H152415   8.600   7.913   5.079
17391WAT     H252416   8.756   7.888   5.037
17392WAT      O52417   0.356   2.992   9.399
17392WAT     H152418   0.424   2.941   9.347
17392WAT     H252419   0.321   2.934   9.473
17393WAT      O52420   3.668   2.827   5.967
17393WAT     H152421   3.570   2.841   5.950
17393WAT     H252422   3.720   2.865   5.891
17394WAT      O52423   4.049   8.653   0.173
17394WAT     H152424   4.104   8.617   0.098
17394WAT     H252425   3.967   8.696   0.137
17395WAT      O52426   0.566   7.328   8.764
17395WAT     H152427   0.597   7.263   8.833
17395WAT     H252428   0.591   7.295   8.673
17396WAT      O52429   9.677   4.894   8.661
17396WAT     H152430   9.735   4.971   8.690
17396WAT     H252431   9.734   4.815   8.642
17397WAT      O52432   4.618   8.293   7.285
17397WAT     H152433   4.608   8.224   7.357
17397WAT     H252434   4.561   8.267   7.207
17398WAT      O52435   8.788   1.807   1.169
17398WAT     H152436   8.824   1.784   1.259
17398WAT     H252437   8.693   1.775   1.161
17399WAT      O52438   2.666   1.726   0.493
17399WAT     H152439   2.659   1.671   0.576
17399WAT     H252440   2.623   1.677   0.417
17400WAT      O52441   1.049   1.132   2.035
17400WAT     H152442   1.071   1.157   2.129
17400WAT     H252443   1.108   1.056   2.006
17401WAT      O52444   3.406   9.002   6.522
17401WAT     H152445   3.461   8.918   6.526
17401WAT     H252446   3.332   8.990   6.455
17402WAT      O52447   6.614   0.721   3.998
17402WAT     H152448   6.693   0.665   4.024
17402WAT     H252449   6.544   0.663   3.957
17403WAT      O52450   7.619   8.396   0.741
17403WAT     H152451   7.641   8.305   0.704
17403WAT     H252452   7.534   8.391   0.792
17404WAT      O52453   5.631   1.712   0.427
17404WAT     H152454   5.722   1.724   0.465
17404WAT     H252455   5.579   1.796   0.436
17405WAT      O52456   0.697   4.472   9.340
17405WAT     H152457   0.660   4.512   9.256
17405WAT     H252458   0.784   4.515   9.362
17406WAT      O52459   4.794   4.721   1.199
17406WAT     H152460   4.882   4.760   1.224
17406WAT     H252461   4.721   4.786   1.219
17407WAT      O52462   0.096   4.909   9.007
17407WAT     H152463   0.024   4.945   9.067
17407WAT     H252464   0.063   4.827   8.960
17408WAT      O52465   6.779   7.038   0.733
17408WAT     H152466   6.832   6.972   0.680
17408WAT     H252467   6.822   7.128   0.728
17409WAT      O52468   5.269   9.636   1.927
17409WAT     H152469   5.332   9.559   1.923
17409WAT     H252470   5.304   9.705   1.991
17410WAT      O52471   0.560   0.654   8.134
17410WAT     H152472   0.660   0.661   8.140
17410WAT     H252473   0.532   0.560   8.156
17411WAT      O52474   7.214   8.839   0.749
17411WAT     H152475   7.226   8.754   0.800
17411WAT     H252476   7.300   8.889   0.748
17412WAT      O52477   5.652   8.203   5.661
17412WAT     H152478   5.601   8.249   5.589
17412WAT     H252479   5.701   8.271   5.716
17413WAT      O52480   0.489   2.776   1.582
17413WAT     H152481   0.401   2.756   1.540
17413WAT     H252482   0.502   2.719   1.662
17414WAT      O52483   9.105   7.186   2.283
17414WAT     H152484   9.023   7.159   2.232
17414WAT     H252485   9.093   7.279   2.317
17415WAT      O52486   4.127   7.412   1.183
17415WAT     H152487   4.084   7.333   1.228
17415WAT     H252488   4.143   7.391   1.087
17416WAT      O52489   2.673   5.517   4.224
17416WAT     H152490   2.647   5.534   4.129
17416WAT     H252491   2.684   5.604   4.271
17417WAT      O52492   2.242   9.093   6.687
17417WAT     H152493   2.294   9.133   6.762
17417WAT     H252494   2.161   9.149   6.669
17418WAT      O52495   3.127   2.790   5.310
17418WAT     H152496   3.159   2.696   5.307
17418WAT     H252497   3.087   2.809   5.400
17419WAT      O52498   5.492   1.872   6.896
17419WAT     H152499   5.507   1.872   6.995
17419WAT     H252500   5.551   1.804   6.853
17420WAT      O52501   6.826   0.846   7.991
17420WAT     H152502   6.915   0.891   8.002
17420WAT     H252503   6.792   0.818   8.081
17421WAT      O52504   2.147   7.007   4.756
17421WAT     H152505   2.162   6.933   4.822
17421WAT     H252506   2.123   6.969   4.667
17422WAT      O52507   7.898   9.028   8.507
17422WAT     H152508   7.969   9.060   8.570
17422WAT     H252509   7.900   9.085   8.425
17423WAT      O52510   1.533   6.158   3.587
17423WAT     H152511   1.501   6.250   3.567
17423WAT     H252512   1.461   6.092   3.565
17424WAT      O52513   2.460   4.023   3.216
17424WAT     H152514   2.484   4.076   3.134
17424WAT     H252515   2.536   3.962   3.239
17425WAT      O52516   5.479   1.883   8.132
17425WAT     H152517   5.469   1.838   8.043
17425WAT     H252518   5.552   1.838   8.183
17426WAT      O52519   4.153   9.791   2.864
17426WAT     H152520   4.080   9.816   2.801
17426WAT     H252521   4.114   9.745   2.944
17427WAT      O52522   8.753   6.667   5.926
17427WAT     H152523   8.673   6.656   5.985
17427WAT     H252524   8.739   6.616   5.841
17428WAT      O52525   4.283   5.798   4.057
17428WAT     H152526   4.357   5.732   4.043
17428WAT     H252527   4.240   5.818   3.969
17429WAT      O52528   8.900   6.923   7.283
17429WAT     H152529   8.815   6.896   7.327
17429WAT     H252530   8.934   7.007   7.325
17430WAT      O52531   8.015   5.080   6.433
17430WAT     H152532   8.066   5.117   6.355
17430WAT     H252533   7.921   5.058   6.404
17431WAT      O52534   2.260   8.701   7.990
17431WAT     H152535   2.175   8.653   7.970
17431WAT     H252536   2.241   8.797   8.008
17432WAT      O52537   7.931   0.879   2.196
17432WAT     H152538   7.861   0.876   2.125
17432WAT     H252539   7.991   0.800   2.186
17433WAT      O52540   6.385   3.715   8.924
17433WAT     H152541   6.459   3.720   8.992
17433WAT     H252542   6.358   3.808   8.899
17434WAT      O52543   0.755   6.715   9.764
17434WAT     H152544   0.673   6.753   9.722
17434WAT     H252545   0.836   6.745   9.713
17435WAT      O52546   6.216   6.554   9.484
17435WAT     H152547   6.187   6.613   9.409
17435WAT     H252548   6.247   6.466   9.448
17436WAT      O52549   9.029   6.646   1.676
17436WAT     H152550   9.096   6.593   1.625
17436WAT     H252551   8.945   6.593   1.686
17437WAT      O52552   6.498   4.359   9.120
17437WAT     H152553   6.540   4.432   9.066
17437WAT     H252554   6.412   4.391   9.159
17438WAT      O52555   6.337   7.813   7.411
17438WAT     H152556   6.407   7.879   7.441
17438WAT     H252557   6.246   7.851   7.426
17439WAT      O52558   6.108   8.957   9.080
17439WAT     H152559   6.163   9.037   9.103
17439WAT     H252560   6.054   8.976   8.998
17440WAT      O52561   6.336   0.166   9.430
17440WAT     H152562   6.357   0.163   9.332
17440WAT     H252563   6.409   0.121   9.481
17441WAT      O52564   4.293   0.136   9.790
17441WAT     H152565   4.387   0.169   9.801
17441WAT     H252566   4.252   0.179   9.710
17442WAT      O52567   1.698   6.209   0.872
17442WAT     H152568   1.618   6.269   0.869
17442WAT     H252569   1.771   6.248   0.816
17443WAT      O52570   9.054   6.501   5.372
17443WAT     H152571   9.079   6.504   5.469
17443WAT     H252572   9.119   6.555   5.319
17444WAT      O52573   6.642   0.379   1.329
17444WAT     H152574   6.609   0.302   1.273
17444WAT     H252575   6.600   0.373   1.420
17445WAT      O52576   2.292   3.919   7.468
17445WAT     H152577   2.304   3.829   7.426
17445WAT     H252578   2.209   3.961   7.432
17446WAT      O52579   4.387   2.901   8.314
17446WAT     H152580   4.355   2.979   8.368
17446WAT     H252581   4.407   2.930   8.221
17447WAT      O52582   6.476   6.913   4.331
17447WAT     H152583   6.408   6.892   4.261
17447WAT     H252584   6.567   6.917   4.290
17448WAT      O52585   8.228   5.333   4.105
17448WAT     H152586   8.251   5.255   4.046
17448WAT     H252587   8.206   5.300   4.197
17449WAT      O52588   3.963   5.084   2.560
17449WAT     H152589   4.044   5.025   2.551
17449WAT     H252590   3.990   5.180   2.546
17450WAT      O52591   2.701   0.782   2.343
17450WAT     H152592   2.693   0.768   2.442
17450WAT     H252593   2.616   0.756   2.298
17451WAT      O52594   6.765   6.658   5.976
17451WAT     H152595   6.720   6.730   5.922
17451WAT     H252596   6.818   6.700   6.049
17452WAT      O52597   6.691   9.167   7.491
17452WAT     H152598   6.598   9.204   7.495
17452WAT     H252599   6.712   9.122   7.578
17453WAT      O52600   0.455   0.163   7.175
17453WAT     H152601   0.535   0.158   7.115
17453WAT     H252602   0.425   0.259   7.182
17454WAT      O52603   8.428   5.619   6.526
17454WAT     H152604   8.420   5.625   6.426
17454WAT     H252605   8.518   5.581   6.549
17455WAT      O52606   3.853   8.824   1.615
17455WAT     H152607   3.933   8.882   1.631
17455WAT     H252608   3.819   8.789   1.702
17456WAT      O52609   9.497   8.289   2.990
17456WAT     H152610   9.472   8.202   2.948
17456WAT     H252611   9.545   8.271   3.076
17457WAT      O52612   7.479   2.209   0.544
17457WAT     H152613   7.444   2.288   0.593
17457WAT     H252614   7.428   2.198   0.458
17458WAT      O52615   5.589   8.230   8.757
17458WAT     H152616   5.529   8.174   8.700
17458WAT     H252617   5.620   8.310   8.705
17459WAT      O52618   5.178   7.492   9.784
17459WAT     H152619   5.137   7.438   9.710
17459WAT     H252620   5.208   7.430   9.857
17460WAT      O52621   0.625   4.656   4.838
17460WAT     H152622   0.624   4.747   4.880
17460WAT     H252623   0.583   4.590   4.901
17461WAT      O52624   6.867   2.012   2.925
17461WAT     H152625   6.834   1.987   2.834
17461WAT     H252626   6.904   1.931   2.971
17462WAT      O52627   5.638   6.497   1.369
17462WAT     H152628   5.670   6.455   1.454
17462WAT     H252629   5.706   6.564   1.338
17463WAT      O52630   8.184   4.578   4.998
17463WAT     H152631   8.200   4.606   4.903
17463WAT     H252632   8.268   4.540   5.036
17464WAT      O52633   8.606   3.328   0.902
17464WAT     H152634   8.574   3.374   0.985
17464WAT     H252635   8.537   3.264   0.870
17465WAT      O52636   4.582   3.393   6.567
17465WAT     H152637   4.590   3.480   6.519
17465WAT     H252638   4.522   3.404   6.647
17466WAT      O52639   9.668   7.827   9.760
17466WAT     H152640   9.732   7.824   9.684
17466WAT     H252641   9.602   7.753   9.751
17467WAT      O52642   0.537   0.317   6.490
17467WAT     H152643   0.582   0.310   6.579
17467WAT     H252644   0.481   0.399   6.487
17468WAT      O52645   7.699   9.416   1.548
17468WAT     H152646   7.641   9.378   1.476
17468WAT     H252647   7.794   9.390   1.531
17469WAT      O52648   4.113   0.582   3.262
17469WAT     H152649   4.032   0.570   3.318
17469WAT     H252650   4.139   0.679   3.261
17470WAT      O52651   8.447   0.906   6.296
17470WAT     H152652   8.405   0.823   6.259
17470WAT     H252653   8.401   0.931   6.381
17471WAT      O52654   1.085   7.020   5.992
17471WAT     H152655   1.119   6.929   6.018
17471WAT     H252656   0.993   7.011   5.954
17472WAT      O52657   9.526   3.101   8.524
17472WAT     H152658   9.562   3.076   8.614
17472WAT     H252659   9.443   3.049   8.506
17473WAT      O52660   0.121   2.864   5.420
17473WAT     H152661   0.160   2.937   5.363
17473WAT     H252662   0.169   2.779   5.403
17474WAT      O52663   4.511   3.773   9.259
17474WAT     H152664   4.585   3.791   9.325
17474WAT     H252665   4.511   3.676   9.236
17475WAT      O52666   2.962   7.237   5.841
17475WAT     H152667   2.874   7.281   5.825
17475WAT     H252668   2.965   7.202   5.935
17476WAT      O52669   6.030   1.015   7.617
17476WAT     H152670   6.033   0.955   7.697
17476WAT     H252671   6.011   0.961   7.535
17477WAT      O52672   4.998   9.243   8.034
17477WAT     H152673   4.953   9.324   7.997
17477WAT     H252674   5.065   9.209   7.967
17478WAT      O52675   8.549   6.566   2.903
17478WAT     H152676   8.486   6.507   2.953
17478WAT     H252677   8.583   6.638   2.964
17479WAT      O52678   8.065   2.291   3.408
17479WAT     H152679   8.104   2.352   3.339
17479WAT     H252680   8.133   2.274   3.479
17480WAT      O52681   7.820   3.728   9.533
17480WAT     H152682   7.833   3.781   9.449
17480WAT     H252683   7.730   3.748   9.571
17481WAT      O52684   6.179   1.730   1.461
17481WAT     H152685   6.081   1.719   1.477
17481WAT     H252686   6.225   1.745   1.549
17482WAT      O52687   1.364   3.762   1.090
17482WAT     H152688   1.271   3.794   1.076
17482WAT     H252689   1.384   3.758   1.188
17483WAT      O52690   4.822   8.921   1.465
17483WAT     H152691   4.836   8.950   1.370
17483WAT     H252692   4.781   8.997   1.516
17484WAT      O52693   1.699   2.486   9.820
17484WAT     H152694   1.760   2.420   9.776
17484WAT     H252695   1.639   2.440   9.885
17485WAT      O52696   5.387   2.614   7.636
17485WAT     H152697   5.368   2.704   7.597
17485WAT     H252698   5.317   2.592   7.704
17486WAT      O52699   8.272   1.560   2.791
17486WAT     H152700   8.310   1.476   2.752
17486WAT     H252701   8.172   1.558   2.782
17487WAT      O52702   6.502   0.369   1.592
17487WAT     H152703   6.550   0.371   1.679
17487WAT     H252704   6.433   0.296   1.593
17488WAT      O52705   8.350   8.787   4.838
17488WAT     H152706   8.318   8.866   4.890
17488WAT     H252707   8.300   8.781   4.752
17489WAT      O52708   4.145   2.324   9.051
17489WAT     H152709   4.190   2.260   8.989
17489WAT     H252710   4.154   2.291   9.145
17490WAT      O52711   2.538   7.272   3.394
17490WAT     H152712   2.454   7.299   3.347
17490WAT     H252713   2.581   7.196   3.345
17491WAT      O52714   7.881   8.839   3.664
17491WAT     H152715   7.785   8.863   3.675
17491WAT     H252716   7.935   8.922   3.651
17492WAT      O52717   5.131   4.129   6.760
17492WAT     H152718   5.215   4.083   6.790
17492WAT     H252719   5.054   4.065   6.765
17493WAT      O52720   1.811   0.263   0.367
17493WAT     H152721   1.800   0.175   0.320
17493WAT     H252722   1.829   0.247   0.464
17494WAT      O52723   6.827   7.100   0.120
17494WAT     H152724   6.843   7.059   0.031
17494WAT     H252725   6.729   7.118   0.132
17495WAT      O52726   9.156   0.648   5.700
17495WAT     H152727   9.085   0.580   5.717
17495WAT     H252728   9.161   0.711   5.777
17496WAT      O52729   8.300   5.480   7.473
17496WAT     H152730   8.381   5.505   7.525
17496WAT     H252731   8.250   5.408   7.522
17497WAT      O52732   7.189   5.811   7.779
17497WAT     H152733   7.131   5.890   7.798
17497WAT     H252734   7.190   5.793   7.681
17498WAT      O52735   7.288   1.437   8.684
17498WAT     H152736   7.249   1.515   8.637
17498WAT     H252737   7.224   1.404   8.753
17499WAT      O52738   7.247   2.843   2.981
17499WAT     H152739   7.171   2.799   2.933
17499WAT     H252740   7.264   2.933   2.941
17500WAT      O52741   3.711   8.585   7.298
17500WAT     H152742   3.768   8.504   7.286
17500WAT     H252743   3.737   8.654   7.230
17501WAT      O52744   8.183   2.321   1.590
17501WAT     H152745   8.186   2.262   1.671
17501WAT     H252746   8.263   2.382   1.590
17502WAT      O52747   2.390   9.527   9.664
17502WAT     H152748   2.473   9.474   9.653
17502WAT     H252749   2.347   9.541   9.575
17503WAT      O52750   3.100   6.959   4.691
17503WAT     H152751   3.131   6.865   4.703
17503WAT     H252752   3.028   6.979   4.757
17504WAT      O52753   2.166   8.988   9.519
17504WAT     H152754   2.177   9.053   9.444
17504WAT     H252755   2.071   8.991   9.552
17505WAT      O52756   2.618   6.372   4.678
17505WAT     H152757   2.662   6.424   4.605
17505WAT     H252758   2.686   6.320   4.729
17506WAT      O52759   5.539   7.377   7.237
17506WAT     H152760   5.496   7.461   7.270
17506WAT     H252761   5.473   7.301   7.244
17507WAT      O52762   8.398   7.180   8.145
17507WAT     H152763   8.439   7.213   8.230
17507WAT     H252764   8.403   7.252   8.076
17508WAT      O52765   1.121   1.354   5.246
17508WAT     H152766   1.023   1.376   5.244
17508WAT     H252767   1.165   1.388   5.163
17509WAT      O52768   1.196   8.724   9.886
17509WAT     H152769   1.178   8.626   9.893
17509WAT     H252770   1.291   8.738   9.857
17510WAT      O52771   8.513   6.214   6.104
17510WAT     H152772   8.470   6.244   6.019
17510WAT     H252773   8.452   6.152   6.152
17511WAT      O52774   7.445   2.328   6.271
17511WAT     H152775   7.536   2.290   6.261
17511WAT     H252776   7.408   2.304   6.361
17512WAT      O52777   8.262   9.242   4.108
17512WAT     H152778   8.187   9.296   4.146
17512WAT     H252779   8.349   9.275   4.144
17513WAT      O52780   2.724   7.687   8.802
17513WAT     H152781   2.818   7.655   8.787
17513WAT     H252782   2.699   7.672   8.897
17514WAT      O52783   2.672   0.179   3.563
17514WAT     H152784   2.663   0.079   3.562
17514WAT     H252785   2.679   0.213   3.470
17515WAT      O52786   5.532   2.279   1.646
17515WAT     H152787   5.529   2.351   1.716
17515WAT     H252788   5.445   2.279   1.595
17516WAT      O52789   6.956   0.033   2.663
17516WAT     H152790   6.973   0.062   2.757
17516WAT     H252791   6.998  -0.057   2.648
17517WAT      O52792   9.383   8.263   4.475
17517WAT     H152793   9.299   8.309   4.444
17517WAT     H252794   9.462   8.318   4.449
17518WAT      O52795   1.185   2.925   8.100
17518WAT     H152796   1.191   2.926   8.200
17518WAT     H252797   1.097   2.965   8.072
17519WAT      O52798   7.394   6.046   5.642
17519WAT     H152799   7.469   5.981   5.628
17519WAT     H252800   7.313   6.013   5.593
17520WAT      O52801   4.081   7.288   3.290
17520WAT     H152802   4.034   7.340   3.361
17520WAT     H252803   4.152   7.231   3.332
17521WAT      O52804   4.538   1.808   6.725
17521WAT     H152805   4.447   1.777   6.697
17521WAT     H252806   4.586   1.843   6.646
17522WAT      O52807   2.091   5.302   8.556
17522WAT     H152808   2.070   5.356   8.475
17522WAT     H252809   2.153   5.353   8.616
17523WAT      O52810   5.696   0.296   8.220
17523WAT     H152811   5.626   0.224   8.221
17523WAT     H252812   5.669   0.368   8.156
17524WAT      O52813   6.959   6.538   8.536
17524WAT     H152814   6.984   6.530   8.440
17524WAT     H252815   6.897   6.615   8.548
17525WAT      O52816   0.624   1.906   4.924
17525WAT     H152817   0.527   1.884   4.925
17525WAT     H252818   0.637   1.997   4.884
17526WAT      O52819   2.060   5.373   0.921
17526WAT     H152820   2.089   5.425   0.841
17526WAT     H252821   2.104   5.284   0.921
17527WAT      O52822   2.829   5.125   3.971
17527WAT     H152823   2.894   5.121   4.047
17527WAT     H252824   2.751   5.065   3.990
17528WAT      O52825   9.128   2.812   3.989
17528WAT     H152826   9.091   2.764   3.909
17528WAT     H252827   9.143   2.746   4.063
17529WAT      O52828   8.273   9.366   0.914
17529WAT     H152829   8.212   9.444   0.923
17529WAT     H252830   8.253   9.317   0.829
17530WAT      O52831   8.773   6.460   8.978
17530WAT     H152832   8.798   6.555   8.962
17530WAT     H252833   8.708   6.454   9.054
17531WAT      O52834   8.860   0.132   5.094
17531WAT     H152835   8.839   0.068   5.168
17531WAT     H252836   8.893   0.218   5.133
17532WAT      O52837   3.815   8.767   3.344
17532WAT     H152838   3.831   8.866   3.347
17532WAT     H252839   3.840   8.727   3.432
17533WAT      O52840   3.512   0.013   8.532
17533WAT     H152841   3.523   0.108   8.505
17533WAT     H252842   3.414  -0.010   8.536
17534WAT      O52843   6.407   3.245   4.217
17534WAT     H152844   6.427   3.220   4.122
17534WAT     H252845   6.308   3.246   4.232
17535WAT      O52846   0.181   0.984   5.410
17535WAT     H152847   0.230   0.941   5.333
17535WAT     H252848   0.083   0.976   5.395
17536WAT      O52849   8.399   7.868   7.718
17536WAT     H152850   8.395   7.895   7.814
17536WAT     H252851   8.371   7.772   7.710
17537WAT      O52852   1.528   6.846   4.535
17537WAT     H152853   1.467   6.926   4.530
17537WAT     H252854   1.482   6.773   4.587
17538WAT      O52855   7.342   2.537   6.109
17538WAT     H152856   7.249   2.515   6.081
17538WAT     H252857   7.380   2.460   6.160
17539WAT      O52858   4.464   8.987   3.830
17539WAT     H152859   4.370   9.013   3.808
17539WAT     H252860   4.478   8.891   3.810
17540WAT      O52861   1.036   2.025   3.207
17540WAT     H152862   1.117   1.987   3.251
17540WAT     H252863   1.001   2.102   3.262
17541WAT      O52864   8.812   6.516   8.344
17541WAT     H152865   8.751   6.445   8.309
17541WAT     H252866   8.795   6.602   8.295
17542WAT      O52867   9.707   7.626   5.037
17542WAT     H152868   9.734   7.718   5.008
17542WAT     H252869   9.782   7.584   5.088
17543WAT      O52870   1.877   8.763   4.988
17543WAT     H152871   1.863   8.773   4.890
17543WAT     H252872   1.801   8.710   5.027
17544WAT      O52873   4.907   5.786   3.588
17544WAT     H152874   4.946   5.775   3.497
17544WAT     H252875   4.908   5.883   3.613
17545WAT      O52876   6.395   6.998   7.458
17545WAT     H152877   6.331   6.922   7.447
17545WAT     H252878   6.369   7.072   7.395
17546WAT      O52879   7.168   0.010   8.398
17546WAT     H152880   7.072   0.039   8.392
17546WAT     H252881   7.189  -0.052   8.323
17547WAT      O52882   9.001   3.432   4.407
17547WAT     H152883   9.054   3.380   4.474
17547WAT     H252884   9.058   3.505   4.369
17548WAT      O52885   8.647   9.799   1.030
17548WAT     H152886   8.578   9.857   0.988
17548WAT     H252887   8.608   9.709   1.050
17549WAT      O52888   6.310   6.836   2.268
17549WAT     H152889   6.293   6.929   2.301
17549WAT     H252890   6.373   6.840   2.190
17550WAT      O52891   1.363   9.284   7.305
17550WAT     H152892   1.273   9.264   7.343
17550WAT     H252893   1.389   9.378   7.327
17551WAT      O52894   4.610   8.407   4.090
17551WAT     H152895   4.710   8.409   4.088
17551WAT     H252896   4.579   8.314   4.112
17552WAT      O52897   1.452   2.422   7.478
17552WAT     H152898   1.397   2.366   7.416
17552WAT     H252899   1.406   2.508   7.496
17553WAT      O52900   2.124   7.920   0.818
17553WAT     H152901   2.117   7.880   0.910
17553WAT     H252902   2.125   7.847   0.750
17554WAT      O52903   4.011   0.010   8.519
17554WAT     H152904   4.013   0.088   8.457
17554WAT     H252905   4.091  -0.048   8.503
17555WAT      O52906   3.270   9.079   2.905
17555WAT     H152907   3.343   9.146   2.888
17555WAT     H252908   3.268   9.057   3.003
17556WAT      O52909   9.729   2.774   9.017
17556WAT     H152910   9.777   2.712   9.078
17556WAT     H252911   9.635   2.786   9.049
17557WAT      O52912   5.279   3.664   0.147
17557WAT     H152913   5.209   3.609   0.193
17557WAT     H252914   5.370   3.633   0.176
17558WAT      O52915   6.244   0.636   1.313
17558WAT     H152916   6.315   0.641   1.383
17558WAT     H252917   6.160   0.599   1.353
17559WAT      O52918   7.176   3.782   9.187
17559WAT     H152919   7.137   3.862   9.233
17559WAT     H252920   7.103   3.720   9.159
17560WAT      O52921   4.681   9.018   4.423
17560WAT     H152922   4.636   8.937   4.385
17560WAT     H252923   4.707   8.999   4.518
17561WAT      O52924   7.136   6.449   0.908
17561WAT     H152925   7.044   6.488   0.907
17561WAT     H252926   7.157   6.416   1.000
17562WAT      O52927   7.353   0.909   4.678
17562WAT     H152928   7.450   0.882   4.673
17562WAT     H252929   7.328   0.956   4.594
17563WAT      O52930   3.335   9.485   7.947
17563WAT     H152931   3.242   9.467   7.917
17563WAT     H252932   3.379   9.549   7.884
17564WAT      O52933   2.821   2.831   8.483
17564WAT     H152934   2.846   2.927   8.466
17564WAT     H252935   2.735   2.811   8.437
17565WAT      O52936   0.700   2.787   0.950
17565WAT     H152937   0.673   2.790   0.854
17565WAT     H252938   0.634   2.732   1.002
17566WAT      O52939   3.636   5.741   8.432
17566WAT     H152940   3.675   5.688   8.507
17566WAT     H252941   3.551   5.698   8.401
17567WAT      O52942   9.000   6.812   8.662
17567WAT     H152943   8.944   6.734   8.637
17567WAT     H252944   8.989   6.885   8.595
17568WAT      O52945   3.161   1.778   8.160
17568WAT     H152946   3.104   1.781   8.078
17568WAT     H252947   3.216   1.861   8.165
17569WAT      O52948   9.837   6.452   8.881
17569WAT     H152949   9.797   6.361   8.870
17569WAT     H252950   9.791   6.500   8.956
17570WAT      O52951   2.647   6.156   2.039
17570WAT     H152952   2.736   6.130   2.003
17570WAT     H252953   2.654   6.243   2.087
17571WAT      O52954   6.339   8.467   2.083
17571WAT     H152955   6.251   8.514   2.072
17571WAT     H252956   6.406   8.508   2.021
17572WAT      O52957   0.452   0.875   8.683
17572WAT     H152958   0.538   0.885   8.633
17572WAT     H252959   0.383   0.836   8.622
17573WAT      O52960   7.889   7.513   2.218
17573WAT     H152961   7.901   7.599   2.168
17573WAT     H252962   7.841   7.531   2.304
17574WAT      O52963   5.161   2.377   9.069
17574WAT     H152964   5.242   2.364   9.012
17574WAT     H252965   5.157   2.305   9.138
17575WAT      O52966   4.940   4.639   0.139
17575WAT     H152967   4.913   4.577   0.213
17575WAT     H252968   5.039   4.631   0.124
17576WAT      O52969   9.231   8.171   5.897
17576WAT     H152970   9.239   8.250   5.835
17576WAT     H252971   9.275   8.092   5.855
17577WAT      O52972   6.021   7.950   3.638
17577WAT     H152973   6.120   7.965   3.630
17577WAT     H252974   6.003   7.888   3.715
17578WAT      O52975   7.668  -0.001   4.386
17578WAT     H152976   7.602  -0.025   4.315
17578WAT     H252977   7.664   0.098   4.403
17579WAT      O52978   0.485   9.085   1.810
17579WAT     H152979   0.571   9.059   1.854
17579WAT     H252980   0.487   9.181   1.785
17580WAT      O52981   8.429   3.607   7.225
17580WAT     H152982   8.419   3.702   7.197
17580WAT     H252983   8.345   3.557   7.207
17581WAT      O52984   9.083   2.968   9.595
17581WAT     H152985   9.112   3.043   9.535
17581WAT     H252986   9.049   2.892   9.540
17582WAT      O52987   7.737   9.496   3.751
17582WAT     H152988   7.640   9.494   3.725
17582WAT     H252989   7.754   9.575   3.809
17583WAT      O52990   2.447   6.920   6.104
17583WAT     H152991   2.508   6.927   6.025
17583WAT     H252992   2.493   6.872   6.178
17584WAT      O52993   0.740   1.119   7.629
17584WAT     H152994   0.687   1.192   7.673
17584WAT     H252995   0.681   1.069   7.565
17585WAT      O52996   4.458   8.918   3.201
17585WAT     H152997   4.457   8.920   3.101
17585WAT     H252998   4.470   8.824   3.232
17586WAT      O52999   9.223   5.623   6.320
17586WAT     H153000   9.158   5.685   6.366
17586WAT     H253001   9.313   5.633   6.362
17587WAT      O53002   0.321   0.470   6.095
17587WAT     H153003   0.252   0.542   6.091
17587WAT     H253004   0.399   0.495   6.038
17588WAT      O53005   8.451   2.468   8.697
17588WAT     H153006   8.459   2.567   8.683
17588WAT     H253007   8.541   2.431   8.719
17589WAT      O53008   0.822   1.399   7.957
17589WAT     H153009   0.835   1.458   8.036
17589WAT     H253010   0.820   1.455   7.874
17590WAT      O53011   4.126   7.279   5.711
17590WAT     H153012   4.140   7.307   5.616
17590WAT     H253013   4.073   7.349   5.759
17591WAT      O53014   1.705   6.493   1.307
17591WAT     H153015   1.797   6.515   1.274
17591WAT     H253016   1.637   6.527   1.242
17592WAT      O53017   0.757   0.848   6.031
17592WAT     H153018   0.716   0.801   5.953
17592WAT     H253019   0.759   0.786   6.109
17593WAT      O53020   9.151   6.997   2.977
17593WAT     H153021   9.156   7.074   3.041
17593WAT     H253022   9.186   6.914   3.022
17594WAT      O53023   2.130   2.304   5.126
17594WAT     H153024   2.161   2.236   5.059
17594WAT     H253025   2.086   2.379   5.078
17595WAT      O53026   2.673   7.820   2.383
17595WAT     H153027   2.587   7.783   2.348
17595WAT     H253028   2.658   7.911   2.420
17596WAT      O53029   8.962   2.038   1.076
17596WAT     H153030   8.995   1.973   1.007
17596WAT     H253031   8.881   2.001   1.121
17597WAT      O53032   9.880   6.727   3.549
17597WAT     H153033   9.809   6.774   3.602
17597WAT     H253034   9.848   6.715   3.455
17598WAT      O53035   4.150   3.152   5.102
17598WAT     H153036   4.172   3.145   5.004
17598WAT     H253037   4.107   3.241   5.119
17599WAT      O53038   0.173   1.867   2.877
17599WAT     H153039   0.257   1.823   2.909
17599WAT     H253040   0.183   1.889   2.780
17600WAT      O53041   6.711   0.014   0.023
17600WAT     H153042   6.795   0.053  -0.014
17600WAT     H253043   6.632   0.055  -0.023
17601WAT      O53044   5.921   9.123   6.159
17601WAT     H153045   6.019   9.138   6.151
17601WAT     H253046   5.898   9.032   6.124
17602WAT      O53047   5.349   9.403   9.827
17602WAT     H153048   5.346   9.348   9.744
17602WAT     H253049   5.331   9.345   9.907
17603WAT      O53050   6.487   0.370   7.382
17603WAT     H153051   6.408   0.315   7.409
17603WAT     H253052   6.507   0.355   7.285
17604WAT      O53053   6.575   1.826   8.673
17604WAT     H153054   6.583   1.901   8.739
17604WAT     H253055   6.478   1.806   8.656
17605WAT      O53056   9.735   9.404   1.085
17605WAT     H153057   9.717   9.326   1.026
17605WAT     H253058   9.651   9.456   1.098
17606WAT      O53059   7.926   9.673   7.076
17606WAT     H153060   7.891   9.764   7.055
17606WAT     H253061   7.935   9.621   6.991
17607WAT      O53062   2.440   2.176   9.189
17607WAT     H153063   2.395   2.093   9.155
17607WAT     H253064   2.450   2.170   9.288
17608WAT      O53065   8.827   9.443   0.991
17608WAT     H153066   8.875   9.408   1.071
17608WAT     H253067   8.792   9.367   0.937
17609WAT      O53068   5.206   6.583   6.521
17609WAT     H153069   5.122   6.597   6.469
17609WAT     H253070   5.268   6.660   6.507
17610WAT      O53071   6.210   4.537   7.667
17610WAT     H153072   6.145   4.460   7.666
17610WAT     H253073   6.247   4.551   7.575
17611WAT      O53074   7.055   8.440   0.707
17611WAT     H153075   7.020   8.481   0.623
17611WAT     H253076   7.103   8.510   0.760
17612WAT      O53077   1.090   9.362   2.444
17612WAT     H153078   1.035   9.356   2.527
17612WAT     H253079   1.139   9.449   2.443
17613WAT      O53080   2.311   8.462   0.069
17613WAT     H153081   2.254   8.466   0.151
17613WAT     H253082   2.344   8.554   0.047
17614WAT      O53083   7.266   9.659   6.346
17614WAT     H153084   7.315   9.726   6.290
17614WAT     H253085   7.168   9.682   6.346
17615WAT      O53086   6.189   7.836   6.464
17615WAT     H153087   6.241   7.902   6.410
17615WAT     H253088   6.096   7.829   6.428
17616WAT      O53089   7.467   8.749   0.219
17616WAT     H153090   7.432   8.820   0.281
17616WAT     H253091   7.502   8.672   0.273
17617WAT      O53092   0.075   4.455   6.871
17617WAT     H153093   0.067   4.446   6.772
17617WAT     H253094   0.100   4.367   6.910
17618WAT      O53095   4.436   3.708   9.670
17618WAT     H153096   4.523   3.689   9.716
17618WAT     H253097   4.415   3.805   9.677
17619WAT      O53098   2.784   0.039   6.325
17619WAT     H153099   2.758   0.104   6.254
17619WAT     H253100   2.876   0.060   6.358
17620WAT      O53101   2.968   5.349   7.165
17620WAT     H153102   3.044   5.353   7.230
17620WAT     H253103   2.996   5.298   7.084
17621WAT      O53104   4.528   6.436   4.001
17621WAT     H153105   4.546   6.388   4.087
17621WAT     H253106   4.603   6.500   3.983
17622WAT      O53107   9.168   9.503   2.758
17622WAT     H153108   9.147   9.554   2.841
17622WAT     H253109   9.118   9.543   2.681
17623WAT      O53110   3.831   6.967   5.473
17623WAT     H153111   3.910   6.976   5.534
17623WAT     H253112   3.816   6.871   5.451
17624WAT      O53113   1.949   8.510   8.444
17624WAT     H153114   1.915   8.528   8.351
17624WAT     H253115   2.045   8.536   8.450
17625WAT      O53116   8.979   5.359   9.624
17625WAT     H153117   9.059   5.374   9.566
17625WAT     H253118   8.937   5.446   9.647
17626WAT      O53119   3.913   1.814   0.366
17626WAT     H153120   3.949   1.787   0.455
17626WAT     H253121   3.816   1.836   0.374
17627WAT      O53122   6.856   1.518   5.821
17627WAT     H153123   6.758   1.501   5.832
17627WAT     H253124   6.908   1.454   5.877
17628WAT      O53125   6.859   5.259   0.616
17628WAT     H153126   6.850   5.303   0.527
17628WAT     H253127   6.773   5.212   0.638
17629WAT      O53128   7.332   7.834   4.011
17629WAT     H153129   7.289   7.833   4.102
17629WAT     H253130   7.399   7.908   4.008
17630WAT      O53131   0.547   8.962   0.253
17630WAT     H153132   0.628   8.938   0.199
17630WAT     H253133   0.466   8.955   0.196
17631WAT      O53134   2.411   6.895   1.040
17631WAT     H153135   2.321   6.866   1.072
17631WAT     H253136   2.440   6.835   0.965
17632WAT      O53137   3.249   8.600   0.843
17632WAT     H153138   3.338   8.563   0.816
17632WAT     H253139   3.178   8.533   0.822
17633WAT      O53140   1.245   2.590   4.131
17633WAT     H153141   1.310   2.515   4.114
17633WAT     H253142   1.284   2.651   4.200
17634WAT      O53143   7.232   9.439   5.265
17634WAT     H153144   7.139   9.462   5.293
17634WAT     H253145   7.296   9.466   5.337
17635WAT      O53146   7.172   8.887   4.600
17635WAT     H153147   7.105   8.812   4.595
17635WAT     H253148   7.176   8.934   4.513
17636WAT      O53149   3.061   1.546   8.262
17636WAT     H153150   3.103   1.631   8.231
17636WAT     H253151   2.969   1.565   8.296
17637WAT      O53152   7.307   5.421   9.393
17637WAT     H153153   7.371   5.357   9.434
17637WAT     H253154   7.352   5.509   9.378
17638WAT      O53155   5.900   3.330   1.779
17638WAT     H153156   5.935   3.373   1.861
17638WAT     H253157   5.826   3.268   1.803
17639WAT      O53158   8.213   2.209   5.235
17639WAT     H153159   8.142   2.139   5.234
17639WAT     H253160   8.171   2.300   5.246
17640WAT      O53161   2.822   8.927   3.716
17640WAT     H153162   2.842   8.932   3.618
17640WAT     H253163   2.897   8.879   3.762
17641WAT      O53164   5.877   9.490   1.698
17641WAT     H153165   5.910   9.400   1.672
17641WAT     H253166   5.882   9.551   1.619
17642WAT      O53167   9.487   9.389   6.557
17642WAT     H153168   9.410   9.450   6.537
17642WAT     H253169   9.570   9.443   6.568
17643WAT      O53170   8.795   4.160   8.906
17643WAT     H153171   8.733   4.235   8.883
17643WAT     H253172   8.767   4.078   8.855
17644WAT      O53173   6.378   6.988   0.961
17644WAT     H153174   6.388   7.071   1.017
17644WAT     H253175   6.345   7.014   0.871
17645WAT      O53176   6.529   2.925   4.050
17645WAT     H153177   6.608   2.967   4.093
17645WAT     H253178   6.459   2.994   4.033
17646WAT      O53179   7.093   8.694   4.059
17646WAT     H153180   7.158   8.665   4.129
17646WAT     H253181   7.006   8.646   4.073
17647WAT      O53182   0.625   3.594   2.631
17647WAT     H153183   0.572   3.517   2.668
17647WAT     H253184   0.722   3.569   2.626
17648WAT      O53185   8.143   1.079   0.063
17648WAT     H153186   8.056   1.033   0.044
17648WAT     H253187   8.191   1.031   0.137
17649WAT      O53188   6.305   8.786   2.264
17649WAT     H153189   6.379   8.792   2.197
17649WAT     H253190   6.320   8.707   2.323
17650WAT      O53191   0.946   9.708   5.280
17650WAT     H153192   1.015   9.733   5.212
17650WAT     H253193   0.990   9.658   5.355
17651WAT      O53194   2.111   8.335   4.440
17651WAT     H153195   2.207   8.335   4.414
17651WAT     H253196   2.056   8.297   4.366
17652WAT      O53197   0.051   0.480   3.888
17652WAT     H153198   0.123   0.450   3.951
17652WAT     H253199   0.051   0.422   3.807
17653WAT      O53200   3.118   7.441   1.988
17653WAT     H153201   3.148   7.403   2.076
17653WAT     H253202   3.196   7.479   1.939
17654WAT      O53203   1.117   2.203   4.974
17654WAT     H153204   1.159   2.118   5.004
17654WAT     H253205   1.035   2.221   5.029
17655WAT      O53206   6.173   4.734   6.664
17655WAT     H153207   6.243   4.666   6.641
17655WAT     H253208   6.162   4.739   6.763
17656WAT      O53209   0.691   0.842   1.466
17656WAT     H153210   0.656   0.932   1.443
17656WAT     H253211   0.786   0.834   1.435
17657WAT      O53212   2.842   2.704   4.691
17657WAT     H153213   2.749   2.734   4.667
17657WAT     H253214   2.838   2.645   4.771
17658WAT      O53215   8.531   2.630   4.912
17658WAT     H153216   8.524   2.714   4.966
17658WAT     H253217   8.612   2.634   4.853
17659WAT      O53218   4.983   5.696   7.638
17659WAT     H153219   4.912   5.765   7.651
17659WAT     H253220   5.073   5.740   7.644
17660WAT      O53221   6.871   1.136   8.950
17660WAT     H153222   6.861   1.104   9.045
17660WAT     H253223   6.968   1.143   8.927
17661WAT      O53224   9.315   7.691   6.352
17661WAT     H153225   9.410   7.661   6.360
17661WAT     H253226   9.279   7.665   6.262
17662WAT      O53227   7.294   2.183   2.974
17662WAT     H153228   7.292   2.083   2.977
17662WAT     H253229   7.237   2.216   2.899
17663WAT      O53230   4.631   1.594   8.677
17663WAT     H153231   4.593   1.640   8.597
17663WAT     H253232   4.727   1.619   8.688
17664WAT      O53233   5.458   2.627   7.280
17664WAT     H153234   5.538   2.587   7.326
17664WAT     H253235   5.394   2.555   7.255
17665WAT      O53236   7.628   5.055   7.030
17665WAT     H153237   7.600   5.007   7.113
17665WAT     H253238   7.684   5.134   7.054
17666WAT      O53239   9.398   5.350   6.967
17666WAT     H153240   9.364   5.287   7.037
17666WAT     H253241   9.491   5.325   6.941
17667WAT      O53242   0.513   1.684   0.049
17667WAT     H153243   0.475   1.704  -0.041
17667WAT     H253244   0.472   1.601   0.085
17668WAT      O53245   6.277   2.243   8.599
17668WAT     H153246   6.276   2.207   8.693
17668WAT     H253247   6.184   2.245   8.562
17669WAT      O53248   0.201   8.006   1.233
17669WAT     H153249   0.191   7.920   1.182
17669WAT     H253250   0.183   7.989   1.330
17670WAT      O53251   4.446   3.704   6.166
17670WAT     H153252   4.496   3.790   6.154
17670WAT     H253253   4.387   3.688   6.086
17671WAT      O53254   5.048   8.199   7.549
17671WAT     H153255   5.067   8.264   7.475
17671WAT     H253256   5.022   8.111   7.509
17672WAT      O53257   2.106   1.878   5.688
17672WAT     H153258   2.145   1.786   5.677
17672WAT     H253259   2.065   1.907   5.602
17673WAT      O53260   3.085   1.480   2.015
17673WAT     H153261   3.043   1.475   1.925
17673WAT     H253262   3.184   1.475   2.006
17674WAT      O53263   4.706   5.177   7.433
17674WAT     H153264   4.697   5.174   7.333
17674WAT     H253265   4.760   5.098   7.463
17675WAT      O53266   2.698   8.209   6.845
17675WAT     H153267   2.764   8.189   6.773
17675WAT     H253268   2.699   8.135   6.913
17676WAT      O53269   9.073   3.564   3.357
17676WAT     H153270   9.134   3.532   3.430
17676WAT     H253271   9.000   3.498   3.344
17677WAT      O53272   2.038   1.103   8.558
17677WAT     H153273   1.961   1.163   8.582
17677WAT     H253274   2.052   1.106   8.460
17678WAT      O53275   7.599   0.006   7.072
17678WAT     H153276   7.587  -0.008   7.170
17678WAT     H253277   7.514  -0.017   7.024
17679WAT      O53278   0.809   1.273   2.016
17679WAT     H153279   0.895   1.230   1.986
17679WAT     H253280   0.825   1.370   2.030
17680WAT      O53281   3.220   0.019   4.218
17680WAT     H153282   3.135   0.064   4.246
17680WAT     H253283   3.248  -0.046   4.289
17681WAT      O53284   9.721   0.801   9.513
17681WAT     H153285   9.692   0.895   9.528
17681WAT     H253286   9.675   0.741   9.578
17682WAT      O53287   4.604   0.900   8.750
17682WAT     H153288   4.672   0.925   8.682
17682WAT     H253289   4.524   0.861   8.705
17683WAT      O53290   0.655   2.266   9.402
17683WAT     H153291   0.730   2.322   9.438
17683WAT     H253292   0.692   2.183   9.362
17684WAT      O53293   8.165   6.273   1.888
17684WAT     H153294   8.115   6.343   1.835
17684WAT     H253295   8.170   6.301   1.983
17685WAT      O53296   7.456   3.754   5.140
17685WAT     H153297   7.502   3.739   5.052
17685WAT     H253298   7.479   3.845   5.175
17686WAT      O53299   7.861   1.051   4.019
17686WAT     H153300   7.844   1.121   3.949
17686WAT     H253301   7.844   1.089   4.109
17687WAT      O53302   0.219   8.837   0.427
17687WAT     H153303   0.279   8.887   0.490
17687WAT     H253304   0.259   8.839   0.335
17688WAT      O53305   6.993   0.043   1.401
17688WAT     H153306   6.916   0.074   1.456
17688WAT     H253307   7.010   0.108   1.327
17689WAT      O53308   8.402   2.122   8.901
17689WAT     H153309   8.316   2.154   8.860
17689WAT     H253310   8.469   2.195   8.900
17690WAT      O53311   1.547   9.201   1.021
17690WAT     H153312   1.534   9.102   1.026
17690WAT     H253313   1.624   9.228   1.079
17691WAT      O53314   5.231   7.693   8.874
17691WAT     H153315   5.225   7.742   8.961
17691WAT     H253316   5.142   7.695   8.829
17692WAT      O53317   2.289   5.388   4.380
17692WAT     H153318   2.258   5.369   4.286
17692WAT     H253319   2.350   5.316   4.411
17693WAT      O53320   4.288   7.784   1.015
17693WAT     H153321   4.367   7.730   1.044
17693WAT     H253322   4.217   7.780   1.086
17694WAT      O53323   3.668   8.806   0.396
17694WAT     H153324   3.614   8.890   0.399
17694WAT     H253325   3.765   8.828   0.407
17695WAT      O53326   9.079   2.395   2.390
17695WAT     H153327   9.137   2.362   2.465
17695WAT     H253328   9.136   2.431   2.317
17696WAT      O53329   7.247   8.708   5.902
17696WAT     H153330   7.271   8.653   5.821
17696WAT     H253331   7.193   8.787   5.874
17697WAT      O53332   9.255   6.675   0.932
17697WAT     H153333   9.300   6.764   0.925
17697WAT     H253334   9.242   6.636   0.841
17698WAT      O53335   1.177   3.199   0.213
17698WAT     H153336   1.166   3.287   0.259
17698WAT     H253337   1.097   3.142   0.230
17699WAT      O53338   8.057   3.669   8.044
17699WAT     H153339   8.038   3.721   8.127
17699WAT     H253340   7.990   3.595   8.035
17700WAT      O53341   3.473   3.999   4.620
17700WAT     H153342   3.528   3.917   4.637
17700WAT     H253343   3.437   4.033   4.706
17701WAT      O53344   3.890   3.027   3.618
17701WAT     H153345   3.912   3.002   3.524
17701WAT     H253346   3.961   3.086   3.655
17702WAT      O53347   0.540   7.098   9.225
17702WAT     H153348   0.469   7.103   9.155
17702WAT     H253349   0.560   7.002   9.245
17703WAT      O53350   4.661   7.837  -0.005
17703WAT     H153351   4.572   7.858   0.035
17703WAT     H253352   4.733   7.865   0.059
17704WAT      O53353   4.953   5.684   2.253
17704WAT     H153354   4.856   5.691   2.233
17704WAT     H253355   4.991   5.601   2.211
17705WAT      O53356   7.692   0.613   6.842
17705WAT     H153357   7.598   0.642   6.823
17705WAT     H253358   7.748   0.693   6.865
17706WAT      O53359   4.646   0.228   6.483
17706WAT     H153360   4.550   0.242   6.461
17706WAT     H253361   4.703   0.286   6.425
17707WAT      O53362   4.254   6.326   7.910
17707WAT     H153363   4.189   6.319   7.987
17707WAT     H253364   4.268   6.422   7.888
17708WAT      O53365   6.992   8.980   8.153
17708WAT     H153366   7.071   9.038   8.172
17708WAT     H253367   6.961   8.995   8.059
17709WAT      O53368   9.398   9.200   1.966
17709WAT     H153369   9.325   9.246   2.017
17709WAT     H253370   9.456   9.269   1.922
17710WAT      O53371   1.548   9.199   2.422
17710WAT     H153372   1.627   9.203   2.482
17710WAT     H253373   1.471   9.156   2.470
17711WAT      O53374   8.615   1.303   6.056
17711WAT     H153375   8.648   1.301   6.150
17711WAT     H253376   8.515   1.295   6.055
17712WAT      O53377   8.839   2.774   3.516
17712WAT     H153378   8.770   2.827   3.465
17712WAT     H253379   8.839   2.803   3.612
17713WAT      O53380   3.658   1.842   0.426
17713WAT     H153381   3.581   1.870   0.369
17713WAT     H253382   3.668   1.743   0.421
17714WAT      O53383   4.428   0.444   8.043
17714WAT     H153384   4.352   0.494   8.084
17714WAT     H253385   4.431   0.462   7.944
17715WAT      O53386   8.366   7.314   3.356
17715WAT     H153387   8.417   7.234   3.387
17715WAT     H253388   8.289   7.330   3.418
17716WAT      O53389   7.129   4.036   8.813
17716WAT     H153390   7.080   3.980   8.746
17716WAT     H253391   7.083   4.124   8.824
17717WAT      O53392   1.128   6.224   7.761
17717WAT     H153393   1.159   6.241   7.854
17717WAT     H253394   1.051   6.160   7.762
17718WAT      O53395   5.255   8.257   0.475
17718WAT     H153396   5.297   8.268   0.385
17718WAT     H253397   5.195   8.177   0.475
17719WAT      O53398   3.120   6.809   3.336
17719WAT     H153399   3.153   6.720   3.303
17719WAT     H253400   3.117   6.809   3.436
17720WAT      O53401   0.677   3.890   2.619
17720WAT     H153402   0.600   3.945   2.652
17720WAT     H253403   0.663   3.794   2.646
17721WAT      O53404   9.065   8.781   1.213
17721WAT     H153405   9.061   8.746   1.119
17721WAT     H253406   9.105   8.872   1.213
17722WAT      O53407   6.685   0.896   0.690
17722WAT     H153408   6.585   0.902   0.698
17722WAT     H253409   6.716   0.809   0.730
17723WAT      O53410   9.020   2.561   4.512
17723WAT     H153411   9.075   2.478   4.500
17723WAT     H253412   9.018   2.584   4.609
17724WAT      O53413   8.385   9.162   3.698
17724WAT     H153414   8.339   9.102   3.762
17724WAT     H253415   8.362   9.257   3.718
17725WAT      O53416   3.782   4.347   7.167
17725WAT     H153417   3.778   4.439   7.128
17725WAT     H253418   3.695   4.325   7.211
17726WAT      O53419   7.125   2.630   3.151
17726WAT     H153420   7.163   2.563   3.214
17726WAT     H253421   7.169   2.623   3.062
17727WAT      O53422   2.380   6.113   8.800
17727WAT     H153423   2.329   6.051   8.740
17727WAT     H253424   2.478   6.096   8.791
17728WAT      O53425   1.218   8.596   4.191
17728WAT     H153426   1.251   8.605   4.285
17728WAT     H253427   1.276   8.531   4.142
17729WAT      O53428   7.102   1.203   5.534
17729WAT     H153429   7.173   1.249   5.482
17729WAT     H253430   7.058   1.134   5.477
17730WAT      O53431   0.331   5.135   8.842
17730WAT     H153432   0.343   5.180   8.753
17730WAT     H253433   0.301   5.040   8.827
17731WAT      O53434   5.821   6.432   4.465
17731WAT     H153435   5.808   6.378   4.548
17731WAT     H253436   5.917   6.429   4.438
17732WAT      O53437   7.923   0.631   9.221
17732WAT     H153438   7.923   0.533   9.243
17732WAT     H253439   7.873   0.681   9.291
17733WAT      O53440   4.426   1.077   9.878
17733WAT     H153441   4.501   1.084   9.813
17733WAT     H253442   4.392   0.983   9.880
17734WAT      O53443   2.832   7.553   6.669
17734WAT     H153444   2.784   7.606   6.738
17734WAT     H253445   2.766   7.501   6.615
17735WAT      O53446   7.261   9.784   9.590
17735WAT     H153447   7.360   9.778   9.580
17735WAT     H253448   7.235   9.874   9.624
17736WAT      O53449   4.398   5.605   6.357
17736WAT     H153450   4.446   5.578   6.274
17736WAT     H253451   4.401   5.705   6.366
17737WAT      O53452   6.851   9.441   7.146
17737WAT     H153453   6.869   9.431   7.244
17737WAT     H253454   6.926   9.491   7.103
17738WAT      O53455   3.771   2.883   7.864
17738WAT     H153456   3.736   2.977   7.870
17738WAT     H253457   3.739   2.841   7.779
17739WAT      O53458   9.601   7.560   6.026
17739WAT     H153459   9.507   7.548   6.059
17739WAT     H253460   9.664   7.511   6.087
17740WAT      O53461   2.311   9.779   0.825
17740WAT     H153462   2.223   9.738   0.801
17740WAT     H253463   2.311   9.803   0.922
17741WAT      O53464   8.931   9.082   3.393
17741WAT     H153465   8.930   9.170   3.440
17741WAT     H253466   8.837   9.051   3.378
17742WAT      O53467   5.204   0.873   0.501
17742WAT     H153468   5.167   0.914   0.418
17742WAT     H253469   5.303   0.862   0.492
17743WAT      O53470   6.968   3.045   5.657
17743WAT     H153471   6.904   3.096   5.599
17743WAT     H253472   6.947   3.063   5.753
17744WAT      O53473   0.525   6.236   6.486
17744WAT     H153474   0.579   6.162   6.446
17744WAT     H253475   0.586   6.298   6.535
17745WAT      O53476   6.234   2.014   7.560
17745WAT     H153477   6.134   2.013   7.558
17745WAT     H253478   6.266   1.990   7.651
17746WAT      O53479   1.822   1.523   8.924
17746WAT     H153480   1.866   1.527   9.013
17746WAT     H253481   1.788   1.431   8.907
17747WAT      O53482   5.357   8.639   6.747
17747WAT     H153483   5.362   8.547   6.786
17747WAT     H253484   5.442   8.661   6.700
17748WAT      O53485   5.249   4.859   0.438
17748WAT     H153486   5.307   4.936   0.465
17748WAT     H253487   5.200   4.882   0.354
17749WAT      O53488   3.712   4.590   1.312
17749WAT     H153489   3.718   4.609   1.214
17749WAT     H253490   3.663   4.504   1.326
17750WAT      O53491   5.863   6.814   9.479
17750WAT     H153492   5.855   6.764   9.393
17750WAT     H253493   5.918   6.896   9.464
17751WAT      O53494   9.054   5.415   6.299
17751WAT     H153495   9.026   5.437   6.393
17751WAT     H253496   9.132   5.472   6.274
17752WAT      O53497   7.614   5.424   6.133
17752WAT     H153498   7.597   5.449   6.038
17752WAT     H253499   7.702   5.375   6.139
17753WAT      O53500   2.224   9.006   4.147
17753WAT     H153501   2.288   9.037   4.077
17753WAT     H253502   2.220   8.906   4.147
17754WAT      O53503   4.699   1.888   4.478
17754WAT     H153504   4.742   1.978   4.466
17754WAT     H253505   4.720   1.830   4.399
17755WAT      O53506   8.951   3.169   4.235
17755WAT     H153507   8.996   3.240   4.289
17755WAT     H253508   9.009   3.143   4.158
17756WAT      O53509   0.010   4.890   2.001
17756WAT     H153510   0.033   4.831   2.079
17756WAT     H253511   0.090   4.899   1.942
17757WAT      O53512   3.482   5.610   8.010
17757WAT     H153513   3.413   5.649   7.950
17757WAT     H253514   3.512   5.522   7.974
17758WAT      O53515   0.841   7.272   9.852
17758WAT     H153516   0.901   7.233   9.783
17758WAT     H253517   0.859   7.230   9.941
17759WAT      O53518   1.067   2.561   6.484
17759WAT     H153519   1.034   2.502   6.410
17759WAT     H253520   1.135   2.625   6.448
17760WAT      O53521   8.161   0.184   1.312
17760WAT     H153522   8.221   0.238   1.254
17760WAT     H253523   8.104   0.125   1.255
17761WAT      O53524   4.905   8.588   0.941
17761WAT     H153525   4.869   8.507   0.989
17761WAT     H253526   4.923   8.564   0.846
17762WAT      O53527   3.111   7.266   5.167
17762WAT     H153528   3.150   7.229   5.252
17762WAT     H253529   3.076   7.358   5.184
17763WAT      O53530   9.224   3.546   4.753
17763WAT     H153531   9.269   3.575   4.837
17763WAT     H253532   9.125   3.538   4.770
17764WAT      O53533   7.448   8.928   4.361
17764WAT     H153534   7.530   8.884   4.399
17764WAT     H253535   7.459   8.939   4.262
17765WAT      O53536   5.684   6.793   7.628
17765WAT     H153537   5.730   6.871   7.671
17765WAT     H253538   5.661   6.726   7.698
17766WAT      O53539   3.691   1.764   5.577
17766WAT     H153540   3.689   1.730   5.671
17766WAT     H253541   3.769   1.826   5.566
17767WAT      O53542   1.663   9.409   0.831
17767WAT     H153543   1.645   9.389   0.927
17767WAT     H253544   1.587   9.461   0.793
17768WAT      O53545   5.499   7.578   1.299
17768WAT     H153546   5.517   7.596   1.202
17768WAT     H253547   5.401   7.577   1.315
17769WAT      O53548   1.938   4.572   5.481
17769WAT     H153549   1.942   4.473   5.464
17769WAT     H253550   1.947   4.621   5.395
17770WAT      O53551   1.473   6.955   5.645
17770WAT     H153552   1.389   6.903   5.659
17770WAT     H253553   1.542   6.925   5.711
17771WAT      O53554   2.068   9.336   6.098
17771WAT     H153555   2.130   9.339   6.176
17771WAT     H253556   2.015   9.251   6.101
17772WAT      O53557   7.320   8.653   4.213
17772WAT     H153558   7.358   8.561   4.215
17772WAT     H253559   7.392   8.719   4.191
17773WAT      O53560   7.329   0.333   1.791
17773WAT     H153561   7.289   0.424   1.805
17773WAT     H253562   7.428   0.339   1.801
17774WAT      O53563   0.009   9.429   9.298
17774WAT     H153564  -0.044   9.368   9.239
17774WAT     H253565   0.077   9.478   9.243
17775WAT      O53566   0.358   5.029   1.523
17775WAT     H153567   0.395   4.941   1.555
17775WAT     H253568   0.315   5.077   1.599
17776WAT      O53569   9.755   6.985   9.017
17776WAT     H153570   9.831   6.945   8.966
17776WAT     H253571   9.670   6.975   8.965
17777WAT      O53572   1.820   4.822   1.870
17777WAT     H153573   1.755   4.816   1.946
17777WAT     H253574   1.899   4.876   1.899
17778WAT      O53575   7.672   0.369   3.837
17778WAT     H153576   7.691   0.434   3.910
17778WAT     H253577   7.691   0.411   3.748
17779WAT      O53578   8.424   6.659   0.988
17779WAT     H153579   8.346   6.639   0.929
17779WAT     H253580   8.506   6.671   0.932
17780WAT      O53581   7.573   5.512   1.800
17780WAT     H153582   7.586   5.508   1.899
17780WAT     H253583   7.651   5.557   1.757
17781WAT      O53584   9.379   7.976   2.084
17781WAT     H153585   9.422   7.890   2.111
17781WAT     H253586   9.354   7.972   1.987
17782WAT      O53587   7.667   9.812   2.932
17782WAT     H153588   7.721   9.799   2.848
17782WAT     H253589   7.621   9.727   2.955
17783WAT      O53590   9.615   0.602   0.629
17783WAT     H153591   9.548   0.636   0.563
17783WAT     H253592   9.704   0.596   0.585
17784WAT      O53593   4.360   5.339   3.251
17784WAT     H153594   4.318   5.251   3.271
17784WAT     H253595   4.309   5.385   3.178
17785WAT      O53596   4.937   8.850   4.579
17785WAT     H153597   4.958   8.928   4.521
17785WAT     H253598   5.021   8.814   4.619
17786WAT      O53599   4.486   9.412   9.664
17786WAT     H153600   4.553   9.482   9.642
17786WAT     H253601   4.526   9.321   9.647
17787WAT      O53602   3.781   4.910   3.704
17787WAT     H153603   3.812   4.870   3.790
17787WAT     H253604   3.697   4.962   3.721
17788WAT      O53605   8.504   0.011   6.987
17788WAT     H153606   8.590   0.032   6.941
17788WAT     H253607   8.429   0.016   6.921
17789WAT      O53608   4.050   9.080   8.910
17789WAT     H153609   3.990   9.159   8.918
17789WAT     H253610   4.139   9.108   8.874
17790WAT      O53611   7.129   2.894   5.478
17790WAT     H153612   7.088   2.955   5.546
17790WAT     H253613   7.167   2.949   5.403
17791WAT      O53614   9.239   2.184   4.788
17791WAT     H153615   9.327   2.189   4.837
17791WAT     H253616   9.181   2.114   4.830
17792WAT      O53617   2.182   7.802   4.564
17792WAT     H153618   2.110   7.859   4.604
17792WAT     H253619   2.241   7.857   4.507
17793WAT      O53620   4.760   9.728   2.664
17793WAT     H153621   4.833   9.743   2.597
17793WAT     H253622   4.763   9.634   2.696
17794WAT      O53623   4.283   0.308   9.343
17794WAT     H153624   4.190   0.276   9.360
17794WAT     H253625   4.345   0.268   9.411
17795WAT      O53626   3.478   2.888   6.655
17795WAT     H153627   3.432   2.850   6.575
17795WAT     H253628   3.576   2.875   6.647
17796WAT      O53629   4.488   1.335   5.066
17796WAT     H153630   4.496   1.299   4.973
17796WAT     H253631   4.558   1.293   5.124
17797WAT      O53632   4.627   6.904   3.610
17797WAT     H153633   4.641   6.990   3.560
17797WAT     H253634   4.667   6.912   3.701
17798WAT      O53635   3.387   8.495   7.614
17798WAT     H153636   3.422   8.455   7.698
17798WAT     H253637   3.293   8.464   7.599
17799WAT      O53638   1.467   3.270   8.091
17799WAT     H153639   1.449   3.239   7.998
17799WAT     H253640   1.566   3.283   8.103
17800WAT      O53641   6.531   9.771   9.006
17800WAT     H153642   6.563   9.762   8.911
17800WAT     H253643   6.603   9.740   9.068
17801WAT      O53644   7.561   5.234   0.788
17801WAT     H153645   7.569   5.159   0.723
17801WAT     H253646   7.624   5.219   0.864
17802WAT      O53647   7.073   0.424   5.331
17802WAT     H153648   7.078   0.337   5.379
17802WAT     H253649   7.059   0.498   5.396
17803WAT      O53650   9.688   3.734   6.088
17803WAT     H153651   9.738   3.820   6.081
17803WAT     H253652   9.648   3.726   6.179
17804WAT      O53653   6.699   5.006   6.652
17804WAT     H153654   6.750   5.086   6.621
17804WAT     H253655   6.627   5.035   6.714
17805WAT      O53656   6.129   4.737   6.943
17805WAT     H153657   6.130   4.779   7.034
17805WAT     H253658   6.147   4.639   6.952
17806WAT      O53659   8.823   4.998   3.839
17806WAT     H153660   8.769   5.056   3.900
17806WAT     H253661   8.764   4.928   3.798
17807WAT      O53662   7.573   7.638   7.872
17807WAT     H153663   7.571   7.724   7.922
17807WAT     H253664   7.664   7.596   7.879
17808WAT      O53665   9.878   5.858   8.262
17808WAT     H153666   9.868   5.902   8.351
17808WAT     H253667   9.873   5.927   8.190
17809WAT      O53668   2.593   7.244   1.431
17809WAT     H153669   2.676   7.229   1.486
17809WAT     H253670   2.607   7.208   1.339
17810WAT      O53671   5.992   2.802   1.387
17810WAT     H153672   5.976   2.898   1.362
17810WAT     H253673   5.947   2.743   1.320
17811WAT      O53674   3.485   1.354   4.280
17811WAT     H153675   3.449   1.270   4.318
17811WAT     H253676   3.491   1.424   4.351
17812WAT      O53677   6.930   6.016   2.112
17812WAT     H153678   6.921   5.929   2.161
17812WAT     H253679   6.840   6.049   2.087
17813WAT      O53680   7.622   9.498   0.331
17813WAT     H153681   7.540   9.555   0.335
17813WAT     H253682   7.633   9.449   0.417
17814WAT      O53683   1.677   1.492   9.479
17814WAT     H153684   1.710   1.469   9.387
17814WAT     H253685   1.588   1.450   9.494
17815WAT      O53686   2.819   9.776   1.135
17815WAT     H153687   2.779   9.815   1.052
17815WAT     H253688   2.883   9.704   1.110
17816WAT      O53689   7.381   0.306   4.413
17816WAT     H153690   7.281   0.299   4.408
17816WAT     H253691   7.407   0.349   4.500
17817WAT      O53692   6.684   3.520   9.044
17817WAT     H153693   6.719   3.469   8.965
17817WAT     H253694   6.644   3.456   9.109
17818WAT      O53695   8.588   8.015   5.882
17818WAT     H153696   8.523   7.994   5.954
17818WAT     H253697   8.553   7.983   5.794
17819WAT      O53698   1.655   5.915   4.718
17819WAT     H153699   1.576   5.976   4.727
17819WAT     H253700   1.658   5.852   4.796
17820WAT      O53701   9.210   2.753   6.647
17820WAT     H153702   9.192   2.785   6.554
17820WAT     H253703   9.127   2.710   6.685
17821WAT      O53704   1.256   7.975   3.557
17821WAT     H153705   1.258   8.075   3.545
17821WAT     H253706   1.231   7.932   3.471
17822WAT      O53707   8.107   8.775   7.435
17822WAT     H153708   8.105   8.755   7.337
17822WAT     H253709   8.014   8.795   7.467
17823WAT      O53710   8.602   2.849   8.759
17823WAT     H153711   8.687   2.900   8.751
17823WAT     H253712   8.550   2.856   8.674
17824WAT      O53713   0.130   8.668   4.108
17824WAT     H153714   0.207   8.706   4.056
17824WAT     H253715   0.163   8.633   4.196
17825WAT      O53716   4.961   4.204   3.138
17825WAT     H153717   4.898   4.135   3.171
17825WAT     H253718   5.013   4.241   3.215
17826WAT      O53719   6.116   7.316   9.769
17826WAT     H153720   6.200   7.370   9.777
17826WAT     H253721   6.060   7.351   9.694
17827WAT      O53722   0.376   3.404   4.662
17827WAT     H153723   0.366   3.450   4.574
17827WAT     H253724   0.306   3.332   4.670
17828WAT      O53725   6.068   2.002   9.820
17828WAT     H153726   6.069   1.902   9.810
17828WAT     H253727   6.014   2.042   9.746
17829WAT      O53728   4.866   1.459   0.181
17829WAT     H153729   4.942   1.524   0.188
17829WAT     H253730   4.780   1.506   0.200
17830WAT      O53731   3.824   3.471   3.082
17830WAT     H153732   3.920   3.456   3.105
17830WAT     H253733   3.798   3.410   3.007
17831WAT      O53734   8.025   4.913   2.356
17831WAT     H153735   8.022   4.913   2.456
17831WAT     H253736   7.938   4.945   2.320
17832WAT      O53737   9.799   1.776   1.234
17832WAT     H153738   9.837   1.834   1.161
17832WAT     H253739   9.703   1.759   1.216
17833WAT      O53740   9.454   4.831   8.802
17833WAT     H153741   9.399   4.771   8.744
17833WAT     H253742   9.534   4.862   8.750
17834WAT      O53743   7.431   0.349   8.253
17834WAT     H153744   7.412   0.429   8.197
17834WAT     H253745   7.355   0.333   8.316
17835WAT      O53746   1.587   1.112   2.915
17835WAT     H153747   1.627   1.157   2.995
17835WAT     H253748   1.497   1.076   2.939
17836WAT      O53749   8.956   3.293   1.409
17836WAT     H153750   8.979   3.215   1.350
17836WAT     H253751   9.020   3.367   1.392
17837WAT      O53752   7.890   7.015   6.214
17837WAT     H153753   7.979   6.969   6.212
17837WAT     H253754   7.819   6.949   6.242
17838WAT      O53755   4.048   5.856   1.428
17838WAT     H153756   4.058   5.767   1.382
17838WAT     H253757   3.989   5.845   1.508
17839WAT      O53758   9.455   8.250   7.246
17839WAT     H153759   9.363   8.218   7.265
17839WAT     H253760   9.468   8.259   7.147
17840WAT      O53761   4.118   9.550   5.412
17840WAT     H153762   4.092   9.637   5.456
17840WAT     H253763   4.166   9.569   5.327
17841WAT      O53764   2.297   0.735   8.979
17841WAT     H153765   2.230   0.735   8.905
17841WAT     H253766   2.291   0.649   9.029
17842WAT      O53767   8.835   0.615   2.161
17842WAT     H153768   8.880   0.672   2.230
17842WAT     H253769   8.880   0.629   2.073
17843WAT      O53770   9.453   0.165   5.921
17843WAT     H153771   9.507   0.124   5.847
17843WAT     H253772   9.453   0.265   5.910
17844WAT      O53773   4.242   3.223   4.678
17844WAT     H153774   4.273   3.129   4.665
17844WAT     H253775   4.146   3.222   4.706
17845WAT      O53776   5.116   5.477   1.629
17845WAT     H153777   5.179   5.416   1.676
17845WAT     H253778   5.165   5.529   1.559
17846WAT      O53779   3.594   9.216   3.688
17846WAT     H153780   3.548   9.196   3.775
17846WAT     H253781   3.527   9.215   3.614
17847WAT      O53782   0.409   3.476   9.493
17847WAT     H153783   0.430   3.536   9.570
17847WAT     H253784   0.318   3.437   9.504
17848WAT      O53785   1.584   6.746   7.076
17848WAT     H153786   1.543   6.689   7.006
17848WAT     H253787   1.635   6.689   7.140
17849WAT      O53788   4.155   1.503   7.238
17849WAT     H153789   4.165   1.565   7.316
17849WAT     H253790   4.059   1.480   7.226
17850WAT      O53791   4.775   4.327   6.720
17850WAT     H153792   4.832   4.377   6.785
17850WAT     H253793   4.704   4.389   6.685
17851WAT      O53794   8.462   0.724   1.266
17851WAT     H153795   8.446   0.800   1.328
17851WAT     H253796   8.454   0.638   1.316
17852WAT      O53797   7.111   6.249   6.266
17852WAT     H153798   7.125   6.160   6.310
17852WAT     H253799   7.055   6.237   6.184
17853WAT      O53800   8.931   2.858   8.217
17853WAT     H153801   9.018   2.816   8.189
17853WAT     H253802   8.910   2.934   8.156
17854WAT      O53803   1.982   0.610   3.942
17854WAT     H153804   1.938   0.640   3.857
17854WAT     H253805   1.913   0.578   4.006
17855WAT      O53806   9.362   5.241   7.665
17855WAT     H153807   9.296   5.301   7.709
17855WAT     H253808   9.396   5.174   7.731
17856WAT      O53809   9.683   9.674   6.113
17856WAT     H153810   9.594   9.704   6.147
17856WAT     H253811   9.723   9.745   6.056
17857WAT      O53812   1.836   1.617   8.155
17857WAT     H153813   1.807   1.521   8.153
17857WAT     H253814   1.846   1.650   8.061
17858WAT      O53815   3.311   8.805   1.217
17858WAT     H153816   3.345   8.886   1.170
17858WAT     H253817   3.217   8.821   1.247
17859WAT      O53818   4.083   3.717   5.623
17859WAT     H153819   4.114   3.792   5.682
17859WAT     H253820   3.988   3.734   5.596
17860WAT      O53821   0.461   7.975   7.773
17860WAT     H153822   0.544   7.992   7.720
17860WAT     H253823   0.416   8.062   7.793
17861WAT      O53824   6.525   7.041   1.386
17861WAT     H153825   6.426   7.045   1.396
17861WAT     H253826   6.549   7.030   1.290
17862WAT      O53827   2.689   8.498   2.181
17862WAT     H153828   2.764   8.554   2.216
17862WAT     H253829   2.654   8.539   2.097
17863WAT      O53830   0.262   5.938   4.287
17863WAT     H153831   0.259   5.955   4.386
17863WAT     H253832   0.177   5.969   4.245
17864WAT      O53833   0.297   3.218   3.175
17864WAT     H153834   0.369   3.214   3.106
17864WAT     H253835   0.207   3.215   3.130
17865WAT      O53836   1.189   4.198   8.522
17865WAT     H153837   1.235   4.258   8.587
17865WAT     H253838   1.133   4.254   8.460
17866WAT      O53839   4.575   5.587   8.701
17866WAT     H153840   4.594   5.508   8.644
17866WAT     H253841   4.482   5.619   8.684
17867WAT      O53842   8.248   1.829   8.812
17867WAT     H153843   8.195   1.745   8.817
17867WAT     H253844   8.186   1.907   8.800
17868WAT      O53845   0.027   8.930   2.231
17868WAT     H153846   0.124   8.926   2.209
17868WAT     H253847  -0.019   8.993   2.169
17869WAT      O53848   7.102   8.304   7.303
17869WAT     H153849   7.047   8.295   7.220
17869WAT     H253850   7.169   8.230   7.306
17870WAT      O53851   0.126   9.607   3.419
17870WAT     H153852   0.100   9.553   3.499
17870WAT     H253853   0.085   9.567   3.337
17871WAT      O53854   7.778   3.439   2.147
17871WAT     H153855   7.700   3.377   2.143
17871WAT     H253856   7.834   3.418   2.227
17872WAT      O53857   2.428   4.282   4.586
17872WAT     H153858   2.464   4.257   4.497
17872WAT     H253859   2.504   4.301   4.648
17873WAT      O53860   1.381   3.012   0.202
17873WAT     H153861   1.315   3.080   0.236
17873WAT     H253862   1.456   3.059   0.156
17874WAT      O53863   8.710   6.740   6.335
17874WAT     H153864   8.637   6.754   6.403
17874WAT     H253865   8.671   6.697   6.253
17875WAT      O53866   5.243   0.488   5.404
17875WAT     H153867   5.210   0.435   5.481
17875WAT     H253868   5.166   0.538   5.363
17876WAT      O53869   7.081   2.346   3.934
17876WAT     H153870   7.052   2.295   4.015
17876WAT     H253871   7.040   2.438   3.936
17877WAT      O53872   1.067   0.295   5.864
17877WAT     H153873   1.150   0.340   5.899
17877WAT     H253874   1.075   0.197   5.876
17878WAT      O53875   9.753   0.383   5.820
17878WAT     H153876   9.775   0.478   5.843
17878WAT     H253877   9.670   0.381   5.764
17879WAT      O53878   4.681   1.023   7.177
17879WAT     H153879   4.720   1.115   7.177
17879WAT     H253880   4.712   0.973   7.258
17880WAT      O53881   3.302   5.300   6.612
17880WAT     H153882   3.249   5.307   6.527
17880WAT     H253883   3.315   5.204   6.636
17881WAT      O53884   8.160   3.424   0.208
17881WAT     H153885   8.079   3.423   0.149
17881WAT     H253886   8.209   3.510   0.195
17882WAT      O53887   6.516   1.761   1.673
17882WAT     H153888   6.532   1.771   1.771
17882WAT     H253889   6.429   1.802   1.648
17883WAT      O53890   3.894   4.561   9.512
17883WAT     H153891   3.886   4.469   9.550
17883WAT     H253892   3.951   4.617   9.572
17884WAT      O53893   6.546   1.978   7.094
17884WAT     H153894   6.633   1.936   7.120
17884WAT     H253895   6.489   1.990   7.175
17885WAT      O53896   8.288   7.465   4.296
17885WAT     H153897   8.233   7.537   4.252
17885WAT     H253898   8.231   7.384   4.310
17886WAT      O53899   2.878   7.843   6.081
17886WAT     H153900   2.924   7.853   5.993
17886WAT     H253901   2.797   7.786   6.070
17887WAT      O53902   6.685   1.599   3.048
17887WAT     H153903   6.737   1.514   3.053
17887WAT     H253904   6.588   1.579   3.057
17888WAT      O53905   8.709   6.167   2.057
17888WAT     H153906   8.669   6.259   2.061
17888WAT     H253907   8.652   6.104   2.109
17889WAT      O53908   0.773   9.514   2.950
17889WAT     H153909   0.866   9.484   2.933
17889WAT     H253910   0.722   9.440   2.995
17890WAT      O53911   3.768   3.462   5.977
17890WAT     H153912   3.787   3.408   5.896
17890WAT     H253913   3.694   3.527   5.958
17891WAT      O53914   0.757   4.999   6.525
17891WAT     H153915   0.671   4.995   6.577
17891WAT     H253916   0.817   4.924   6.555
17892WAT      O53917   3.304   3.350   2.891
17892WAT     H153918   3.305   3.356   2.792
17892WAT     H253919   3.304   3.254   2.918
17893WAT      O53920   3.611   0.889   7.374
17893WAT     H153921   3.707   0.863   7.371
17893WAT     H253922   3.598   0.976   7.327
17894WAT      O53923   8.382   7.264   4.809
17894WAT     H153924   8.460   7.266   4.872
17894WAT     H253925   8.374   7.172   4.770
17895WAT      O53926   4.386   7.123   4.845
17895WAT     H153927   4.394   7.050   4.914
17895WAT     H253928   4.449   7.197   4.868
17896WAT      O53929   5.836   4.424   5.706
17896WAT     H153930   5.844   4.507   5.652
17896WAT     H253931   5.851   4.344   5.647
17897WAT      O53932   0.432   5.008   4.691
17897WAT     H153933   0.528   4.990   4.669
17897WAT     H253934   0.412   4.975   4.783
17898WAT      O53935   0.555   6.696   9.551
17898WAT     H153936   0.489   6.772   9.558
17898WAT     H253937   0.581   6.684   9.455
17899WAT      O53938   8.036   2.262   6.535
17899WAT     H153939   7.992   2.195   6.475
17899WAT     H253940   8.059   2.218   6.622
17900WAT      O53941   4.415   2.108   8.507
17900WAT     H153942   4.372   2.149   8.588
17900WAT     H253943   4.501   2.064   8.533
17901WAT      O53944   0.945   0.652   3.083
17901WAT     H153945   0.865   0.606   3.046
17901WAT     H253946   0.919   0.743   3.114
17902WAT      O53947   0.437   7.908   5.413
17902WAT     H153948   0.354   7.962   5.431
17902WAT     H253949   0.463   7.857   5.495
17903WAT      O53950   6.601   9.732   8.724
17903WAT     H153951   6.695   9.743   8.693
17903WAT     H253952   6.573   9.636   8.711
17904WAT      O53953   5.439   3.526   2.275
17904WAT     H153954   5.503   3.519   2.198
17904WAT     H253955   5.376   3.449   2.273
17905WAT      O53956   4.409   7.711   3.863
17905WAT     H153957   4.381   7.654   3.787
17905WAT     H253958   4.379   7.671   3.949
17906WAT      O53959   6.654   1.958   2.690
17906WAT     H153960   6.677   2.043   2.642
17906WAT     H253961   6.570   1.920   2.653
17907WAT      O53962   0.517   2.319   1.284
17907WAT     H153963   0.493   2.275   1.198
17907WAT     H253964   0.444   2.383   1.311
17908WAT      O53965   0.627   4.397   6.048
17908WAT     H153966   0.577   4.480   6.025
17908WAT     H253967   0.614   4.375   6.144
17909WAT      O53968   4.148   5.602   2.427
17909WAT     H153969   4.218   5.655   2.378
17909WAT     H253970   4.133   5.642   2.517
17910WAT      O53971   2.513   8.318   7.068
17910WAT     H153972   2.586   8.302   7.001
17910WAT     H253973   2.552   8.358   7.151
17911WAT      O53974   0.989   7.166   8.396
17911WAT     H153975   0.922   7.240   8.409
17911WAT     H253976   1.043   7.155   8.479
17912WAT      O53977   1.778   5.382   1.480
17912WAT     H153978   1.782   5.449   1.554
17912WAT     H253979   1.828   5.300   1.507
17913WAT      O53980   4.001   7.127   8.114
17913WAT     H153981   3.973   7.054   8.051
17913WAT     H253982   4.035   7.205   8.061
17914WAT      O53983   2.137   3.625   2.211
17914WAT     H153984   2.206   3.635   2.139
17914WAT     H253985   2.166   3.675   2.292
17915WAT      O53986   1.911   2.693   6.686
17915WAT     H153987   1.944   2.601   6.706
17915WAT     H253988   1.940   2.720   6.594
17916WAT      O53989   9.383   3.136   6.615
17916WAT     H153990   9.405   3.043   6.644
17916WAT     H253991   9.370   3.193   6.696
17917WAT      O53992   8.304   3.086   6.353
17917WAT     H153993   8.210   3.103   6.384
17917WAT     H253994   8.331   2.992   6.376
17918WAT      O53995   3.219   8.089   8.819
17918WAT     H153996   3.292   8.024   8.797
17918WAT     H253997   3.143   8.040   8.860
17919WAT      O53998   0.988   3.969   7.884
17919WAT     H153999   0.979   3.904   7.959
17919WAT     H254000   1.057   3.935   7.819
17920WAT      O54001   0.598   1.270   7.798
17920WAT     H154002   0.668   1.280   7.869
17920WAT     H254003   0.524   1.213   7.832
17921WAT      O54004   4.494   2.914   1.725
17921WAT     H154005   4.520   2.866   1.641
17921WAT     H254006   4.396   2.901   1.742
17922WAT      O54007   0.582   4.452   8.060
17922WAT     H154008   0.486   4.427   8.051
17922WAT     H254009   0.590   4.549   8.083
17923WAT      O54010   5.433   6.996   5.112
17923WAT     H154011   5.360   6.942   5.153
17923WAT     H254012   5.512   6.937   5.093
17924WAT      O54013   3.654   2.799   5.111
17924WAT     H154014   3.683   2.711   5.148
17924WAT     H254015   3.710   2.821   5.031
17925WAT      O54016   5.721   4.624   8.288
17925WAT     H154017   5.685   4.658   8.375
17925WAT     H254018   5.655   4.560   8.249
17926WAT      O54019   7.104   0.618   6.297
17926WAT     H154020   7.157   0.544   6.338
17926WAT     H254021   7.033   0.579   6.238
17927WAT      O54022   6.555   5.056   1.878
17927WAT     H154023   6.489   5.130   1.893
17927WAT     H254024   6.593   5.027   1.966
17928WAT      O54025   3.101   7.047   1.107
17928WAT     H154026   3.058   6.993   1.179
17928WAT     H254027   3.046   7.040   1.023
17929WAT      O54028   7.795   4.578   3.048
17929WAT     H154029   7.696   4.595   3.051
17929WAT     H254030   7.821   4.518   3.124
17930WAT      O54031   5.688   4.483   4.903
17930WAT     H154032   5.648   4.523   4.820
17930WAT     H254033   5.616   4.470   4.972
17931WAT      O54034   3.198   7.336   0.133
17931WAT     H154035   3.123   7.348   0.198
17931WAT     H254036   3.168   7.364   0.042
17932WAT      O54037   2.581   1.331   0.847
17932WAT     H154038   2.677   1.311   0.829
17932WAT     H254039   2.551   1.280   0.928
17933WAT      O54040   1.594   9.016   7.737
17933WAT     H154041   1.510   9.043   7.690
17933WAT     H254042   1.575   9.003   7.834
17934WAT      O54043   8.264   4.090   6.760
17934WAT     H154044   8.198   4.034   6.710
17934WAT     H254045   8.356   4.072   6.725
17935WAT      O54046   9.645   1.026   1.349
17935WAT     H154047   9.601   0.937   1.359
17935WAT     H254048   9.593   1.082   1.285
17936WAT      O54049   5.350   7.773   5.954
17936WAT     H154050   5.403   7.698   5.914
17936WAT     H254051   5.350   7.765   6.053
17937WAT      O54052   1.495   8.524   2.120
17937WAT     H154053   1.507   8.473   2.205
17937WAT     H254054   1.496   8.622   2.140
17938WAT      O54055   1.438   3.179   3.520
17938WAT     H154056   1.371   3.133   3.578
17938WAT     H254057   1.527   3.136   3.531
17939WAT      O54058   3.769   9.811   2.141
17939WAT     H154059   3.733   9.903   2.127
17939WAT     H254060   3.794   9.799   2.238
17940WAT      O54061   2.012   7.320   1.088
17940WAT     H154062   1.991   7.264   1.008
17940WAT     H254063   1.966   7.283   1.169
17941WAT      O54064   4.115   2.515   2.994
17941WAT     H154065   4.132   2.545   2.900
17941WAT     H254066   4.058   2.583   3.040
17942WAT      O54067   4.444   1.936   0.714
17942WAT     H154068   4.390   2.003   0.764
17942WAT     H254069   4.472   1.863   0.776
17943WAT      O54070   1.721   5.728   4.217
17943WAT     H154071   1.780   5.686   4.148
17943WAT     H254072   1.629   5.688   4.210
17944WAT      O54073   6.728   0.573   1.161
17944WAT     H154074   6.716   0.541   1.067
17944WAT     H254075   6.705   0.500   1.225
17945WAT      O54076   6.144   4.197   0.376
17945WAT     H154077   6.179   4.214   0.284
17945WAT     H254078   6.135   4.098   0.390
17946WAT      O54079   0.757   9.015   9.061
17946WAT     H154080   0.722   9.102   9.028
17946WAT     H254081   0.785   9.024   9.156
17947WAT      O54082   0.724   2.079   1.420
17947WAT     H154083   0.814   2.063   1.460
17947WAT     H254084   0.715   2.027   1.335
17948WAT      O54085   6.242   5.017   0.677
17948WAT     H154086   6.289   4.990   0.761
17948WAT     H254087   6.174   5.087   0.697
17949WAT      O54088   1.904   7.197   6.473
17949WAT     H154089   1.944   7.172   6.561
17949WAT     H254090   1.950   7.146   6.400
17950WAT      O54091   4.646   0.440   5.215
17950WAT     H154092   4.726   0.380   5.216
17950WAT     H254093   4.576   0.400   5.156
17951WAT      O54094   0.638   3.429   5.711
17951WAT     H154095   0.643   3.392   5.804
17951WAT     H254096   0.667   3.525   5.712
17952WAT      O54097   2.184   6.406   7.048
17952WAT     H154098   2.261   6.415   7.111
17952WAT     H254099   2.116   6.345   7.088
17953WAT      O54100   6.669   0.598   6.723
17953WAT     H154101   6.685   0.688   6.764
17953WAT     H254102   6.688   0.602   6.625
17954WAT      O54103   7.138   6.693   6.817
17954WAT     H154104   7.126   6.656   6.909
17954WAT     H254105   7.142   6.793   6.822
17955WAT      O54106   2.280   3.048   1.708
17955WAT     H154107   2.244   3.055   1.801
17955WAT     H254108   2.220   2.989   1.654
17956WAT      O54109   6.447   6.664   9.555
17956WAT     H154110   6.487   6.735   9.497
17956WAT     H254111   6.350   6.655   9.535
17957WAT      O54112   1.197   4.139   0.125
17957WAT     H154113   1.199   4.131   0.224
17957WAT     H254114   1.290   4.148   0.090
17958WAT      O54115   7.483   4.020   4.201
17958WAT     H154116   7.511   3.924   4.197
17958WAT     H254117   7.519   4.063   4.284
17959WAT      O54118   5.138   8.277   1.085
17959WAT     H154119   5.237   8.269   1.071
17959WAT     H254120   5.093   8.193   1.052
17960WAT      O54121   3.439   0.278   1.858
17960WAT     H154122   3.374   0.212   1.894
17960WAT     H254123   3.501   0.233   1.793
17961WAT      O54124   4.951   0.100   0.941
17961WAT     H154125   4.914   0.064   1.026
17961WAT     H254126   4.949   0.030   0.871
17962WAT      O54127   5.343   1.337   5.970
17962WAT     H154128   5.336   1.406   6.041
17962WAT     H254129   5.436   1.301   5.967
17963WAT      O54130   9.356   7.631   9.186
17963WAT     H154131   9.323   7.538   9.172
17963WAT     H254132   9.436   7.649   9.129
17964WAT      O54133   7.055   7.331   9.112
17964WAT     H154134   7.061   7.280   9.026
17964WAT     H254135   6.970   7.384   9.113
17965WAT      O54136   8.087   7.926   9.368
17965WAT     H154137   8.061   7.834   9.337
17965WAT     H254138   8.114   7.981   9.290
17966WAT      O54139   5.684   0.512   3.149
17966WAT     H154140   5.780   0.541   3.150
17966WAT     H254141   5.679   0.413   3.145
17967WAT      O54142   2.220   0.150   7.785
17967WAT     H154143   2.295   0.133   7.721
17967WAT     H254144   2.233   0.094   7.867
17968WAT      O54145   7.831   0.160   3.597
17968WAT     H154146   7.748   0.144   3.651
17968WAT     H254147   7.862   0.254   3.610
17969WAT      O54148   8.278   3.241   1.622
17969WAT     H154149   8.326   3.207   1.541
17969WAT     H254150   8.216   3.171   1.657
17970WAT      O54151   7.441   8.283   2.144
17970WAT     H154152   7.440   8.357   2.212
17970WAT     H254153   7.513   8.218   2.168
17971WAT      O54154   3.361   8.571   1.107
17971WAT     H154155   3.346   8.657   1.156
17971WAT     H254156   3.319   8.576   1.017
17972WAT      O54157   9.763   1.963   7.172
17972WAT     H154158   9.777   2.060   7.151
17972WAT     H254159   9.681   1.953   7.228
17973WAT      O54160   0.426   9.003   1.268
17973WAT     H154161   0.447   8.992   1.365
17973WAT     H254162   0.489   8.947   1.214
17974WAT      O54163   2.103   0.382   0.592
17974WAT     H154164   2.027   0.324   0.562
17974WAT     H254165   2.122   0.364   0.688
17975WAT      O54166   4.211   3.349   0.236
17975WAT     H154167   4.127   3.294   0.239
17975WAT     H254168   4.201   3.421   0.167
17976WAT      O54169   5.742   0.102   9.577
17976WAT     H154170   5.683   0.047   9.518
17976WAT     H254171   5.833   0.061   9.580
17977WAT      O54172   7.079   0.610   5.099
17977WAT     H154173   6.988   0.635   5.131
17977WAT     H254174   7.112   0.530   5.151
17978WAT      O54175   8.839   5.443   1.567
17978WAT     H154176   8.883   5.528   1.537
17978WAT     H254177   8.741   5.459   1.580
17979WAT      O54178   9.791   9.214   4.530
17979WAT     H154179   9.850   9.136   4.509
17979WAT     H254180   9.743   9.197   4.616
17980WAT      O54181   5.569   0.660   1.121
17980WAT     H154182   5.559   0.562   1.103
17980WAT     H254183   5.558   0.711   1.035
17981WAT      O54184   3.503   4.117   5.208
17981WAT     H154185   3.550   4.032   5.184
17981WAT     H254186   3.526   4.142   5.302
17982WAT      O54187   1.239   3.571   9.117
17982WAT     H154188   1.215   3.644   9.053
17982WAT     H254189   1.195   3.486   9.088
17983WAT      O54190   3.421   3.854   3.983
17983WAT     H154191   3.496   3.792   3.961
17983WAT     H254192   3.368   3.873   3.900
17984WAT      O54193   3.703   1.001   0.531
17984WAT     H154194   3.788   1.047   0.506
17984WAT     H254195   3.643   1.064   0.580
17985WAT      O54196   5.996   0.019   3.464
17985WAT     H154197   6.055   0.004   3.544
17985WAT     H254198   5.956  -0.069   3.436
17986WAT      O54199   0.768   3.289   4.922
17986WAT     H154200   0.864   3.300   4.947
17986WAT     H254201   0.741   3.193   4.933
17987WAT      O54202   1.830   3.923   8.428
17987WAT     H154203   1.736   3.957   8.426
17987WAT     H254204   1.853   3.883   8.339
17988WAT      O54205   2.348   9.167   7.679
17988WAT     H154206   2.320   9.125   7.593
17988WAT     H254207   2.302   9.120   7.755
17989WAT      O54208   9.289   4.738   5.870
17989WAT     H154209   9.273   4.830   5.907
17989WAT     H254210   9.211   4.710   5.815
17990WAT      O54211   4.571   0.858   4.553
17990WAT     H154212   4.472   0.859   4.559
17990WAT     H254213   4.600   0.790   4.485
17991WAT      O54214   4.669   2.092   3.444
17991WAT     H154215   4.658   2.173   3.502
17991WAT     H254216   4.670   2.120   3.348
17992WAT      O54217   9.852   0.412   0.068
17992WAT     H154218   9.950   0.390   0.072
17992WAT     H254219   9.840   0.501   0.026
17993WAT      O54220   0.868   9.019   6.743
17993WAT     H154221   0.962   9.050   6.763
17993WAT     H254222   0.810   9.037   6.822
17994WAT      O54223   6.696   4.392   5.322
17994WAT     H154224   6.750   4.473   5.299
17994WAT     H254225   6.649   4.407   5.409
17995WAT      O54226   3.045   9.167   3.223
17995WAT     H154227   3.110   9.108   3.174
17995WAT     H254228   2.952   9.137   3.203
17996WAT      O54229   4.422   9.787   1.572
17996WAT     H154230   4.467   9.731   1.642
17996WAT     H254231   4.416   9.881   1.604
17997WAT      O54232   5.686   4.792   6.083
17997WAT     H154233   5.624   4.845   6.141
17997WAT     H254234   5.642   4.706   6.057
17998WAT      O54235   3.392   7.872   2.279
17998WAT     H154236   3.488   7.860   2.305
17998WAT     H254237   3.387   7.906   2.185
17999WAT      O54238   2.405   7.740   7.647
17999WAT     H154239   2.329   7.790   7.690
17999WAT     H254240   2.404   7.758   7.548
18000WAT      O54241   7.318   5.220   7.797
18000WAT     H154242   7.367   5.307   7.789
18000WAT     H254243   7.383   5.145   7.802
18001WAT      O54244   4.048   6.722   2.961
18001WAT     H154245   4.048   6.818   2.990
18001WAT     H254246   4.044   6.717   2.861
18002WAT      O54247   0.231   4.342   0.338
18002WAT     H154248   0.288   4.422   0.356
18002WAT     H254249   0.201   4.302   0.424
18003WAT      O54250   6.722   5.319   4.899
18003WAT     H154251   6.628   5.284   4.898
18003WAT     H254252   6.723   5.414   4.867
18004WAT      O54253   8.571   1.163   7.731
18004WAT     H154254   8.564   1.077   7.783
18004WAT     H254255   8.665   1.176   7.701
18005WAT      O54256   0.189   9.784   3.015
18005WAT     H154257   0.152   9.692   3.024
18005WAT     H254258   0.116   9.847   2.988
18006WAT      O54259   4.279   4.170   3.056
18006WAT     H154260   4.219   4.219   3.119
18006WAT     H254261   4.224   4.131   2.982
18007WAT      O54262   6.090   1.364   9.110
18007WAT     H154263   6.078   1.292   9.178
18007WAT     H254264   6.144   1.329   9.033
18008WAT      O54265   1.176   2.892   3.454
18008WAT     H154266   1.103   2.951   3.420
18008WAT     H254267   1.210   2.835   3.380
18009WAT      O54268   9.019   7.526   9.451
18009WAT     H154269   8.961   7.541   9.531
18009WAT     H254270   8.991   7.442   9.404
18010WAT      O54271   9.492   8.775   3.132
18010WAT     H154272   9.406   8.811   3.095
18010WAT     H254273   9.563   8.781   3.062
18011WAT      O54274   4.155   8.376   9.410
18011WAT     H154275   4.126   8.341   9.321
18011WAT     H254276   4.092   8.345   9.481
18012WAT      O54277   0.515   5.957   2.190
18012WAT     H154278   0.603   5.929   2.153
18012WAT     H254279   0.446   5.887   2.170
18013WAT      O54280   8.634   0.599   6.272
18013WAT     H154281   8.538   0.587   6.298
18013WAT     H254282   8.644   0.587   6.173
18014WAT      O54283   2.146   6.227   0.880
18014WAT     H154284   2.203   6.309   0.883
18014WAT     H254285   2.067   6.239   0.940
18015WAT      O54286   7.085   0.912   5.223
18015WAT     H154287   6.995   0.871   5.210
18015WAT     H254288   7.144   0.847   5.270
18016WAT      O54289   4.354   3.566   1.336
18016WAT     H154290   4.264   3.523   1.341
18016WAT     H254291   4.366   3.627   1.414
18017WAT      O54292   9.117   3.995   1.208
18017WAT     H154293   9.134   4.091   1.188
18017WAT     H254294   9.019   3.982   1.226
18018WAT      O54295   5.874   5.349   9.155
18018WAT     H154296   5.937   5.327   9.080
18018WAT     H254297   5.808   5.418   9.124
18019WAT      O54298   0.804   6.764   4.606
18019WAT     H154299   0.837   6.808   4.690
18019WAT     H254300   0.845   6.809   4.527
18020WAT      O54301   2.986   3.752   7.932
18020WAT     H154302   2.966   3.846   7.956
18020WAT     H254303   3.007   3.746   7.835
18021WAT      O54304   1.641   5.356   3.867
18021WAT     H154305   1.553   5.333   3.826
18021WAT     H254306   1.668   5.448   3.839
18022WAT      O54307   3.865   4.185   1.657
18022WAT     H154308   3.911   4.252   1.600
18022WAT     H254309   3.803   4.130   1.601
18023WAT      O54310   2.989   1.542   7.973
18023WAT     H154311   3.082   1.514   7.949
18023WAT     H254312   2.983   1.555   8.072
18024WAT      O54313   7.559   5.010   4.590
18024WAT     H154314   7.614   4.956   4.526
18024WAT     H254315   7.482   5.052   4.541
18025WAT      O54316   2.678   8.386   7.269
18025WAT     H154317   2.769   8.398   7.229
18025WAT     H254318   2.681   8.409   7.366
18026WAT      O54319   0.973   6.685   5.879
18026WAT     H154320   0.977   6.761   5.814
18026WAT     H254321   0.953   6.601   5.829
18027WAT      O54322   7.756   7.764   1.713
18027WAT     H154323   7.669   7.800   1.746
18027WAT     H254324   7.758   7.665   1.725
18028WAT      O54325   6.609   8.529   9.447
18028WAT     H154326   6.623   8.626   9.468
18028WAT     H254327   6.658   8.505   9.363
18029WAT      O54328   1.783   4.808   3.500
18029WAT     H154329   1.820   4.836   3.588
18029WAT     H254330   1.686   4.785   3.509
18030WAT      O54331   7.605   8.169   7.468
18030WAT     H154332   7.519   8.217   7.450
18030WAT     H254333   7.608   8.086   7.412
18031WAT      O54334   5.498   7.157   5.398
18031WAT     H154335   5.530   7.249   5.374
18031WAT     H254336   5.411   7.139   5.351
18032WAT      O54337   0.797   4.880   5.440
18032WAT     H154338   0.812   4.977   5.457
18032WAT     H254339   0.884   4.834   5.426
18033WAT      O54340   9.147   6.160   6.206
18033WAT     H154341   9.108   6.182   6.296
18033WAT     H254342   9.156   6.061   6.197
18034WAT      O54343   5.289   9.813   3.561
18034WAT     H154344   5.324   9.852   3.646
18034WAT     H254345   5.365   9.776   3.507
18035WAT      O54346   1.530   0.283   7.718
18035WAT     H154347   1.620   0.241   7.711
18035WAT     H254348   1.517   0.350   7.645
18036WAT      O54349   7.398   8.643   2.306
18036WAT     H154350   7.326   8.711   2.296
18036WAT     H254351   7.465   8.654   2.233
18037WAT      O54352   4.365   9.389   2.005
18037WAT     H154353   4.453   9.393   1.958
18037WAT     H254354   4.334   9.294   2.010
18038WAT      O54355   5.873   2.637   7.318
18038WAT     H154356   5.833   2.722   7.281
18038WAT     H254357   5.953   2.660   7.373
18039WAT      O54358   1.599   7.114   8.737
18039WAT     H154359   1.570   7.066   8.820
18039WAT     H254360   1.696   7.134   8.743
18040WAT      O54361   8.719   0.591   8.912
18040WAT     H154362   8.754   0.621   9.001
18040WAT     H254363   8.790   0.602   8.843
18041WAT      O54364   5.250   1.802   9.667
18041WAT     H154365   5.306   1.756   9.598
18041WAT     H254366   5.307   1.827   9.745
18042WAT      O54367   6.585   5.293   1.505
18042WAT     H154368   6.552   5.337   1.422
18042WAT     H254369   6.553   5.345   1.585
18043WAT      O54370   0.062   2.601   7.569
18043WAT     H154371   0.082   2.511   7.607
18043WAT     H254372   0.147   2.654   7.562
18044WAT      O54373   4.605   6.266   8.204
18044WAT     H154374   4.655   6.184   8.234
18044WAT     H254375   4.618   6.339   8.270
18045WAT      O54376   6.077   0.776   3.301
18045WAT     H154377   6.008   0.832   3.347
18045WAT     H254378   6.163   0.781   3.353
18046WAT      O54379   4.130   2.894   4.366
18046WAT     H154380   4.204   2.940   4.316
18046WAT     H254381   4.042   2.924   4.330
18047WAT      O54382   8.985   0.230   6.384
18047WAT     H154383   8.895   0.274   6.376
18047WAT     H254384   9.044   0.285   6.444
18048WAT      O54385   6.406   8.457   5.190
18048WAT     H154386   6.437   8.470   5.096
18048WAT     H254387   6.471   8.399   5.239
18049WAT      O54388   0.607   5.422   7.220
18049WAT     H154389   0.676   5.404   7.151
18049WAT     H254390   0.617   5.516   7.253
18050WAT      O54391   0.123   2.711   6.874
18050WAT     H154392   0.043   2.651   6.875
18050WAT     H254393   0.128   2.760   6.961
18051WAT      O54394   9.003   8.586   2.082
18051WAT     H154395   9.058   8.504   2.095
18051WAT     H254396   9.059   8.667   2.102
18052WAT      O54397   6.285   3.372   3.799
18052WAT     H154398   6.352   3.327   3.741
18052WAT     H254399   6.266   3.464   3.763
18053WAT      O54400   8.460   8.674   6.752
18053WAT     H154401   8.436   8.708   6.661
18053WAT     H254402   8.492   8.579   6.746
18054WAT      O54403   4.812   2.800   0.154
18054WAT     H154404   4.800   2.712   0.200
18054WAT     H254405   4.906   2.806   0.119
18055WAT      O54406   3.369   6.640   5.455
18055WAT     H154407   3.394   6.679   5.366
18055WAT     H254408   3.297   6.695   5.497
18056WAT      O54409   5.572   3.312   9.444
18056WAT     H154410   5.578   3.410   9.461
18056WAT     H254411   5.629   3.288   9.365
18057WAT      O54412   8.507   0.395   4.644
18057WAT     H154413   8.533   0.364   4.735
18057WAT     H254414   8.477   0.491   4.649
18058WAT      O54415   6.489   9.427   9.216
18058WAT     H154416   6.586   9.450   9.212
18058WAT     H254417   6.452   9.421   9.124
18059WAT      O54418   9.803   5.187   3.762
18059WAT     H154419   9.858   5.231   3.833
18059WAT     H254420   9.823   5.230   3.673
18060WAT      O54421   2.643   3.903   2.898
18060WAT     H154422   2.545   3.899   2.913
18060WAT     H254423   2.671   3.826   2.840
18061WAT      O54424   2.832   9.360   9.843
18061WAT     H154425   2.822   9.418   9.924
18061WAT     H254426   2.928   9.338   9.830
18062WAT      O54427   1.960   3.519   6.156
18062WAT     H154428   1.908   3.480   6.231
18062WAT     H254429   1.974   3.617   6.173
18063WAT      O54430   4.660   8.655   1.707
18063WAT     H154431   4.612   8.702   1.781
18063WAT     H254432   4.622   8.563   1.695
18064WAT      O54433   4.009   6.657   5.552
18064WAT     H154434   3.942   6.616   5.614
18064WAT     H254435   4.099   6.619   5.570
18065WAT      O54436   0.046   4.413   6.597
18065WAT     H154437   0.033   4.318   6.565
18065WAT     H254438  -0.026   4.471   6.560
18066WAT      O54439   2.044   7.123   7.617
18066WAT     H154440   2.034   7.028   7.647
18066WAT     H254441   2.055   7.126   7.518
18067WAT      O54442   6.553   1.426   7.605
18067WAT     H154443   6.522   1.331   7.611
18067WAT     H254444   6.478   1.487   7.627
18068WAT      O54445   8.292   9.336   6.347
18068WAT     H154446   8.366   9.288   6.301
18068WAT     H254447   8.206   9.319   6.299
18069WAT      O54448   4.501   8.479   5.545
18069WAT     H154449   4.589   8.495   5.591
18069WAT     H254450   4.516   8.471   5.447
18070WAT      O54451   1.090   0.103   2.115
18070WAT     H154452   1.077   0.203   2.114
18070WAT     H254453   1.186   0.082   2.100
18071WAT      O54454   6.584   5.698   2.377
18071WAT     H154455   6.684   5.699   2.384
18071WAT     H254456   6.545   5.674   2.466
18072WAT      O54457   4.993   6.342   9.653
18072WAT     H154458   5.017   6.246   9.651
18072WAT     H254459   5.072   6.396   9.685
18073WAT      O54460   7.938   2.126   3.254
18073WAT     H154461   7.990   2.185   3.316
18073WAT     H254462   7.920   2.175   3.169
18074WAT      O54463   0.445   1.832   1.271
18074WAT     H154464   0.525   1.773   1.279
18074WAT     H254465   0.455   1.891   1.190
18075WAT      O54466   3.197   0.698   9.667
18075WAT     H154467   3.236   0.681   9.576
18075WAT     H254468   3.243   0.775   9.710
18076WAT      O54469   7.350   3.252   6.934
18076WAT     H154470   7.441   3.209   6.939
18076WAT     H254471   7.283   3.193   6.980
18077WAT      O54472   8.313   0.327   0.571
18077WAT     H154473   8.223   0.342   0.531
18077WAT     H254474   8.381   0.319   0.499
18078WAT      O54475   7.721   9.076   4.697
18078WAT     H154476   7.627   9.070   4.665
18078WAT     H254477   7.728   9.144   4.770
18079WAT      O54478   6.413   7.262   4.399
18079WAT     H154479   6.354   7.218   4.331
18079WAT     H254480   6.410   7.361   4.385
18080WAT      O54481   2.193   4.228   2.649
18080WAT     H154482   2.120   4.173   2.690
18080WAT     H254483   2.210   4.308   2.706
18081WAT      O54484   8.612   9.752   9.104
18081WAT     H154485   8.600   9.711   9.014
18081WAT     H254486   8.693   9.714   9.148
18082WAT      O54487   9.101   6.254   1.471
18082WAT     H154488   9.027   6.282   1.411
18082WAT     H254489   9.068   6.184   1.535
18083WAT      O54490   6.065   9.329   1.594
18083WAT     H154491   6.117   9.382   1.528
18083WAT     H254492   6.111   9.241   1.610
18084WAT      O54493   2.692   0.705   5.781
18084WAT     H154494   2.682   0.771   5.856
18084WAT     H254495   2.789   0.684   5.767
18085WAT      O54496   0.666   1.594   6.005
18085WAT     H154497   0.672   1.694   6.002
18085WAT     H254498   0.669   1.563   6.100
18086WAT      O54499   3.010   6.080   9.156
18086WAT     H154500   3.016   6.123   9.246
18086WAT     H254501   3.066   6.131   9.091
18087WAT      O54502   1.653   2.279   4.245
18087WAT     H154503   1.669   2.326   4.332
18087WAT     H254504   1.621   2.186   4.263
18088WAT      O54505   9.136   4.572   9.494
18088WAT     H154506   9.177   4.663   9.492
18088WAT     H254507   9.205   4.503   9.471
18089WAT      O54508   0.222   3.125   4.771
18089WAT     H154509   0.170   3.202   4.808
18089WAT     H254510   0.161   3.066   4.719
18090WAT      O54511   3.262   8.616   6.693
18090WAT     H154512   3.346   8.574   6.658
18090WAT     H254513   3.285   8.682   6.765
18091WAT      O54514   5.832   8.041   9.186
18091WAT     H154515   5.735   8.052   9.208
18091WAT     H254516   5.887   8.101   9.246
18092WAT      O54517   2.548   7.589   3.776
18092WAT     H154518   2.571   7.495   3.752
18092WAT     H254519   2.613   7.622   3.845
18093WAT      O54520   8.896   8.491   3.339
18093WAT     H154521   8.865   8.572   3.388
18093WAT     H254522   8.899   8.413   3.402
18094WAT      O54523   1.088   3.510   2.368
18094WAT     H154524   1.097   3.476   2.462
18094WAT     H254525   1.083   3.610   2.370
18095WAT      O54526   2.710   4.793   9.830
18095WAT     H154527   2.621   4.804   9.785
18095WAT     H254528   2.719   4.862   9.902
18096WAT      O54529   3.987   7.692   5.304
18096WAT     H154530   4.048   7.663   5.230
18096WAT     H254531   4.003   7.788   5.325
18097WAT      O54532   4.462   0.409   9.180
18097WAT     H154533   4.463   0.359   9.093
18097WAT     H254534   4.382   0.380   9.233
18098WAT      O54535   4.646   7.031   4.674
18098WAT     H154536   4.655   7.125   4.709
18098WAT     H254537   4.567   7.026   4.613
18099WAT      O54538   5.647   7.676   2.015
18099WAT     H154539   5.692   7.705   1.931
18099WAT     H254540   5.551   7.703   2.012
18100WAT      O54541   3.156   5.395   4.276
18100WAT     H154542   3.084   5.461   4.299
18100WAT     H254543   3.234   5.443   4.236
18101WAT      O54544   6.988   8.798   0.007
18101WAT     H154545   7.035   8.846  -0.066
18101WAT     H254546   7.055   8.761   0.072
18102WAT      O54547   0.217   2.992   5.008
18102WAT     H154548   0.240   3.056   4.935
18102WAT     H254549   0.235   3.035   5.097
18103WAT      O54550   9.683   0.865   4.913
18103WAT     H154551   9.610   0.931   4.897
18103WAT     H254552   9.770   0.913   4.927
18104WAT      O54553   2.032   1.640   8.318
18104WAT     H154554   2.029   1.561   8.378
18104WAT     H254555   1.950   1.641   8.260
18105WAT      O54556   6.917   1.400   6.300
18105WAT     H154557   6.872   1.418   6.388
18105WAT     H254558   7.012   1.430   6.304
18106WAT      O54559   1.467   4.504   7.755
18106WAT     H154560   1.469   4.603   7.766
18106WAT     H254561   1.492   4.479   7.662
18107WAT      O54562   1.394   2.484   5.058
18107WAT     H154563   1.390   2.583   5.048
18107WAT     H254564   1.457   2.460   5.133
18108WAT      O54565   5.550   6.807   5.749
18108WAT     H154566   5.644   6.827   5.778
18108WAT     H254567   5.489   6.820   5.827
18109WAT      O54568   6.442   0.013   4.876
18109WAT     H154569   6.422   0.094   4.931
18109WAT     H254570   6.536  -0.016   4.892
18110WAT      O54571   6.869   1.534   8.734
18110WAT     H154572   6.786   1.479   8.722
18110WAT     H254573   6.944   1.476   8.764
18111WAT      O54574   0.632   2.614   1.192
18111WAT     H154575   0.538   2.583   1.179
18111WAT     H254576   0.639   2.660   1.281
18112WAT      O54577   5.927   7.293   3.946
18112WAT     H154578   5.891   7.353   3.875
18112WAT     H254579   5.896   7.325   4.036
18113WAT      O54580   5.298   3.883   7.579
18113WAT     H154581   5.349   3.880   7.493
18113WAT     H254582   5.310   3.972   7.623
18114WAT      O54583   1.685   0.387   0.706
18114WAT     H154584   1.758   0.455   0.719
18114WAT     H254585   1.642   0.368   0.794
18115WAT      O54586   5.243   0.509   8.877
18115WAT     H154587   5.209   0.465   8.793
18115WAT     H254588   5.267   0.439   8.944
18116WAT      O54589   5.961   6.868   6.150
18116WAT     H154590   5.948   6.886   6.052
18116WAT     H254591   5.920   6.942   6.203
18117WAT      O54592   0.700   0.610   8.459
18117WAT     H154593   0.712   0.701   8.420
18117WAT     H254594   0.744   0.543   8.399
18118WAT      O54595   1.023   9.212   6.196
18118WAT     H154596   0.933   9.256   6.202
18118WAT     H254597   1.010   9.114   6.180
18119WAT      O54598   4.080   6.401   8.111
18119WAT     H154599   4.018   6.353   8.173
18119WAT     H254600   4.132   6.469   8.162
18120WAT      O54601   0.678   4.778   2.647
18120WAT     H154602   0.617   4.846   2.688
18120WAT     H254603   0.739   4.823   2.583
18121WAT      O54604   5.950   5.539   0.393
18121WAT     H154605   5.939   5.440   0.402
18121WAT     H254606   5.954   5.563   0.296
18122WAT      O54607   3.283   2.005   9.359
18122WAT     H154608   3.301   1.911   9.388
18122WAT     H254609   3.366   2.044   9.318
18123WAT      O54610   4.622   6.492   8.358
18123WAT     H154611   4.677   6.450   8.430
18123WAT     H254612   4.570   6.568   8.396
18124WAT      O54613   8.728   2.060   6.842
18124WAT     H154614   8.657   2.002   6.882
18124WAT     H254615   8.738   2.037   6.745
18125WAT      O54616   1.131   9.649   0.308
18125WAT     H154617   1.113   9.630   0.405
18125WAT     H254618   1.081   9.583   0.252
18126WAT      O54619   1.446   0.528   3.227
18126WAT     H154620   1.388   0.553   3.149
18126WAT     H254621   1.520   0.594   3.235
18127WAT      O54622   0.275   9.217   3.247
18127WAT     H154623   0.300   9.308   3.279
18127WAT     H254624   0.176   9.208   3.244
18128WAT      O54625   3.434   3.836   4.262
18128WAT     H154626   3.378   3.906   4.305
18128WAT     H254627   3.430   3.847   4.162
18129WAT      O54628   6.307   3.979   5.165
18129WAT     H154629   6.211   4.004   5.153
18129WAT     H254630   6.314   3.908   5.236
18130WAT      O54631   6.065   5.135   9.510
18130WAT     H154632   6.024   5.044   9.510
18130WAT     H254633   6.080   5.165   9.604
18131WAT      O54634   0.706   5.398   1.300
18131WAT     H154635   0.663   5.396   1.209
18131WAT     H254636   0.764   5.480   1.307
18132WAT      O54637   4.607   0.739   1.424
18132WAT     H154638   4.566   0.649   1.413
18132WAT     H254639   4.648   0.746   1.515
18133WAT      O54640   3.937   5.568   0.964
18133WAT     H154641   3.900   5.575   0.871
18133WAT     H254642   3.906   5.646   1.018
18134WAT      O54643   5.528   1.099   0.110
18134WAT     H154644   5.589   1.038   0.060
18134WAT     H254645   5.441   1.109   0.060
18135WAT      O54646   1.344   5.881   2.392
18135WAT     H154647   1.401   5.863   2.312
18135WAT     H254648   1.282   5.958   2.372
18136WAT      O54649   1.970   1.223   1.917
18136WAT     H154650   2.003   1.150   1.977
18136WAT     H254651   1.897   1.273   1.962
18137WAT      O54652   8.910   7.863   8.599
18137WAT     H154653   8.939   7.959   8.594
18137WAT     H254654   8.929   7.819   8.511
18138WAT      O54655   3.582   5.505   1.216
18138WAT     H154656   3.544   5.447   1.287
18138WAT     H254657   3.669   5.543   1.246
18139WAT      O54658   2.292   7.003   8.754
18139WAT     H154659   2.371   7.027   8.698
18139WAT     H254660   2.248   6.922   8.716
18140WAT      O54661   2.392   5.860   2.615
18140WAT     H154662   2.448   5.871   2.697
18140WAT     H254663   2.321   5.792   2.633
18141WAT      O54664   8.012   2.030   5.247
18141WAT     H154665   7.991   2.009   5.342
18141WAT     H254666   7.938   2.086   5.208
18142WAT      O54667   3.846   0.077   6.219
18142WAT     H154668   3.871   0.151   6.157
18142WAT     H254669   3.927   0.046   6.268
18143WAT      O54670   1.681   6.299   9.638
18143WAT     H154671   1.705   6.240   9.561
18143WAT     H254672   1.746   6.284   9.713
18144WAT      O54673   1.187   3.427   7.079
18144WAT     H154674   1.188   3.451   6.982
18144WAT     H254675   1.101   3.380   7.101
18145WAT      O54676   7.461   8.915   3.614
18145WAT     H154677   7.524   8.895   3.539
18145WAT     H254678   7.495   8.872   3.698
18146WAT      O54679   1.662   2.194   3.399
18146WAT     H154680   1.740   2.228   3.452
18146WAT     H254681   1.658   2.242   3.311
18147WAT      O54682   2.993   7.437   4.357
18147WAT     H154683   2.976   7.492   4.439
18147WAT     H254684   3.077   7.469   4.312
18148WAT      O54685   0.471   1.768   6.595
18148WAT     H154686   0.438   1.803   6.683
18148WAT     H254687   0.400   1.713   6.552
18149WAT      O54688   7.320   5.330   0.875
18149WAT     H154689   7.313   5.429   0.883
18149WAT     H254690   7.412   5.306   0.843
18150WAT      O54691   0.587   8.305   1.838
18150WAT     H154692   0.656   8.377   1.839
18150WAT     H254693   0.501   8.340   1.872
18151WAT      O54694   2.280   0.020   5.415
18151WAT     H154695   2.193  -0.028   5.404
18151WAT     H254696   2.307   0.061   5.328
18152WAT      O54697   4.444   1.743   1.675
18152WAT     H154698   4.425   1.817   1.611
18152WAT     H254699   4.446   1.779   1.769
18153WAT      O54700   4.332   4.062   6.169
18153WAT     H154701   4.397   4.137   6.182
18153WAT     H254702   4.337   3.999   6.246
18154WAT      O54703   7.588   1.252   2.481
18154WAT     H154704   7.500   1.205   2.478
18154WAT     H254705   7.597   1.312   2.401
18155WAT      O54706   6.642   6.058   8.577
18155WAT     H154707   6.735   6.021   8.572
18155WAT     H254708   6.635   6.139   8.520
18156WAT      O54709   2.117   8.670   8.790
18156WAT     H154710   2.125   8.710   8.698
18156WAT     H254711   2.020   8.663   8.815
18157WAT      O54712   4.296   4.168   4.496
18157WAT     H154713   4.295   4.230   4.575
18157WAT     H254714   4.296   4.221   4.412
18158WAT      O54715   4.781   3.092   8.712
18158WAT     H154716   4.880   3.102   8.710
18158WAT     H254717   4.748   3.099   8.807
18159WAT      O54718   2.134   1.709   7.071
18159WAT     H154719   2.218   1.745   7.031
18159WAT     H254720   2.106   1.627   7.022
18160WAT      O54721   2.489   4.691   3.278
18160WAT     H154722   2.427   4.729   3.209
18160WAT     H254723   2.436   4.641   3.346
18161WAT      O54724   9.174   5.202   7.481
18161WAT     H154725   9.248   5.222   7.544
18161WAT     H254726   9.190   5.114   7.437
18162WAT      O54727   7.783   6.824   3.485
18162WAT     H154728   7.806   6.838   3.388
18162WAT     H254729   7.721   6.745   3.493
18163WAT      O54730   4.072   2.934   0.158
18163WAT     H154731   4.030   2.883   0.083
18163WAT     H254732   4.140   2.876   0.202
18164WAT      O54733   9.873   4.155   0.467
18164WAT     H154734   9.783   4.150   0.510
18164WAT     H254735   9.927   4.226   0.512
18165WAT      O54736   6.786   0.351   8.707
18165WAT     H154737   6.753   0.325   8.798
18165WAT     H254738   6.844   0.433   8.714
18166WAT      O54739   6.718   8.490   9.180
18166WAT     H154740   6.803   8.480   9.232
18166WAT     H254741   6.739   8.495   9.082
18167WAT      O54742   3.136   7.943   1.362
18167WAT     H154743   3.211   7.995   1.404
18167WAT     H254744   3.061   7.934   1.427
18168WAT      O54745   4.852   2.851   1.215
18168WAT     H154746   4.832   2.949   1.218
18168WAT     H254747   4.780   2.804   1.164
18169WAT      O54748   1.704   5.188   4.712
18169WAT     H154749   1.666   5.175   4.621
18169WAT     H254750   1.780   5.124   4.726
18170WAT      O54751   8.754   8.365   3.157
18170WAT     H154752   8.840   8.389   3.203
18170WAT     H254753   8.719   8.444   3.107
18171WAT      O54754   9.741   5.435   6.458
18171WAT     H154755   9.687   5.465   6.537
18171WAT     H254756   9.682   5.428   6.378
18172WAT      O54757   5.842   2.680   5.643
18172WAT     H154758   5.758   2.633   5.670
18172WAT     H254759   5.916   2.613   5.632
18173WAT      O54760   8.547   0.114   4.246
18173WAT     H154761   8.521   0.020   4.224
18173WAT     H254762   8.490   0.177   4.194
18174WAT      O54763   4.020   2.323   8.022
18174WAT     H154764   3.993   2.414   8.055
18174WAT     H254765   3.946   2.258   8.039
18175WAT      O54766   9.300   7.877   0.925
18175WAT     H154767   9.271   7.918   0.839
18175WAT     H254768   9.277   7.938   1.001
18176WAT      O54769   4.135   6.227   3.558
18176WAT     H154770   4.065   6.290   3.593
18176WAT     H254771   4.101   6.133   3.563
18177WAT      O54772   7.157   0.297   6.412
18177WAT     H154773   7.134   0.277   6.507
18177WAT     H254774   7.225   0.371   6.409
18178WAT      O54775   4.247   0.955   6.051
18178WAT     H154776   4.345   0.935   6.056
18178WAT     H254777   4.202   0.919   6.132
18179WAT      O54778   1.045   8.870   9.354
18179WAT     H154779   0.982   8.947   9.347
18179WAT     H254780   1.077   8.861   9.448
18180WAT      O54781   8.005   5.708   8.232
18180WAT     H154782   8.054   5.643   8.291
18180WAT     H254783   7.962   5.778   8.288
18181WAT      O54784   0.948   5.374   7.446
18181WAT     H154785   1.034   5.421   7.422
18181WAT     H254786   0.874   5.441   7.449
18182WAT      O54787   6.145   6.181   6.794
18182WAT     H154788   6.199   6.193   6.711
18182WAT     H254789   6.113   6.270   6.826
18183WAT      O54790   8.198   4.643   4.748
18183WAT     H154791   8.149   4.567   4.707
18183WAT     H254792   8.290   4.650   4.708
18184WAT      O54793   7.600   7.257   4.912
18184WAT     H154794   7.561   7.175   4.955
18184WAT     H254795   7.587   7.252   4.813
18185WAT      O54796   6.504   4.244   2.058
18185WAT     H154797   6.578   4.185   2.026
18185WAT     H254798   6.422   4.190   2.074
18186WAT      O54799   4.797   8.994   0.239
18186WAT     H154800   4.833   9.024   0.328
18186WAT     H254801   4.831   9.055   0.167
18187WAT      O54802   5.105   0.776   8.690
18187WAT     H154803   5.102   0.709   8.616
18187WAT     H254804   5.019   0.772   8.742
18188WAT      O54805   9.317   5.815   4.601
18188WAT     H154806   9.415   5.835   4.602
18188WAT     H254807   9.281   5.818   4.694
18189WAT      O54808   5.398   0.233   1.221
18189WAT     H154809   5.366   0.271   1.308
18189WAT     H254810   5.320   0.214   1.162
18190WAT      O54811   1.329   6.037   9.472
18190WAT     H154812   1.372   5.950   9.449
18190WAT     H254813   1.377   6.080   9.548
18191WAT      O54814   3.707   5.295   4.639
18191WAT     H154815   3.773   5.227   4.671
18191WAT     H254816   3.718   5.379   4.692
18192WAT      O54817   3.935   3.172   9.000
18192WAT     H154818   3.956   3.088   9.048
18192WAT     H254819   3.971   3.250   9.051
18193WAT      O54820   2.487   5.653   9.417
18193WAT     H154821   2.521   5.569   9.374
18193WAT     H254822   2.510   5.731   9.360
18194WAT      O54823   0.695   2.049   3.861
18194WAT     H154824   0.645   1.978   3.910
18194WAT     H254825   0.785   2.061   3.902
18195WAT      O54826   7.692   5.531   4.235
18195WAT     H154827   7.642   5.458   4.188
18195WAT     H254828   7.627   5.596   4.273
18196WAT      O54829   7.368   3.135   0.828
18196WAT     H154830   7.360   3.035   0.829
18196WAT     H254831   7.462   3.160   0.804
18197WAT      O54832   1.939   7.784   4.242
18197WAT     H154833   1.919   7.744   4.152
18197WAT     H254834   2.022   7.743   4.278
18198WAT      O54835   1.666   3.217   2.293
18198WAT     H154836   1.609   3.175   2.363
18198WAT     H254837   1.626   3.201   2.203
18199WAT      O54838   2.103   7.855   6.571
18199WAT     H154839   2.045   7.911   6.630
18199WAT     H254840   2.181   7.821   6.624
18200WAT      O54841   1.192   9.711   3.177
18200WAT     H154842   1.246   9.779   3.129
18200WAT     H254843   1.252   9.640   3.214
18201WAT      O54844   0.461   8.048   3.696
18201WAT     H154845   0.376   8.102   3.693
18201WAT     H254846   0.537   8.108   3.723
18202WAT      O54847   8.205   5.322   0.686
18202WAT     H154848   8.193   5.420   0.668
18202WAT     H254849   8.271   5.310   0.760
18203WAT      O54850   9.074   9.701   4.024
18203WAT     H154851   9.043   9.772   3.959
18203WAT     H254852   9.148   9.648   3.983
18204WAT      O54853   0.476   6.147   7.439
18204WAT     H154854   0.573   6.157   7.416
18204WAT     H254855   0.425   6.225   7.402
18205WAT      O54856   2.059   4.422   7.182
18205WAT     H154857   2.000   4.496   7.149
18205WAT     H254858   2.146   4.461   7.214
18206WAT      O54859   5.808   5.616   4.982
18206WAT     H154860   5.811   5.634   4.884
18206WAT     H254861   5.723   5.568   5.004
18207WAT      O54862   4.703   1.671   3.336
18207WAT     H154863   4.622   1.701   3.286
18207WAT     H254864   4.717   1.731   3.415
18208WAT      O54865   6.207   7.041   1.368
18208WAT     H154866   6.225   7.137   1.345
18208WAT     H254867   6.112   7.031   1.396
18209WAT      O54868   3.735   2.492   0.694
18209WAT     H154869   3.724   2.401   0.734
18209WAT     H254870   3.654   2.547   0.714
18210WAT      O54871   0.942   2.880   7.224
18210WAT     H154872   0.944   2.854   7.127
18210WAT     H254873   0.856   2.926   7.245
18211WAT      O54874   3.397   1.585   9.778
18211WAT     H154875   3.435   1.493   9.785
18211WAT     H254876   3.461   1.643   9.726
18212WAT      O54877   4.144   8.014   8.377
18212WAT     H154878   4.099   7.928   8.399
18212WAT     H254879   4.090   8.064   8.309
18213WAT      O54880   3.938   6.974   0.686
18213WAT     H154881   3.865   7.003   0.624
18213WAT     H254882   3.911   6.996   0.780
18214WAT      O54883   4.688   5.134   8.647
18214WAT     H154884   4.761   5.123   8.714
18214WAT     H254885   4.723   5.114   8.556
18215WAT      O54886   7.045   1.112   3.755
18215WAT     H154887   6.996   1.029   3.780
18215WAT     H254888   7.008   1.149   3.670
18216WAT      O54889   5.646   0.328   2.271
18216WAT     H154890   5.589   0.373   2.341
18216WAT     H254891   5.627   0.369   2.182
18217WAT      O54892   5.507   6.047   3.325
18217WAT     H154893   5.474   6.074   3.416
18217WAT     H254894   5.584   6.105   3.299
18218WAT      O54895   6.906   5.887   4.406
18218WAT     H154896   6.990   5.923   4.447
18218WAT     H254897   6.907   5.905   4.307
18219WAT      O54898   7.952   4.243   4.417
18219WAT     H154899   7.894   4.209   4.491
18219WAT     H254900   8.048   4.237   4.445
18220WAT      O54901   0.347   2.079   3.476
18220WAT     H154902   0.344   2.022   3.558
18220WAT     H254903   0.273   2.053   3.414
18221WAT      O54904   0.842   5.984   7.013
18221WAT     H154905   0.881   5.892   7.019
18221WAT     H254906   0.916   6.052   7.019
18222WAT      O54907   8.326   4.718   5.521
18222WAT     H154908   8.377   4.746   5.439
18222WAT     H254909   8.266   4.642   5.497
18223WAT      O54910   3.744   7.712   5.669
18223WAT     H154911   3.720   7.678   5.578
18223WAT     H254912   3.823   7.662   5.704
18224WAT      O54913   9.052   0.156   2.924
18224WAT     H154914   9.118   0.127   2.993
18224WAT     H254915   9.097   0.160   2.835
18225WAT      O54916   3.286   2.464   1.169
18225WAT     H154917   3.364   2.402   1.178
18225WAT     H254918   3.201   2.411   1.163
18226WAT      O54919   4.738   8.982   4.687
18226WAT     H154920   4.776   9.037   4.761
18226WAT     H254921   4.806   8.915   4.657
18227WAT      O54922   0.704   2.521   0.239
18227WAT     H154923   0.665   2.463   0.311
18227WAT     H254924   0.635   2.539   0.169
18228WAT      O54925   4.197   1.526   2.959
18228WAT     H154926   4.225   1.558   3.049
18228WAT     H254927   4.148   1.440   2.967
18229WAT      O54928   4.330   4.910   6.145
18229WAT     H154929   4.411   4.909   6.086
18229WAT     H254930   4.264   4.842   6.113
18230WAT      O54931   0.272   9.459   0.862
18230WAT     H154932   0.233   9.441   0.771
18230WAT     H254933   0.312   9.551   0.863
18231WAT      O54934   9.523   7.395   7.188
18231WAT     H154935   9.503   7.394   7.090
18231WAT     H254936   9.514   7.302   7.225
18232WAT      O54937   6.295   2.437   2.100
18232WAT     H154938   6.355   2.373   2.146
18232WAT     H254939   6.200   2.421   2.128
18233WAT      O54940   5.348   2.094   5.897
18233WAT     H154941   5.309   2.025   5.959
18233WAT     H254942   5.427   2.055   5.849
18234WAT      O54943   0.755   6.679   7.210
18234WAT     H154944   0.735   6.771   7.243
18234WAT     H254945   0.705   6.662   7.125
18235WAT      O54946   8.903   9.744   1.649
18235WAT     H154947   9.003   9.734   1.641
18235WAT     H254948   8.878   9.839   1.629
18236WAT      O54949   8.565   1.859   7.010
18236WAT     H154950   8.578   1.912   7.094
18236WAT     H254951   8.580   1.762   7.029
18237WAT      O54952   3.213   3.490   3.554
18237WAT     H154953   3.172   3.400   3.535
18237WAT     H254954   3.143   3.550   3.593
18238WAT      O54955   3.276   4.059   0.152
18238WAT     H154956   3.333   4.026   0.077
18238WAT     H254957   3.204   4.118   0.115
18239WAT      O54958   9.574   4.211   4.642
18239WAT     H154959   9.509   4.172   4.576
18239WAT     H254960   9.628   4.137   4.683
18240WAT      O54961   9.764   1.437   3.206
18240WAT     H154962   9.670   1.405   3.197
18240WAT     H254963   9.764   1.524   3.257
18241WAT      O54964   4.578   6.347   1.636
18241WAT     H154965   4.527   6.272   1.592
18241WAT     H254966   4.653   6.376   1.576
18242WAT      O54967   5.067   2.874   1.659
18242WAT     H154968   5.113   2.932   1.726
18242WAT     H254969   5.089   2.905   1.567
18243WAT      O54970   4.501   5.411   8.297
18243WAT     H154971   4.546   5.366   8.220
18243WAT     H254972   4.406   5.430   8.273
18244WAT      O54973   3.166   7.246   8.250
18244WAT     H154974   3.108   7.298   8.188
18244WAT     H254975   3.260   7.244   8.215
18245WAT      O54976   7.179   7.629   3.607
18245WAT     H154977   7.208   7.722   3.629
18245WAT     H254978   7.227   7.564   3.665
18246WAT      O54979   2.745   7.580   2.510
18246WAT     H154980   2.664   7.548   2.559
18246WAT     H254981   2.723   7.666   2.463
18247WAT      O54982   9.290   6.998   9.369
18247WAT     H154983   9.338   6.951   9.443
18247WAT     H254984   9.356   7.029   9.301
18248WAT      O54985   5.775   0.048   1.767
18248WAT     H154986   5.711   0.115   1.806
18248WAT     H254987   5.725  -0.035   1.745
18249WAT      O54988   1.786   7.083   5.602
18249WAT     H154989   1.760   7.013   5.668
18249WAT     H254990   1.790   7.172   5.649
18250WAT      O54991   1.952   2.016   6.141
18250WAT     H154992   1.883   2.006   6.213
18250WAT     H254993   2.032   1.961   6.163
18251WAT      O54994   1.511   0.862   0.860
18251WAT     H154995   1.431   0.806   0.839
18251WAT     H254996   1.589   0.803   0.881
18252WAT      O54997   5.897   2.990   7.928
18252WAT     H154998   5.912   3.055   7.854
18252WAT     H254999   5.800   2.966   7.932
18253WAT      O55000   4.426   6.941   5.051
18253WAT     H155001   4.492   6.997   5.101
18253WAT     H255002   4.443   6.844   5.069
18254WAT      O55003   1.081   6.087   7.069
18254WAT     H155004   1.088   6.186   7.076
18254WAT     H255005   1.139   6.054   6.995
18255WAT      O55006   8.989   6.983   2.570
18255WAT     H155007   9.053   6.957   2.642
18255WAT     H255008   9.018   6.943   2.483
18256WAT      O55009   0.233   6.488   0.079
18256WAT     H155010   0.226   6.395   0.114
18256WAT     H255011   0.280   6.488  -0.008
18257WAT      O55012   8.332   7.732   1.662
18257WAT     H155013   8.318   7.757   1.566
18257WAT     H255014   8.272   7.787   1.719
18258WAT      O55015   1.602   4.024   3.415
18258WAT     H155016   1.636   4.117   3.431
18258WAT     H255017   1.615   3.969   3.497
18259WAT      O55018   8.536   4.057   2.516
18259WAT     H155019   8.581   4.113   2.446
18259WAT     H255020   8.601   3.992   2.554
18260WAT      O55021   8.630   2.743   5.744
18260WAT     H155022   8.566   2.675   5.707
18260WAT     H255023   8.724   2.711   5.727
18261WAT      O55024   8.806   5.520   0.198
18261WAT     H155025   8.736   5.588   0.176
18261WAT     H255026   8.896   5.564   0.201
18262WAT      O55027   5.698   6.489   4.229
18262WAT     H155028   5.755   6.480   4.311
18262WAT     H255029   5.642   6.408   4.217
18263WAT      O55030   2.615   2.134   4.044
18263WAT     H155031   2.531   2.100   4.001
18263WAT     H255032   2.610   2.120   4.143
18264WAT      O55033   3.766   9.749   3.300
18264WAT     H155034   3.842   9.743   3.235
18264WAT     H255035   3.696   9.810   3.264
18265WAT      O55036   4.913   7.425   2.364
18265WAT     H155037   4.953   7.356   2.305
18265WAT     H255038   4.924   7.515   2.323
18266WAT      O55039   5.909   3.149   4.469
18266WAT     H155040   5.863   3.185   4.551
18266WAT     H255041   5.865   3.186   4.387
18267WAT      O55042   9.176   9.304   4.759
18267WAT     H155043   9.246   9.245   4.720
18267WAT     H255044   9.124   9.254   4.828
18268WAT      O55045   0.970   2.614   7.364
18268WAT     H155046   1.046   2.552   7.349
18268WAT     H255047   0.988   2.701   7.318
18269WAT      O55048   4.913   4.696   5.839
18269WAT     H155049   4.839   4.644   5.882
18269WAT     H255050   4.971   4.635   5.786
18270WAT      O55051   1.579   8.176   0.428
18270WAT     H155052   1.625   8.234   0.362
18270WAT     H255053   1.481   8.197   0.428
18271WAT      O55054   8.574   3.071   9.562
18271WAT     H155055   8.623   3.104   9.482
18271WAT     H255056   8.524   2.987   9.539
18272WAT      O55057   0.559   1.324   0.998
18272WAT     H155058   0.601   1.377   0.926
18272WAT     H255059   0.622   1.315   1.076
18273WAT      O55060   4.187   3.107   8.372
18273WAT     H155061   4.091   3.135   8.382
18273WAT     H255062   4.198   3.058   8.286
18274WAT      O55063   9.673   2.322   3.828
18274WAT     H155064   9.698   2.229   3.853
18274WAT     H255065   9.635   2.368   3.909
18275WAT      O55066   5.650   1.504   0.214
18275WAT     H155067   5.638   1.587   0.270
18275WAT     H255068   5.624   1.524   0.120
18276WAT      O55069   4.011   4.349   7.966
18276WAT     H155070   3.955   4.321   7.888
18276WAT     H255071   3.966   4.322   8.051
18277WAT      O55072   6.420   0.832   5.893
18277WAT     H155073   6.412   0.882   5.807
18277WAT     H255074   6.374   0.744   5.884
18278WAT      O55075   8.482   8.454   0.695
18278WAT     H155076   8.578   8.438   0.718
18278WAT     H255077   8.445   8.525   0.755
18279WAT      O55078   2.574   5.863   4.190
18279WAT     H155079   2.556   5.958   4.217
18279WAT     H255080   2.490   5.810   4.197
18280WAT      O55081   5.166   0.623   7.008
18280WAT     H155082   5.132   0.679   6.932
18280WAT     H255083   5.164   0.526   6.981
18281WAT      O55084   8.731   2.268   2.754
18281WAT     H155085   8.719   2.282   2.852
18281WAT     H255086   8.804   2.201   2.739
18282WAT      O55087   1.613   5.057   0.872
18282WAT     H155088   1.671   5.063   0.953
18282WAT     H255089   1.664   5.015   0.797
18283WAT      O55090   6.655   8.151   0.928
18283WAT     H155091   6.740   8.202   0.922
18283WAT     H255092   6.622   8.131   0.835
18284WAT      O55093   4.383   9.583   0.952
18284WAT     H155094   4.439   9.644   1.009
18284WAT     H255095   4.345   9.635   0.876
18285WAT      O55096   9.380   3.731   6.765
18285WAT     H155097   9.350   3.660   6.829
18285WAT     H255098   9.388   3.818   6.813
18286WAT      O55099   8.436   9.578   6.268
18286WAT     H155100   8.392   9.501   6.315
18286WAT     H255101   8.532   9.555   6.251
18287WAT      O55102   3.298   9.248   6.616
18287WAT     H155103   3.337   9.157   6.605
18287WAT     H255104   3.262   9.280   6.528
18288WAT      O55105   0.978   0.177   8.221
18288WAT     H155106   1.062   0.124   8.209
18288WAT     H255107   0.973   0.209   8.316
18289WAT      O55108   5.172   9.321   1.977
18289WAT     H155109   5.153   9.273   1.891
18289WAT     H255110   5.244   9.389   1.962
18290WAT      O55111   8.859   5.459   0.881
18290WAT     H155112   8.856   5.514   0.797
18290WAT     H255113   8.933   5.392   0.875
18291WAT      O55114   2.114   1.074   5.672
18291WAT     H155115   2.034   1.036   5.626
18291WAT     H255116   2.185   1.004   5.678
18292WAT      O55117   6.271   0.988   9.130
18292WAT     H155118   6.191   1.039   9.162
18292WAT     H255119   6.242   0.902   9.090
18293WAT      O55120   2.685   0.868   5.983
18293WAT     H155121   2.749   0.942   6.005
18293WAT     H255122   2.615   0.862   6.054
18294WAT      O55123   5.068   0.225   0.182
18294WAT     H155124   5.049   0.323   0.187
18294WAT     H255125   5.157   0.206   0.223
18295WAT      O55126   1.604   5.829   9.039
18295WAT     H155127   1.516   5.805   9.080
18295WAT     H255128   1.590   5.898   8.968
18296WAT      O55129   3.241   8.107   5.315
18296WAT     H155130   3.152   8.125   5.274
18296WAT     H255131   3.313   8.143   5.255
18297WAT      O55132   8.696   9.416   4.672
18297WAT     H155133   8.796   9.421   4.680
18297WAT     H255134   8.654   9.490   4.724
18298WAT      O55135   7.896   7.421   4.164
18298WAT     H155136   7.841   7.358   4.219
18298WAT     H255137   7.981   7.376   4.138
18299WAT      O55138   5.348   2.593   6.048
18299WAT     H155139   5.401   2.626   6.127
18299WAT     H255140   5.387   2.508   6.015
18300WAT      O55141   0.308   6.693   9.125
18300WAT     H155142   0.208   6.683   9.133
18300WAT     H255143   0.353   6.619   9.175
18301WAT      O55144   0.126   2.560   9.840
18301WAT     H155145   0.174   2.473   9.826
18301WAT     H255146   0.035   2.554   9.799
18302WAT      O55147   7.582   7.021   9.173
18302WAT     H155148   7.513   7.045   9.105
18302WAT     H255149   7.647   6.956   9.133
18303WAT      O55150   9.706   5.760   3.585
18303WAT     H155151   9.655   5.783   3.668
18303WAT     H255152   9.795   5.722   3.611
18304WAT      O55153   6.862   6.417   7.867
18304WAT     H155154   6.903   6.444   7.779
18304WAT     H255155   6.828   6.498   7.914
18305WAT      O55156   1.513   4.389   7.513
18305WAT     H155157   1.438   4.322   7.506
18305WAT     H255158   1.592   4.356   7.460
18306WAT      O55159   4.919   8.200   4.998
18306WAT     H155160   4.934   8.109   5.037
18306WAT     H255161   4.922   8.195   4.899
18307WAT      O55162   8.802   8.743   2.112
18307WAT     H155163   8.880   8.681   2.103
18307WAT     H255164   8.810   8.793   2.199
18308WAT      O55165   9.772   6.184   9.762
18308WAT     H155166   9.682   6.166   9.803
18308WAT     H255167   9.798   6.279   9.778
18309WAT      O55168   4.225   3.389   0.867
18309WAT     H155169   4.268   3.473   0.835
18309WAT     H255170   4.181   3.343   0.789
18310WAT      O55171   8.517   7.066   9.068
18310WAT     H155172   8.505   7.079   8.969
18310WAT     H255173   8.464   7.135   9.117
18311WAT      O55174   0.069   2.428   8.005
18311WAT     H155175   0.059   2.389   8.097
18311WAT     H255176   0.123   2.366   7.948
18312WAT      O55177   2.030   2.052   4.129
18312WAT     H155178   1.964   2.074   4.058
18312WAT     H255179   2.058   2.135   4.176
18313WAT      O55180   2.444   5.354   8.669
18313WAT     H155181   2.535   5.375   8.705
18313WAT     H255182   2.439   5.258   8.644
18314WAT      O55183   7.971   8.675   8.569
18314WAT     H155184   7.962   8.668   8.470
18314WAT     H255185   8.019   8.760   8.592
18315WAT      O55186   4.999   7.932   5.162
18315WAT     H155187   5.090   7.892   5.160
18315WAT     H255188   4.993   7.997   5.238
18316WAT      O55189   1.632   6.498   8.119
18316WAT     H155190   1.564   6.544   8.175
18316WAT     H255191   1.716   6.552   8.117
18317WAT      O55192   0.684   3.051   7.914
18317WAT     H155193   0.698   3.028   8.010
18317WAT     H255194   0.593   3.091   7.902
18318WAT      O55195   6.906   1.061   0.656
18318WAT     H155196   6.816   1.018   0.652
18318WAT     H255197   6.965   1.011   0.720
18319WAT      O55198   5.969   7.492   7.453
18319WAT     H155199   5.896   7.491   7.385
18319WAT     H255200   5.934   7.527   7.539
18320WAT      O55201   7.280   4.139   9.035
18320WAT     H155202   7.240   4.088   8.960
18320WAT     H255203   7.215   4.143   9.111
18321WAT      O55204   0.554   9.033   9.775
18321WAT     H155205   0.503   8.947   9.771
18321WAT     H255206   0.510   9.101   9.715
18322WAT      O55207   1.428   5.728   6.984
18322WAT     H155208   1.425   5.803   7.050
18322WAT     H255209   1.502   5.744   6.918
18323WAT      O55210   9.634   8.068   8.757
18323WAT     H155211   9.629   8.108   8.665
18323WAT     H255212   9.686   7.983   8.753
18324WAT      O55213   0.706   4.055   0.577
18324WAT     H155214   0.781   4.068   0.512
18324WAT     H255215   0.630   4.009   0.533
18325WAT      O55216   7.784   2.384   0.514
18325WAT     H155217   7.779   2.418   0.420
18325WAT     H255218   7.775   2.285   0.515
18326WAT      O55219   6.450   3.000   7.271
18326WAT     H155220   6.379   2.968   7.209
18326WAT     H255221   6.437   2.957   7.361
18327WAT      O55222   8.389   8.420   0.436
18327WAT     H155223   8.441   8.420   0.521
18327WAT     H255224   8.292   8.438   0.456
18328WAT      O55225   2.806   9.384   0.493
18328WAT     H155226   2.735   9.368   0.425
18328WAT     H255227   2.885   9.326   0.474
18329WAT      O55228   0.963   4.765   3.958
18329WAT     H155229   0.889   4.760   3.891
18329WAT     H255230   1.030   4.833   3.929
18330WAT      O55231   3.459   3.668   0.523
18330WAT     H155232   3.445   3.738   0.453
18330WAT     H255233   3.549   3.626   0.511
18331WAT      O55234   8.523   2.037   1.141
18331WAT     H155235   8.433   1.994   1.133
18331WAT     H255236   8.568   2.004   1.224
18332WAT      O55237   7.508   6.112   8.251
18332WAT     H155238   7.532   6.015   8.253
18332WAT     H255239   7.501   6.143   8.156
18333WAT      O55240   5.614   6.772   0.662
18333WAT     H155241   5.631   6.865   0.695
18333WAT     H255242   5.591   6.776   0.564
18334WAT      O55243   3.820   7.012   9.528
18334WAT     H155244   3.772   7.099   9.535
18334WAT     H255245   3.917   7.025   9.549
18335WAT      O55246   8.778   1.475   5.844
18335WAT     H155247   8.871   1.500   5.872
18335WAT     H255248   8.780   1.386   5.799
18336WAT      O55249   7.227   4.740   7.139
18336WAT     H155250   7.161   4.698   7.077
18336WAT     H255251   7.232   4.838   7.122
18337WAT      O55252   0.813   6.039   9.449
18337WAT     H155253   0.762   6.041   9.363
18337WAT     H255254   0.844   6.131   9.472
18338WAT      O55255   1.017   1.130   8.150
18338WAT     H155256   1.042   1.211   8.201
18338WAT     H255257   1.093   1.064   8.151
18339WAT      O55258   7.458   3.021   0.551
18339WAT     H155259   7.374   2.977   0.519
18339WAT     H255260   7.438   3.116   0.577
18340WAT      O55261   1.998   6.407   4.229
18340WAT     H155262   1.994   6.331   4.294
18340WAT     H255263   2.067   6.474   4.259
18341WAT      O55264   2.170   0.526   3.774
18341WAT     H155265   2.117   0.580   3.840
18341WAT     H255266   2.177   0.576   3.688
18342WAT      O55267   0.043   4.535   5.559
18342WAT     H155268   0.079   4.574   5.475
18342WAT     H255269  -0.057   4.541   5.559
18343WAT      O55270   7.015   0.610   3.834
18343WAT     H155271   7.009   0.677   3.908
18343WAT     H255272   7.105   0.618   3.790
18344WAT      O55273   0.215   1.014   4.754
18344WAT     H155274   0.179   1.106   4.767
18344WAT     H255275   0.207   0.989   4.657
18345WAT      O55276   8.236   7.896   0.145
18345WAT     H155277   8.306   7.943   0.090
18345WAT     H255278   8.150   7.947   0.140
18346WAT      O55279   9.021   6.555   1.977
18346WAT     H155280   9.049   6.460   1.995
18346WAT     H255281   9.051   6.581   1.885
18347WAT      O55282   6.747   4.715   1.348
18347WAT     H155283   6.805   4.669   1.415
18347WAT     H255284   6.679   4.652   1.312
18348WAT      O55285   3.196   6.822   5.579
18348WAT     H155286   3.191   6.871   5.666
18348WAT     H255287   3.136   6.866   5.512
18349WAT      O55288   1.221   1.623   0.305
18349WAT     H155289   1.173   1.554   0.250
18349WAT     H255290   1.186   1.714   0.283
18350WAT      O55291   8.186   3.860   4.307
18350WAT     H155292   8.262   3.805   4.273
18350WAT     H255293   8.168   3.837   4.402
18351WAT      O55294   9.054   5.100   6.878
18351WAT     H155295   9.045   5.160   6.957
18351WAT     H255296   9.032   5.006   6.904
18352WAT      O55297   2.342   8.050   2.936
18352WAT     H155298   2.303   7.984   3.000
18352WAT     H255299   2.389   8.122   2.986
18353WAT      O55300   8.931   9.098   4.733
18353WAT     H155301   8.988   9.018   4.716
18353WAT     H255302   8.835   9.072   4.722
18354WAT      O55303   5.691   8.030   2.125
18354WAT     H155304   5.603   8.074   2.142
18354WAT     H255305   5.688   7.935   2.155
18355WAT      O55306   6.218   9.718   1.520
18355WAT     H155307   6.307   9.727   1.564
18355WAT     H255308   6.203   9.623   1.495
18356WAT      O55309   0.627   5.965   1.466
18356WAT     H155310   0.610   5.867   1.451
18356WAT     H255311   0.542   6.009   1.496
18357WAT      O55312   3.803   1.455   8.145
18357WAT     H155313   3.749   1.372   8.160
18357WAT     H255314   3.741   1.534   8.135
18358WAT      O55315   6.554   1.648   0.282
18358WAT     H155316   6.556   1.618   0.378
18358WAT     H255317   6.629   1.605   0.232
18359WAT      O55318   2.729   0.737   2.632
18359WAT     H155319   2.654   0.688   2.676
18359WAT     H255320   2.744   0.824   2.679
18360WAT      O55321   6.561   6.767   0.921
18360WAT     H155322   6.659   6.789   0.920
18360WAT     H255323   6.512   6.834   0.976
18361WAT      O55324   5.876   5.855   3.480
18361WAT     H155325   5.822   5.784   3.435
18361WAT     H255326   5.970   5.822   3.494
18362WAT      O55327   4.623   1.552   2.237
18362WAT     H155328   4.701   1.571   2.297
18362WAT     H255329   4.642   1.472   2.180
18363WAT      O55330   8.733   9.596   3.482
18363WAT     H155331   8.750   9.606   3.580
18363WAT     H255332   8.634   9.587   3.466
18364WAT      O55333   1.878   6.153   6.238
18364WAT     H155334   1.908   6.121   6.148
18364WAT     H255335   1.819   6.233   6.226
18365WAT      O55336   6.134   6.702   0.842
18365WAT     H155337   6.222   6.655   0.846
18365WAT     H255338   6.113   6.726   0.747
18366WAT      O55339   7.615   5.969   6.821
18366WAT     H155340   7.625   6.069   6.827
18366WAT     H255341   7.519   5.944   6.833
18367WAT      O55342   5.202   8.863   4.079
18367WAT     H155343   5.216   8.958   4.106
18367WAT     H255344   5.225   8.852   3.982
18368WAT      O55345   7.118   7.204   0.729
18368WAT     H155346   7.163   7.138   0.669
18368WAT     H255347   7.161   7.201   0.820
18369WAT      O55348   3.693   4.618   1.004
18369WAT     H155349   3.617   4.567   0.964
18369WAT     H255350   3.766   4.629   0.936
18370WAT      O55351   5.827   9.324   8.554
18370WAT     H155352   5.733   9.325   8.587
18370WAT     H255353   5.859   9.418   8.542
18371WAT      O55354   3.358   2.397   9.532
18371WAT     H155355   3.263   2.367   9.521
18371WAT     H255356   3.418   2.338   9.478
18372WAT      O55357   4.425   0.579   5.675
18372WAT     H155358   4.375   0.661   5.702
18372WAT     H255359   4.424   0.513   5.750
18373WAT      O55360   9.551   5.944   4.582
18373WAT     H155361   9.631   5.949   4.521
18373WAT     H255362   9.580   5.961   4.676
18374WAT      O55363   3.437   8.082   3.566
18374WAT     H155364   3.361   8.026   3.534
18374WAT     H255365   3.503   8.096   3.492
18375WAT      O55366   1.602   2.222   0.609
18375WAT     H155367   1.548   2.279   0.547
18375WAT     H255368   1.545   2.191   0.685
18376WAT      O55369   8.057   1.835   5.720
18376WAT     H155370   8.106   1.910   5.765
18376WAT     H255371   7.980   1.806   5.777
18377WAT      O55372   9.616   4.655   4.507
18377WAT     H155373   9.689   4.682   4.570
18377WAT     H255374   9.559   4.734   4.488
18378WAT      O55375   9.712   9.736   0.328
18378WAT     H155376   9.747   9.742   0.421
18378WAT     H255377   9.620   9.776   0.324
18379WAT      O55378   6.391   3.496   3.441
18379WAT     H155379   6.479   3.486   3.394
18379WAT     H255380   6.398   3.570   3.508
18380WAT      O55381   1.706   2.780   6.835
18380WAT     H155382   1.738   2.809   6.926
18380WAT     H255383   1.778   2.726   6.791
18381WAT      O55384   8.770   9.700   7.853
18381WAT     H155385   8.675   9.721   7.831
18381WAT     H255386   8.826   9.783   7.843
18382WAT      O55387   9.596   8.602   5.663
18382WAT     H155388   9.522   8.563   5.718
18382WAT     H255389   9.674   8.624   5.722
18383WAT      O55390   3.496   2.040   6.099
18383WAT     H155391   3.480   2.138   6.107
18383WAT     H255392   3.595   2.022   6.100
18384WAT      O55393   1.052   4.866   6.311
18384WAT     H155394   1.103   4.933   6.365
18384WAT     H255395   0.967   4.907   6.278
18385WAT      O55396   5.098   9.364   2.436
18385WAT     H155397   5.125   9.418   2.356
18385WAT     H255398   5.179   9.347   2.493
18386WAT      O55399   3.720   5.960   6.992
18386WAT     H155400   3.641   5.903   6.971
18386WAT     H255401   3.710   5.997   7.085
18387WAT      O55402   2.762   1.124   7.965
18387WAT     H155403   2.666   1.094   7.959
18387WAT     H255404   2.766   1.224   7.960
18388WAT      O55405   8.535   2.100   8.089
18388WAT     H155406   8.456   2.080   8.147
18388WAT     H255407   8.521   2.187   8.042
18389WAT      O55408   7.108   4.888   7.432
18389WAT     H155409   7.049   4.820   7.477
18389WAT     H255410   7.188   4.905   7.490
18390WAT      O55411   4.447   6.024   0.037
18390WAT     H155412   4.464   6.058   0.129
18390WAT     H255413   4.368   6.072  -0.002
18391WAT      O55414   6.938   3.771   1.321
18391WAT     H155415   6.900   3.767   1.413
18391WAT     H255416   6.866   3.752   1.255
18392WAT      O55417   0.877   1.555   6.958
18392WAT     H155418   0.921   1.490   7.019
18392WAT     H255419   0.851   1.509   6.873
18393WAT      O55420   3.612   3.370   6.401
18393WAT     H155421   3.695   3.334   6.358
18393WAT     H255422   3.617   3.470   6.405
18394WAT      O55423   2.014   5.755   9.385
18394WAT     H155424   2.106   5.791   9.373
18394WAT     H255425   1.965   5.812   9.451
18395WAT      O55426   0.764   0.917   3.102
18395WAT     H155427   0.743   1.010   3.071
18395WAT     H255428   0.716   0.851   3.044
18396WAT      O55429   4.211   7.316   9.219
18396WAT     H155430   4.144   7.391   9.220
18396WAT     H255431   4.227   7.286   9.313
18397WAT      O55432   6.266   1.831   1.714
18397WAT     H155433   6.234   1.920   1.682
18397WAT     H255434   6.263   1.828   1.814
18398WAT      O55435   9.884   8.660   0.375
18398WAT     H155436   9.952   8.721   0.415
18398WAT     H255437   9.876   8.678   0.277
18399WAT      O55438   2.368   9.775   6.057
18399WAT     H155439   2.415   9.703   6.006
18399WAT     H255440   2.298   9.734   6.116
18400WAT      O55441   9.754   3.990   8.111
18400WAT     H155442   9.678   4.020   8.053
18400WAT     H255443   9.739   4.023   8.205
18401WAT      O55444   1.040   7.353   8.821
18401WAT     H155445   1.083   7.434   8.781
18401WAT     H255446   1.070   7.342   8.916
18402WAT      O55447   2.369   8.805   7.742
18402WAT     H155448   2.303   8.819   7.668
18402WAT     H255449   2.324   8.761   7.819
18403WAT      O55450   0.708   7.169   1.239
18403WAT     H155451   0.663   7.258   1.231
18403WAT     H255452   0.648   7.105   1.288
18404WAT      O55453   2.379   0.945   7.297
18404WAT     H155454   2.306   0.927   7.231
18404WAT     H255455   2.412   1.038   7.286
18405WAT      O55456   2.811   4.852   6.693
18405WAT     H155457   2.736   4.812   6.641
18405WAT     H255458   2.790   4.849   6.791
18406WAT      O55459   0.133   7.085   5.715
18406WAT     H155460   0.132   7.185   5.714
18406WAT     H255461   0.142   7.053   5.809
18407WAT      O55462   7.552   0.042   3.489
18407WAT     H155463   7.583  -0.052   3.477
18407WAT     H255464   7.546   0.063   3.587
18408WAT      O55465   0.786   6.100   3.434
18408WAT     H155466   0.765   6.014   3.480
18408WAT     H255467   0.800   6.172   3.502
18409WAT      O55468   9.340   4.885   3.353
18409WAT     H155469   9.424   4.889   3.407
18409WAT     H255470   9.284   4.966   3.374
18410WAT      O55471   1.909   9.313   8.972
18410WAT     H155472   1.908   9.383   8.900
18410WAT     H255473   1.845   9.240   8.948
18411WAT      O55474   4.335   1.151   3.972
18411WAT     H155475   4.256   1.203   3.942
18411WAT     H255476   4.407   1.213   4.003
18412WAT      O55477   1.508   5.639   3.604
18412WAT     H155478   1.448   5.571   3.648
18412WAT     H255479   1.545   5.700   3.674
18413WAT      O55480   6.458   5.532   2.173
18413WAT     H155481   6.508   5.586   2.241
18413WAT     H255482   6.386   5.588   2.132
18414WAT      O55483   4.464   3.990   9.766
18414WAT     H155484   4.390   4.057   9.763
18414WAT     H255485   4.523   4.001   9.687
18415WAT      O55486   3.935   5.117   3.398
18415WAT     H155487   3.911   5.166   3.315
18415WAT     H255488   3.926   5.018   3.383
18416WAT      O55489   8.300   1.910   3.438
18416WAT     H155490   8.210   1.927   3.478
18416WAT     H255491   8.363   1.880   3.510
18417WAT      O55492   5.683   9.769   8.771
18417WAT     H155493   5.728   9.688   8.810
18417WAT     H255494   5.591   9.778   8.810
18418WAT      O55495   5.172   5.859   3.933
18418WAT     H155496   5.242   5.887   3.999
18418WAT     H255497   5.089   5.831   3.981
18419WAT      O55498   5.553   3.521   1.360
18419WAT     H155499   5.519   3.446   1.303
18419WAT     H255500   5.629   3.566   1.313
18420WAT      O55501   6.884   0.845   2.152
18420WAT     H155502   6.787   0.865   2.141
18420WAT     H255503   6.937   0.930   2.143
18421WAT      O55504   9.082   1.312   4.347
18421WAT     H155505   9.157   1.358   4.395
18421WAT     H255506   9.090   1.213   4.359
18422WAT      O55507   2.270   5.650   9.577
18422WAT     H155508   2.364   5.641   9.543
18422WAT     H255509   2.219   5.711   9.517
18423WAT      O55510   7.216   8.118   2.134
18423WAT     H155511   7.290   8.173   2.171
18423WAT     H255512   7.238   8.091   2.040
18424WAT      O55513   1.737   7.286   2.669
18424WAT     H155514   1.776   7.203   2.710
18424WAT     H255515   1.678   7.260   2.593
18425WAT      O55516   1.693   2.835   0.867
18425WAT     H155517   1.645   2.855   0.781
18425WAT     H255518   1.790   2.819   0.848
18426WAT      O55519   7.332   0.437   3.427
18426WAT     H155520   7.408   0.376   3.404
18426WAT     H255521   7.350   0.528   3.390
18427WAT      O55522   6.692   4.685   8.388
18427WAT     H155523   6.720   4.683   8.484
18427WAT     H255524   6.691   4.780   8.356
18428WAT      O55525   1.183   5.051   4.713
18428WAT     H155526   1.237   5.125   4.673
18428WAT     H255527   1.109   5.090   4.768
18429WAT      O55528   0.749   1.180   3.014
18429WAT     H155529   0.821   1.246   3.033
18429WAT     H255530   0.661   1.215   3.045
18430WAT      O55531   8.987   8.129   9.217
18430WAT     H155532   8.923   8.183   9.162
18430WAT     H255533   8.973   8.148   9.314
18431WAT      O55534   4.867   7.331   6.575
18431WAT     H155535   4.770   7.334   6.550
18431WAT     H255536   4.923   7.354   6.495
18432WAT      O55537   7.095   3.344   1.786
18432WAT     H155538   7.052   3.298   1.864
18432WAT     H255539   7.024   3.380   1.725
18433WAT      O55540   6.225   9.612   0.606
18433WAT     H155541   6.174   9.541   0.655
18433WAT     H255542   6.296   9.569   0.550
18434WAT      O55543   8.571   8.251   9.665
18434WAT     H155544   8.552   8.156   9.641
18434WAT     H255545   8.584   8.257   9.764
18435WAT      O55546   5.294   0.439   3.586
18435WAT     H155547   5.227   0.492   3.637
18435WAT     H255548   5.263   0.428   3.491
18436WAT      O55549   4.503   0.596   3.631
18436WAT     H155550   4.558   0.516   3.655
18436WAT     H255551   4.561   0.677   3.627
18437WAT      O55552   2.699   1.948   6.180
18437WAT     H155553   2.699   2.023   6.114
18437WAT     H255554   2.731   1.864   6.135
18438WAT      O55555   2.102   9.735   4.871
18438WAT     H155556   2.015   9.778   4.846
18438WAT     H255557   2.156   9.718   4.788
18439WAT      O55558   2.441   8.209   0.558
18439WAT     H155559   2.367   8.247   0.503
18439WAT     H255560   2.476   8.126   0.514
18440WAT      O55561   7.092   7.549   5.438
18440WAT     H155562   7.103   7.579   5.533
18440WAT     H255563   7.121   7.454   5.430
18441WAT      O55564   4.324   4.536   0.932
18441WAT     H155565   4.314   4.569   0.838
18441WAT     H255566   4.299   4.609   0.996
18442WAT      O55567   2.119   3.344   0.116
18442WAT     H155568   2.141   3.307   0.206
18442WAT     H255569   2.140   3.275   0.046
18443WAT      O55570   5.104   5.160   7.696
18443WAT     H155571   5.157   5.222   7.754
18443WAT     H255572   5.091   5.201   7.606
18444WAT      O55573   3.825   0.083   9.325
18444WAT     H155574   3.774   0.055   9.244
18444WAT     H255575   3.826   0.009   9.391
18445WAT      O55576   4.285   7.140   4.603
18445WAT     H155577   4.306   7.123   4.699
18445WAT     H255578   4.345   7.084   4.546
18446WAT      O55579   1.976   7.496   5.027
18446WAT     H155580   1.995   7.403   4.997
18446WAT     H255581   1.975   7.499   5.127
18447WAT      O55582   1.411   2.465   6.722
18447WAT     H155583   1.434   2.534   6.792
18447WAT     H255584   1.353   2.394   6.763
18448WAT      O55585   8.968   7.279   9.322
18448WAT     H155586   8.914   7.255   9.241
18448WAT     H255587   9.005   7.196   9.363
18449WAT      O55588   1.680   5.908   8.073
18449WAT     H155589   1.690   5.929   7.976
18449WAT     H255590   1.724   5.821   8.093
18450WAT      O55591   7.136   4.781   8.657
18450WAT     H155592   7.075   4.729   8.717
18450WAT     H255593   7.131   4.878   8.681
18451WAT      O55594   9.571   1.684   2.316
18451WAT     H155595   9.491   1.650   2.268
18451WAT     H255596   9.626   1.606   2.348
18452WAT      O55597   4.323   2.022   1.242
18452WAT     H155598   4.255   2.093   1.260
18452WAT     H255599   4.395   2.059   1.184
18453WAT      O55600   9.335   1.175   2.701
18453WAT     H155601   9.281   1.250   2.661
18453WAT     H255602   9.360   1.198   2.795
18454WAT      O55603   7.433   9.314   1.363
18454WAT     H155604   7.336   9.298   1.346
18454WAT     H255605   7.486   9.241   1.321
18455WAT      O55606   7.647   5.440   6.831
18455WAT     H155607   7.642   5.387   6.916
18455WAT     H255608   7.739   5.434   6.794
18456WAT      O55609   7.792   8.897   9.231
18456WAT     H155610   7.834   8.909   9.141
18456WAT     H255611   7.863   8.897   9.301
18457WAT      O55612   2.552   7.025   0.773
18457WAT     H155613   2.519   7.118   0.756
18457WAT     H255614   2.552   6.974   0.687
18458WAT      O55615   1.424   5.665   6.041
18458WAT     H155616   1.501   5.628   5.988
18458WAT     H255617   1.459   5.728   6.110
18459WAT      O55618   2.944   8.202   8.029
18459WAT     H155619   2.982   8.274   8.086
18459WAT     H255620   2.847   8.222   8.010
18460WAT      O55621   0.095   2.429   8.769
18460WAT     H155622   0.008   2.454   8.728
18460WAT     H255623   0.164   2.497   8.744
18461WAT      O55624   6.986   3.128   0.789
18461WAT     H155625   6.985   3.203   0.723
18461WAT     H255626   6.959   3.162   0.879
18462WAT      O55627   4.489   1.342   2.660
18462WAT     H155628   4.451   1.397   2.586
18462WAT     H255629   4.572   1.386   2.696
18463WAT      O55630   2.415   9.428   2.149
18463WAT     H155631   2.345   9.428   2.079
18463WAT     H255632   2.426   9.336   2.186
18464WAT      O55633   1.293   6.974   1.141
18464WAT     H155634   1.229   6.963   1.066
18464WAT     H255635   1.249   7.022   1.217
18465WAT      O55636   0.037   8.181   7.134
18465WAT     H155637   0.050   8.204   7.230
18465WAT     H255638   0.121   8.201   7.083
18466WAT      O55639   6.953   4.099   4.853
18466WAT     H155640   6.934   4.177   4.912
18466WAT     H255641   7.002   4.130   4.771
18467WAT      O55642   4.107   8.804   9.701
18467WAT     H155643   4.200   8.824   9.669
18467WAT     H255644   4.041   8.852   9.643
18468WAT      O55645   7.565   6.121   8.760
18468WAT     H155646   7.559   6.146   8.663
18468WAT     H255647   7.594   6.201   8.813
18469WAT      O55648   8.556   7.507   7.782
18469WAT     H155649   8.604   7.470   7.702
18469WAT     H255650   8.475   7.558   7.752
18470WAT      O55651   2.885   2.302   5.563
18470WAT     H155652   2.948   2.262   5.629
18470WAT     H255653   2.802   2.246   5.557
18471WAT      O55654   9.640   0.105   3.189
18471WAT     H155655   9.551   0.069   3.217
18471WAT     H255656   9.691   0.135   3.270
18472WAT      O55657   1.452   0.009   1.470
18472WAT     H155658   1.488   0.093   1.512
18472WAT     H255659   1.358   0.024   1.442
18473WAT      O55660   9.615   0.983   6.039
18473WAT     H155661   9.713   0.984   6.059
18473WAT     H255662   9.565   0.946   6.117
18474WAT      O55663   0.041   1.671   2.124
18474WAT     H155664   0.042   1.578   2.161
18474WAT     H255665   0.005   1.734   2.194
18475WAT      O55666   3.739   3.703   0.699
18475WAT     H155667   3.806   3.668   0.634
18475WAT     H255668   3.721   3.634   0.769
18476WAT      O55669   6.071   4.559   8.215
18476WAT     H155670   5.993   4.515   8.258
18476WAT     H255671   6.050   4.656   8.199
18477WAT      O55672   7.637   6.097   0.960
18477WAT     H155673   7.653   6.062   1.052
18477WAT     H255674   7.663   6.193   0.956
18478WAT      O55675   0.363   1.988   3.737
18478WAT     H155676   0.401   1.906   3.781
18478WAT     H255677   0.278   2.013   3.782
18479WAT      O55678   1.078   8.545   0.840
18479WAT     H155679   1.083   8.554   0.740
18479WAT     H255680   1.113   8.456   0.868
18480WAT      O55681   1.308   3.646   7.190
18480WAT     H155682   1.400   3.627   7.225
18480WAT     H255683   1.272   3.564   7.146
18481WAT      O55684   6.093   2.774   4.275
18481WAT     H155685   6.125   2.749   4.366
18481WAT     H255686   6.004   2.819   4.282
18482WAT      O55687   8.345   0.450   8.567
18482WAT     H155688   8.429   0.447   8.623
18482WAT     H255689   8.302   0.540   8.578
18483WAT      O55690   8.522   4.494   6.588
18483WAT     H155691   8.599   4.558   6.583
18483WAT     H255692   8.438   4.541   6.559
18484WAT      O55693   3.271   5.314   4.516
18484WAT     H155694   3.199   5.340   4.451
18484WAT     H255695   3.293   5.217   4.504
18485WAT      O55696   6.737   8.235   3.186
18485WAT     H155697   6.759   8.293   3.108
18485WAT     H255698   6.811   8.170   3.201
18486WAT      O55699   7.501   8.615   6.317
18486WAT     H155700   7.570   8.676   6.277
18486WAT     H255701   7.410   8.648   6.291
18487WAT      O55702   9.699   5.541   7.109
18487WAT     H155703   9.750   5.608   7.054
18487WAT     H255704   9.611   5.580   7.135
18488WAT      O55705   8.183   7.283   1.066
18488WAT     H155706   8.231   7.273   0.979
18488WAT     H255707   8.248   7.275   1.142
18489WAT      O55708   6.149   3.362   6.837
18489WAT     H155709   6.141   3.305   6.918
18489WAT     H255710   6.160   3.305   6.756
18490WAT      O55711   6.808   1.384   3.115
18490WAT     H155712   6.763   1.321   3.051
18490WAT     H255713   6.905   1.392   3.091
18491WAT      O55714   0.404   2.914   3.161
18491WAT     H155715   0.421   3.000   3.112
18491WAT     H255716   0.434   2.837   3.103
18492WAT      O55717   6.688   7.023   6.339
18492WAT     H155718   6.680   6.942   6.398
18492WAT     H255719   6.734   6.998   6.254
18493WAT      O55720   1.959   1.615   3.941
18493WAT     H155721   1.881   1.669   3.974
18493WAT     H255722   2.012   1.670   3.877
18494WAT      O55723   4.471   1.008   0.247
18494WAT     H155724   4.453   1.051   0.159
18494WAT     H255725   4.567   0.981   0.252
18495WAT      O55726   7.572   7.267   5.287
18495WAT     H155727   7.669   7.242   5.285
18495WAT     H255728   7.516   7.185   5.293
18496WAT      O55729   7.089   0.130   9.129
18496WAT     H155730   7.107   0.197   9.056
18496WAT     H255731   6.991   0.128   9.149
18497WAT      O55732   2.167   1.289   8.019
18497WAT     H155733   2.086   1.318   7.968
18497WAT     H255734   2.249   1.315   7.969
18498WAT      O55735   4.418   2.462   0.700
18498WAT     H155736   4.446   2.558   0.692
18498WAT     H255737   4.463   2.420   0.778
18499WAT      O55738   8.006   1.576   4.890
18499WAT     H155739   8.056   1.592   4.805
18499WAT     H255740   7.952   1.492   4.882
18500WAT      O55741   6.111   6.387   5.005
18500WAT     H155742   6.052   6.372   5.085
18500WAT     H255743   6.055   6.400   4.924
18501WAT      O55744   7.451   7.262   2.706
18501WAT     H155745   7.379   7.196   2.728
18501WAT     H255746   7.417   7.355   2.720
18502WAT      O55747   3.856   5.412   2.350
18502WAT     H155748   3.862   5.403   2.251
18502WAT     H255749   3.792   5.485   2.373
18503WAT      O55750   6.668   8.731   6.653
18503WAT     H155751   6.717   8.644   6.660
18503WAT     H255752   6.703   8.783   6.576
18504WAT      O55753   0.473   2.698   4.112
18504WAT     H155754   0.521   2.778   4.148
18504WAT     H255755   0.453   2.713   4.015
18505WAT      O55756   0.589   3.521   3.462
18505WAT     H155757   0.556   3.544   3.371
18505WAT     H255758   0.595   3.421   3.471
18506WAT      O55759   9.281   6.662   5.535
18506WAT     H155760   9.380   6.658   5.552
18506WAT     H255761   9.236   6.706   5.613
18507WAT      O55762   5.621   7.997   8.475
18507WAT     H155763   5.685   7.922   8.491
18507WAT     H255764   5.550   7.996   8.546
18508WAT      O55765   0.243   6.268   9.490
18508WAT     H155766   0.210   6.210   9.565
18508WAT     H255767   0.338   6.245   9.470
18509WAT      O55768   7.005   3.484   4.272
18509WAT     H155769   6.962   3.498   4.362
18509WAT     H255770   7.051   3.396   4.270
18510WAT      O55771   1.495   6.699   7.794
18510WAT     H155772   1.424   6.745   7.847
18510WAT     H255773   1.473   6.707   7.696
18511WAT      O55774   6.226   5.235   3.293
18511WAT     H155775   6.308   5.222   3.236
18511WAT     H255776   6.146   5.204   3.243
18512WAT      O55777   6.816   3.104   8.497
18512WAT     H155778   6.820   3.184   8.438
18512WAT     H255779   6.771   3.029   8.448
18513WAT      O55780   4.007   0.250   2.020
18513WAT     H155781   4.105   0.237   2.005
18513WAT     H255782   3.964   0.277   1.934
18514WAT      O55783   1.828   8.643   3.551
18514WAT     H155784   1.739   8.629   3.508
18514WAT     H255785   1.899   8.643   3.481
18515WAT      O55786   7.256   9.316   7.953
18515WAT     H155787   7.174   9.264   7.930
18515WAT     H255788   7.300   9.274   8.033
18516WAT      O55789   8.685   5.712   2.848
18516WAT     H155790   8.694   5.632   2.907
18516WAT     H255791   8.759   5.714   2.782
18517WAT      O55792   3.112   8.308   1.437
18517WAT     H155793   3.102   8.341   1.343
18517WAT     H255794   3.174   8.369   1.486
18518WAT      O55795   6.709   4.286   0.338
18518WAT     H155796   6.719   4.206   0.397
18518WAT     H255797   6.785   4.290   0.273
18519WAT      O55798   6.332   5.538   3.199
18519WAT     H155799   6.247   5.591   3.191
18519WAT     H255800   6.332   5.487   3.284
18520WAT      O55801   4.741   4.219   2.751
18520WAT     H155802   4.736   4.288   2.824
18520WAT     H255803   4.693   4.253   2.670
18521WAT      O55804   1.870   3.823   8.178
18521WAT     H155805   1.955   3.836   8.127
18521WAT     H255806   1.813   3.756   8.132
18522WAT      O55807   7.040   3.183   3.883
18522WAT     H155808   6.980   3.231   3.945
18522WAT     H255809   7.136   3.201   3.908
18523WAT      O55810   1.850   4.059   0.669
18523WAT     H155811   1.894   4.031   0.755
18523WAT     H255812   1.780   4.128   0.689
18524WAT      O55813   5.715   7.750   9.794
18524WAT     H155814   5.738   7.682   9.864
18524WAT     H255815   5.667   7.827   9.836
18525WAT      O55816   4.411   0.485   7.789
18525WAT     H155817   4.346   0.504   7.715
18525WAT     H255818   4.502   0.514   7.760
18526WAT      O55819   9.757   0.667   3.812
18526WAT     H155820   9.834   0.605   3.828
18526WAT     H255821   9.690   0.656   3.885
18527WAT      O55822   3.449   2.263   8.127
18527WAT     H155823   3.494   2.188   8.079
18527WAT     H255824   3.446   2.343   8.068
18528WAT      O55825   0.174   7.982   2.745
18528WAT     H155826   0.127   8.062   2.783
18528WAT     H255827   0.109   7.929   2.690
18529WAT      O55828   9.309   7.824   3.706
18529WAT     H155829   9.221   7.798   3.748
18529WAT     H255830   9.344   7.906   3.752
18530WAT      O55831   4.087   1.335   7.605
18530WAT     H155832   4.098   1.258   7.543
18530WAT     H255833   4.176   1.370   7.632
18531WAT      O55834   7.112   7.963   2.869
18531WAT     H155835   7.106   7.887   2.934
18531WAT     H255836   7.087   8.048   2.914
18532WAT      O55837   1.544   8.883   7.988
18532WAT     H155838   1.630   8.854   8.031
18532WAT     H255839   1.480   8.913   8.059
18533WAT      O55840   4.977   8.722   4.050
18533WAT     H155841   5.057   8.773   4.082
18533WAT     H255842   4.914   8.785   4.004
18534WAT      O55843   9.165   3.439   0.748
18534WAT     H155844   9.179   3.395   0.837
18534WAT     H255845   9.215   3.526   0.745
18535WAT      O55846   3.488   5.506   9.472
18535WAT     H155847   3.462   5.585   9.417
18535WAT     H255848   3.464   5.422   9.423
18536WAT      O55849   6.442   1.970   3.404
18536WAT     H155850   6.506   2.026   3.456
18536WAT     H255851   6.491   1.921   3.332
18537WAT      O55852   1.632   7.956   0.768
18537WAT     H155853   1.623   7.875   0.825
18537WAT     H255854   1.654   7.928   0.674
18538WAT      O55855   3.153   0.545   9.127
18538WAT     H155856   3.069   0.534   9.074
18538WAT     H255857   3.175   0.460   9.175
18539WAT      O55858   7.429   3.418   4.625
18539WAT     H155859   7.352   3.371   4.582
18539WAT     H255860   7.489   3.351   4.670
18540WAT      O55861   9.814   0.238   6.071
18540WAT     H155862   9.791   0.324   6.027
18540WAT     H255863   9.903   0.245   6.115
18541WAT      O55864   0.884   7.926   8.407
18541WAT     H155865   0.906   7.987   8.331
18541WAT     H255866   0.963   7.919   8.468
18542WAT      O55867   7.990   3.933   6.378
18542WAT     H155868   7.958   4.023   6.347
18542WAT     H255869   7.912   3.870   6.384
18543WAT      O55870   8.388   4.091   5.573
18543WAT     H155871   8.460   4.155   5.599
18543WAT     H255872   8.342   4.125   5.491
18544WAT      O55873   8.352   6.594   4.232
18544WAT     H155874   8.370   6.594   4.133
18544WAT     H255875   8.396   6.674   4.274
18545WAT      O55876   5.093   7.531   5.399
18545WAT     H155877   5.032   7.549   5.321
18545WAT     H255878   5.041   7.488   5.472
18546WAT      O55879   1.515   3.605   8.536
18546WAT     H155880   1.604   3.574   8.569
18546WAT     H255881   1.526   3.693   8.489
18547WAT      O55882   4.807   5.471   5.807
18547WAT     H155883   4.772   5.390   5.852
18547WAT     H255884   4.736   5.509   5.747
18548WAT      O55885   8.490   3.217   7.056
18548WAT     H155886   8.510   3.247   6.963
18548WAT     H255887   8.569   3.233   7.114
18549WAT      O55888   5.061   7.751   2.824
18549WAT     H155889   4.992   7.730   2.894
18549WAT     H255890   5.096   7.665   2.786
18550WAT      O55891   9.825   1.956   2.978
18550WAT     H155892   9.828   2.037   3.036
18550WAT     H255893   9.914   1.942   2.935
18551WAT      O55894   7.678   6.927   2.198
18551WAT     H155895   7.657   6.956   2.291
18551WAT     H255896   7.602   6.952   2.137
18552WAT      O55897   7.570   0.021   0.522
18552WAT     H155898   7.648  -0.020   0.474
18552WAT     H255899   7.555   0.114   0.489
18553WAT      O55900   5.812   0.651   2.528
18553WAT     H155901   5.783   0.700   2.611
18553WAT     H255902   5.898   0.604   2.545
18554WAT      O55903   2.613   5.119   3.093
18554WAT     H155904   2.575   5.186   3.157
18554WAT     H255905   2.706   5.095   3.120
18555WAT      O55906   7.947   6.501   3.482
18555WAT     H155907   7.985   6.409   3.470
18555WAT     H255908   7.874   6.498   3.550
18556WAT      O55909   9.384   5.368   2.389
18556WAT     H155910   9.344   5.346   2.300
18556WAT     H255911   9.422   5.460   2.387
18557WAT      O55912   0.098   8.049   4.668
18557WAT     H155913   0.097   8.134   4.615
18557WAT     H255914   0.017   7.995   4.646
18558WAT      O55915   2.190   0.634   4.866
18558WAT     H155916   2.255   0.710   4.860
18558WAT     H255917   2.139   0.628   4.780
18559WAT      O55918   7.715   7.654   6.003
18559WAT     H155919   7.764   7.633   6.087
18559WAT     H255920   7.777   7.698   5.938
18560WAT      O55921   1.342   6.293   1.229
18560WAT     H155922   1.314   6.350   1.307
18560WAT     H255923   1.303   6.202   1.239
18561WAT      O55924   1.103   8.647   5.128
18561WAT     H155925   1.020   8.594   5.112
18561WAT     H255926   1.139   8.682   5.042
18562WAT      O55927   7.707   3.289   2.935
18562WAT     H155928   7.638   3.360   2.921
18562WAT     H255929   7.669   3.199   2.912
18563WAT      O55930   6.585   2.984   1.728
18563WAT     H155931   6.624   3.049   1.793
18563WAT     H255932   6.625   2.999   1.638
18564WAT      O55933   2.962   6.928   5.413
18564WAT     H155934   2.904   6.928   5.495
18564WAT     H255935   2.911   6.892   5.335
18565WAT      O55936   4.640   3.534   7.945
18565WAT     H155937   4.566   3.477   7.980
18565WAT     H255938   4.728   3.495   7.973
18566WAT      O55939   0.481   4.724   4.468
18566WAT     H155940   0.507   4.808   4.422
18566WAT     H255941   0.485   4.647   4.404
18567WAT      O55942   9.428   0.642   7.844
18567WAT     H155943   9.488   0.703   7.897
18567WAT     H255944   9.460   0.638   7.750
18568WAT      O55945   1.275   2.150   0.149
18568WAT     H155946   1.341   2.222   0.171
18568WAT     H255947   1.246   2.160   0.054
18569WAT      O55948   2.779   7.580   0.692
18569WAT     H155949   2.839   7.503   0.673
18569WAT     H255950   2.804   7.622   0.779
18570WAT      O55951   9.636   1.929   2.173
18570WAT     H155952   9.598   1.844   2.210
18570WAT     H255953   9.581   2.007   2.204
18571WAT      O55954   1.248   2.186   2.983
18571WAT     H155955   1.252   2.251   3.059
18571WAT     H255956   1.278   2.232   2.899
18572WAT      O55957   7.994   4.372   3.911
18572WAT     H155958   7.958   4.369   3.818
18572WAT     H255959   8.063   4.444   3.918
18573WAT      O55960   7.173   2.002   6.266
18573WAT     H155961   7.184   1.927   6.201
18573WAT     H255962   7.191   2.089   6.221
18574WAT      O55963   6.555   3.619   6.387
18574WAT     H155964   6.520   3.678   6.460
18574WAT     H255965   6.516   3.527   6.396
18575WAT      O55966   7.511   6.291   4.257
18575WAT     H155967   7.443   6.350   4.214
18575WAT     H255968   7.597   6.296   4.206
18576WAT      O55969   0.500   8.311   6.801
18576WAT     H155970   0.543   8.313   6.711
18576WAT     H255971   0.503   8.217   6.837
18577WAT      O55972   0.072   0.132   2.213
18577WAT     H155973  -0.008   0.120   2.155
18577WAT     H255974   0.151   0.156   2.156
18578WAT      O55975   2.975   6.689   6.062
18578WAT     H155976   3.046   6.641   6.010
18578WAT     H255977   2.936   6.763   6.006
18579WAT      O55978   6.408   3.617   0.598
18579WAT     H155979   6.460   3.697   0.627
18579WAT     H255980   6.431   3.595   0.503
18580WAT      O55981   7.723   7.316   9.410
18580WAT     H155982   7.726   7.255   9.489
18580WAT     H255983   7.750   7.266   9.328
18581WAT      O55984   2.021   9.059   1.175
18581WAT     H155985   2.114   9.096   1.170
18581WAT     H255986   2.022   8.972   1.223
18582WAT      O55987   3.926   1.324   0.175
18582WAT     H155988   3.883   1.234   0.173
18582WAT     H255989   3.868   1.388   0.225
18583WAT      O55990   6.063   0.657   2.273
18583WAT     H155991   6.009   0.604   2.339
18583WAT     H255992   6.004   0.682   2.196
18584WAT      O55993   2.545   0.909   5.451
18584WAT     H155994   2.481   0.831   5.450
18584WAT     H255995   2.576   0.924   5.545
18585WAT      O55996   4.610   4.058   7.198
18585WAT     H155997   4.634   4.137   7.141
18585WAT     H255998   4.628   3.974   7.146
18586WAT      O55999   8.204   4.572   4.448
18586WAT     H156000   8.290   4.586   4.498
18586WAT     H256001   8.192   4.474   4.430
18587WAT      O56002   7.007   5.439   0.152
18587WAT     H156003   6.951   5.463   0.072
18587WAT     H256004   7.040   5.523   0.195
18588WAT      O56005   5.793   1.039   5.826
18588WAT     H156006   5.815   1.117   5.768
18588WAT     H256007   5.695   1.021   5.822
18589WAT      O56008   2.049   4.568   6.193
18589WAT     H156009   1.980   4.500   6.165
18589WAT     H256010   2.057   4.638   6.122
18590WAT      O56011   8.320   0.978   2.888
18590WAT     H156012   8.247   1.027   2.936
18590WAT     H256013   8.384   0.941   2.955
18591WAT      O56014   4.710   8.895   9.388
18591WAT     H156015   4.674   8.802   9.391
18591WAT     H256016   4.751   8.919   9.476
18592WAT      O56017   3.268   1.251   2.191
18592WAT     H156018   3.317   1.336   2.210
18592WAT     H256019   3.174   1.259   2.224
18593WAT      O56020   2.031   0.615   3.259
18593WAT     H156021   2.104   0.559   3.220
18593WAT     H256022   1.942   0.575   3.234
18594WAT      O56023   9.838   6.081   5.236
18594WAT     H156024   9.914   6.049   5.180
18594WAT     H256025   9.853   6.177   5.261
18595WAT      O56026   5.894   9.682   2.896
18595WAT     H156027   5.838   9.709   2.974
18595WAT     H256028   5.852   9.603   2.851
18596WAT      O56029   4.276   4.641   3.544
18596WAT     H156030   4.341   4.610   3.614
18596WAT     H256031   4.245   4.563   3.491
18597WAT      O56032   1.569   0.861   7.887
18597WAT     H156033   1.477   0.899   7.883
18597WAT     H256034   1.628   0.920   7.943
18598WAT      O56035   6.226   2.085   1.327
18598WAT     H156036   6.224   2.185   1.332
18598WAT     H256037   6.271   2.057   1.242
18599WAT      O56038   8.391   4.091   6.404
18599WAT     H156039   8.428   4.009   6.359
18599WAT     H256040   8.359   4.156   6.335
18600WAT      O56041   5.280   5.604   3.694
18600WAT     H156042   5.248   5.618   3.601
18600WAT     H256043   5.238   5.672   3.755
18601WAT      O56044   4.078   0.228   2.404
18601WAT     H156045   4.049   0.312   2.359
18601WAT     H256046   4.178   0.228   2.414
18602WAT      O56047   3.494   4.453   2.427
18602WAT     H156048   3.466   4.437   2.332
18602WAT     H256049   3.459   4.380   2.485
18603WAT      O56050   0.690   6.593   6.738
18603WAT     H156051   0.771   6.567   6.685
18603WAT     H256052   0.686   6.692   6.747
18604WAT      O56053   1.321   3.839   9.040
18604WAT     H156054   1.274   3.822   9.126
18604WAT     H256055   1.364   3.929   9.043
18605WAT      O56056   1.184   9.502   9.751
18605WAT     H156057   1.186   9.598   9.722
18605WAT     H256058   1.271   9.459   9.727
18606WAT      O56059   7.981   4.218   5.218
18606WAT     H156060   7.928   4.241   5.299
18606WAT     H256061   7.961   4.285   5.146
18607WAT      O56062   7.410   2.163   1.004
18607WAT     H156063   7.428   2.122   0.915
18607WAT     H256064   7.490   2.152   1.062
18608WAT      O56065   6.433   1.497   3.069
18608WAT     H156066   6.432   1.463   2.975
18608WAT     H256067   6.348   1.474   3.115
18609WAT      O56068   7.177   5.856   0.178
18609WAT     H156069   7.090   5.868   0.130
18609WAT     H256070   7.252   5.856   0.112
18610WAT      O56071   4.463   4.854   0.322
18610WAT     H156072   4.461   4.944   0.367
18610WAT     H256073   4.374   4.837   0.279
18611WAT      O56074   2.719   5.278   0.323
18611WAT     H156075   2.734   5.377   0.327
18611WAT     H256076   2.806   5.231   0.338
18612WAT      O56077   9.574   0.107   5.196
18612WAT     H156078   9.665   0.148   5.204
18612WAT     H256079   9.504   0.179   5.204
18613WAT      O56080   2.407   4.090   2.743
18613WAT     H156081   2.334   4.134   2.691
18613WAT     H256082   2.368   4.026   2.810
18614WAT      O56083   7.240   1.566   9.022
18614WAT     H156084   7.338   1.573   9.006
18614WAT     H256085   7.224   1.527   9.113
18615WAT      O56086   2.976   2.306   3.237
18615WAT     H156087   2.966   2.401   3.263
18615WAT     H256088   3.037   2.299   3.158
18616WAT      O56089   3.993   5.116   6.183
18616WAT     H156090   4.088   5.144   6.198
18616WAT     H256091   3.943   5.122   6.269
18617WAT      O56092   5.737   4.283   6.316
18617WAT     H156093   5.726   4.254   6.221
18617WAT     H256094   5.710   4.380   6.323
18618WAT      O56095   0.326   6.865   0.242
18618WAT     H156096   0.274   6.809   0.178
18618WAT     H256097   0.424   6.855   0.223
18619WAT      O56098   9.646   4.343   5.813
18619WAT     H156099   9.632   4.414   5.744
18619WAT     H256100   9.689   4.263   5.771
18620WAT      O56101   2.090   2.202   1.981
18620WAT     H156102   2.134   2.208   2.071
18620WAT     H256103   2.125   2.275   1.922
18621WAT      O56104   3.540   9.495   4.476
18621WAT     H156105   3.447   9.501   4.515
18621WAT     H256106   3.537   9.522   4.380
18622WAT      O56107   8.451   4.266   3.909
18622WAT     H156108   8.486   4.301   3.822
18622WAT     H256109   8.505   4.187   3.937
18623WAT      O56110   2.580   2.542   3.070
18623WAT     H156111   2.491   2.586   3.058
18623WAT     H256112   2.569   2.443   3.060
18624WAT      O56113   0.736   9.638   6.971
18624WAT     H156114   0.811   9.644   6.905
18624WAT     H256115   0.651   9.666   6.926
18625WAT      O56116   4.548   2.704   8.669
18625WAT     H156117   4.545   2.623   8.610
18625WAT     H256118   4.459   2.750   8.667
18626WAT      O56119   6.060   2.354   0.808
18626WAT     H156120   6.030   2.308   0.892
18626WAT     H256121   6.120   2.293   0.756
18627WAT      O56122   4.679   0.848   2.814
18627WAT     H156123   4.682   0.749   2.827
18627WAT     H256124   4.690   0.894   2.902
18628WAT      O56125   0.449   7.741   8.892
18628WAT     H156126   0.487   7.725   8.800
18628WAT     H256127   0.519   7.783   8.949
18629WAT      O56128   9.146   7.046   1.851
18629WAT     H156129   9.059   7.096   1.854
18629WAT     H256130   9.191   7.053   1.940
18630WAT      O56131   9.510   1.419   8.153
18630WAT     H156132   9.414   1.431   8.127
18630WAT     H256133   9.551   1.509   8.170
18631WAT      O56134   5.693   4.583   4.305
18631WAT     H156135   5.682   4.486   4.329
18631WAT     H256136   5.613   4.634   4.336
18632WAT      O56137   9.504   5.567   7.869
18632WAT     H156138   9.539   5.610   7.786
18632WAT     H256139   9.410   5.598   7.886
18633WAT      O56140   9.834   3.402   7.959
18633WAT     H156141   9.860   3.495   7.987
18633WAT     H256142   9.802   3.351   8.039
18634WAT      O56143   1.248   0.299   1.518
18634WAT     H156144   1.163   0.307   1.466
18634WAT     H256145   1.322   0.270   1.457
18635WAT      O56146   6.322   2.743   0.047
18635WAT     H156147   6.383   2.814   0.082
18635WAT     H256148   6.360   2.653   0.068
18636WAT      O56149   3.924   3.178   1.713
18636WAT     H156150   3.956   3.134   1.797
18636WAT     H256151   3.941   3.118   1.635
18637WAT      O56152   7.031   8.399   4.805
18637WAT     H156153   6.964   8.385   4.733
18637WAT     H256154   7.074   8.489   4.794
18638WAT      O56155   9.745   3.255   6.605
18638WAT     H156156   9.816   3.253   6.535
18638WAT     H256157   9.725   3.162   6.635
18639WAT      O56158   8.916   6.009   7.633
18639WAT     H156159   8.894   6.093   7.583
18639WAT     H256160   8.849   5.995   7.706
18640WAT      O56161   9.859   9.812   9.499
18640WAT     H156162   9.900   9.721   9.489
18640WAT     H256163   9.764   9.802   9.528
18641WAT      O56164   5.876   3.337   6.281
18641WAT     H156165   5.817   3.415   6.303
18641WAT     H256166   5.944   3.365   6.213
18642WAT      O56167   9.559   5.648   5.641
18642WAT     H156168   9.574   5.580   5.569
18642WAT     H256169   9.630   5.638   5.711
18643WAT      O56170   8.083   6.680   3.311
18643WAT     H156171   8.036   6.609   3.362
18643WAT     H256172   8.016   6.737   3.263
18644WAT      O56173   6.587   5.989   6.898
18644WAT     H156174   6.683   5.983   6.927
18644WAT     H256175   6.529   5.950   6.970
18645WAT      O56176   8.128   6.899   7.124
18645WAT     H156177   8.092   6.925   7.213
18645WAT     H256178   8.221   6.934   7.114
18646WAT      O56179   8.796   6.342   5.512
18646WAT     H156180   8.870   6.406   5.491
18646WAT     H256181   8.796   6.322   5.610
18647WAT      O56182   1.372   4.510   9.071
18647WAT     H156183   1.294   4.565   9.099
18647WAT     H256184   1.452   4.568   9.057
18648WAT      O56185   5.451   8.978   0.044
18648WAT     H156186   5.420   8.887   0.070
18648WAT     H256187   5.528   9.005   0.102
18649WAT      O56188   1.409   7.897   5.060
18649WAT     H156189   1.502   7.885   5.026
18649WAT     H256190   1.370   7.981   5.022
18650WAT      O56191   2.744   0.482   8.520
18650WAT     H156192   2.647   0.458   8.513
18650WAT     H256193   2.797   0.398   8.535
18651WAT      O56194   4.164   1.874   3.998
18651WAT     H156195   4.092   1.857   3.930
18651WAT     H256196   4.131   1.846   4.089
18652WAT      O56197   6.771   5.264   2.129
18652WAT     H156198   6.858   5.260   2.080
18652WAT     H256199   6.712   5.334   2.089
18653WAT      O56200   5.051   9.734   4.086
18653WAT     H156201   5.087   9.791   4.012
18653WAT     H256202   5.099   9.755   4.171
18654WAT      O56203   8.080   3.003   3.331
18654WAT     H156204   8.146   2.957   3.273
18654WAT     H256205   8.059   3.093   3.293
18655WAT      O56206   4.752   6.404   8.573
18655WAT     H156207   4.689   6.422   8.649
18655WAT     H256208   4.818   6.334   8.601
18656WAT      O56209   0.726   1.219   5.117
18656WAT     H156210   0.798   1.192   5.053
18656WAT     H256211   0.664   1.142   5.132
18657WAT      O56212   2.092   9.328   1.286
18657WAT     H156213   2.018   9.396   1.284
18657WAT     H256214   2.056   9.241   1.320
18658WAT      O56215   8.838   6.446   6.059
18658WAT     H156216   8.817   6.538   6.026
18658WAT     H256217   8.783   6.426   6.140
18659WAT      O56218   1.378   7.997   9.186
18659WAT     H156219   1.324   7.919   9.219
18659WAT     H256220   1.379   8.068   9.256
18660WAT      O56221   2.804   6.528   9.588
18660WAT     H156222   2.817   6.489   9.497
18660WAT     H256223   2.892   6.554   9.626
18661WAT      O56224   6.381   4.396   8.768
18661WAT     H156225   6.478   4.373   8.760
18661WAT     H256226   6.369   4.472   8.832
18662WAT      O56227   9.444   0.279   9.489
18662WAT     H156228   9.472   0.303   9.396
18662WAT     H256229   9.492   0.339   9.554
18663WAT      O56230   7.673   2.430   1.214
18663WAT     H156231   7.737   2.489   1.262
18663WAT     H256232   7.687   2.439   1.115
18664WAT      O56233   3.805   7.570   8.471
18664WAT     H156234   3.804   7.523   8.560
18664WAT     H256235   3.722   7.626   8.463
18665WAT      O56236   1.671   9.806   4.036
18665WAT     H156237   1.634   9.811   4.129
18665WAT     H256238   1.627   9.876   3.980
18666WAT      O56239   4.130   9.816   8.869
18666WAT     H156240   4.055   9.763   8.829
18666WAT     H256241   4.191   9.753   8.918
18667WAT      O56242   5.006   6.082   2.574
18667WAT     H156243   5.022   6.031   2.659
18667WAT     H256244   4.934   6.037   2.521
18668WAT      O56245   4.218   2.743   0.275
18668WAT     H156246   4.312   2.763   0.300
18668WAT     H256247   4.216   2.673   0.203
18669WAT      O56248   5.636   2.332   6.891
18669WAT     H156249   5.640   2.403   6.961
18669WAT     H256250   5.728   2.295   6.877
18670WAT      O56251   3.125   4.236   1.220
18670WAT     H156252   3.132   4.144   1.181
18670WAT     H256253   3.169   4.238   1.310
18671WAT      O56254   4.095   7.559   6.682
18671WAT     H156255   4.164   7.588   6.749
18671WAT     H256256   4.140   7.536   6.596
18672WAT      O56257   0.487   8.940   5.408
18672WAT     H156258   0.493   8.990   5.494
18672WAT     H256259   0.579   8.928   5.370
18673WAT      O56260   1.253   0.362   7.705
18673WAT     H156261   1.256   0.410   7.617
18673WAT     H256262   1.333   0.303   7.713
18674WAT      O56263   2.077   5.470   8.983
18674WAT     H156264   2.115   5.391   8.935
18674WAT     H256265   1.979   5.477   8.962
18675WAT      O56266   9.846   4.249   3.817
18675WAT     H156267   9.842   4.193   3.734
18675WAT     H256268   9.914   4.321   3.805
18676WAT      O56269   7.145   1.226   3.972
18676WAT     H156270   7.186   1.162   4.037
18676WAT     H256271   7.118   1.177   3.889
18677WAT      O56272   0.117   5.307   8.904
18677WAT     H156273   0.118   5.399   8.865
18677WAT     H256274   0.207   5.266   8.893
18678WAT      O56275   8.125   6.221   8.318
18678WAT     H156276   8.089   6.291   8.257
18678WAT     H256277   8.088   6.235   8.410
18679WAT      O56278   7.757   6.743   4.357
18679WAT     H156279   7.791   6.727   4.265
18679WAT     H256280   7.719   6.658   4.394
18680WAT      O56281   0.998   9.529   0.106
18680WAT     H156282   1.017   9.489   0.016
18680WAT     H256283   0.905   9.567   0.107
18681WAT      O56284   7.443   8.580   9.383
18681WAT     H156285   7.530   8.629   9.393
18681WAT     H256286   7.416   8.541   9.471
18682WAT      O56287   4.062   6.435   6.271
18682WAT     H156288   4.116   6.505   6.317
18682WAT     H256289   4.097   6.420   6.179
18683WAT      O56290   5.369   1.156   8.112
18683WAT     H156291   5.314   1.098   8.052
18683WAT     H256292   5.383   1.245   8.070
18684WAT      O56293   5.209   4.470   8.791
18684WAT     H156294   5.195   4.495   8.887
18684WAT     H256295   5.177   4.545   8.733
18685WAT      O56296   7.710   4.383   9.772
18685WAT     H156297   7.772   4.427   9.836
18685WAT     H256298   7.645   4.450   9.736
18686WAT      O56299   2.744   7.048   7.655
18686WAT     H156300   2.790   7.088   7.735
18686WAT     H256301   2.750   6.948   7.660
18687WAT      O56302   3.681   0.746   2.808
18687WAT     H156303   3.590   0.778   2.781
18687WAT     H256304   3.712   0.676   2.742
18688WAT      O56305   6.974   8.187   5.216
18688WAT     H156306   6.972   8.148   5.308
18688WAT     H256307   7.049   8.146   5.164
18689WAT      O56308   6.230   3.054   6.090
18689WAT     H156309   6.271   3.140   6.122
18689WAT     H256310   6.132   3.068   6.075
18690WAT      O56311   6.595   8.165   1.747
18690WAT     H156312   6.548   8.135   1.830
18690WAT     H256313   6.545   8.132   1.667
18691WAT      O56314   9.821   7.855   4.914
18691WAT     H156315   9.919   7.838   4.906
18691WAT     H256316   9.805   7.941   4.962
18692WAT      O56317   4.329   5.224   7.134
18692WAT     H156318   4.357   5.215   7.230
18692WAT     H256319   4.333   5.321   7.108
18693WAT      O56320   1.956   9.014   9.207
18693WAT     H156321   2.025   8.970   9.150
18693WAT     H256322   1.867   9.008   9.162
18694WAT      O56323   6.896   4.671   2.274
18694WAT     H156324   6.904   4.571   2.270
18694WAT     H256325   6.977   4.709   2.319
18695WAT      O56326   2.191   3.914   3.291
18695WAT     H156327   2.260   3.984   3.271
18695WAT     H256328   2.235   3.833   3.329
18696WAT      O56329   6.802   4.379   9.761
18696WAT     H156330   6.738   4.315   9.804
18696WAT     H256331   6.756   4.426   9.685
18697WAT      O56332   3.943   0.166   0.828
18697WAT     H156333   3.950   0.189   0.925
18697WAT     H256334   3.925   0.068   0.819
18698WAT      O56335   6.603   8.846   5.162
18698WAT     H156336   6.509   8.871   5.136
18698WAT     H256337   6.602   8.758   5.209
18699WAT      O56338   1.216   7.303   7.904
18699WAT     H156339   1.194   7.315   8.001
18699WAT     H256340   1.146   7.348   7.849
18700WAT      O56341   8.451   7.514   5.906
18700WAT     H156342   8.532   7.510   5.964
18700WAT     H256343   8.476   7.486   5.813
18701WAT      O56344   6.957   6.261   4.454
18701WAT     H156345   6.869   6.306   4.469
18701WAT     H256346   6.962   6.179   4.512
18702WAT      O56347   3.806   7.936   1.716
18702WAT     H156348   3.893   7.888   1.714
18702WAT     H256349   3.788   7.971   1.808
18703WAT      O56350   8.437   6.117   1.301
18703WAT     H156351   8.409   6.062   1.223
18703WAT     H256352   8.362   6.124   1.366
18704WAT      O56353   9.794   9.676   4.405
18704WAT     H156354   9.724   9.746   4.422
18704WAT     H256355   9.848   9.662   4.488
18705WAT      O56356   8.420   5.957   0.557
18705WAT     H156357   8.470   5.888   0.505
18705WAT     H256358   8.466   6.045   0.549
18706WAT      O56359   3.876   4.832   5.090
18706WAT     H156360   3.804   4.896   5.120
18706WAT     H256361   3.963   4.859   5.132
18707WAT      O56362   4.694   7.284   2.675
18707WAT     H156363   4.713   7.185   2.669
18707WAT     H256364   4.779   7.332   2.697
18708WAT      O56365   0.071   3.867   0.538
18708WAT     H156366   0.053   3.943   0.476
18708WAT     H256367   0.008   3.792   0.518
18709WAT      O56368   6.646   0.101   4.630
18709WAT     H156369   6.568   0.040   4.639
18709WAT     H256370   6.650   0.163   4.709
18710WAT      O56371   0.488   9.350   2.500
18710WAT     H156372   0.571   9.374   2.449
18710WAT     H256373   0.454   9.430   2.549
18711WAT      O56374   1.091   1.639   6.787
18711WAT     H156375   1.079   1.601   6.695
18711WAT     H256376   1.005   1.632   6.837
18712WAT      O56377   7.089   0.868   1.402
18712WAT     H156378   7.022   0.907   1.465
18712WAT     H256379   7.140   0.942   1.358
18713WAT      O56380   1.363   2.632   0.068
18713WAT     H156381   1.352   2.534   0.081
18713WAT     H256382   1.384   2.651  -0.028
18714WAT      O56383   2.029   6.048   2.011
18714WAT     H156384   2.021   6.055   2.110
18714WAT     H256385   2.099   6.112   1.978
18715WAT      O56386   1.500   4.073   6.248
18715WAT     H156387   1.544   4.116   6.169
18715WAT     H256388   1.449   4.141   6.300
18716WAT      O56389   8.842   8.627   6.638
18716WAT     H156390   8.765   8.566   6.619
18716WAT     H256391   8.814   8.696   6.705
18717WAT      O56392   7.670   7.076   6.831
18717WAT     H156393   7.716   7.122   6.907
18717WAT     H256394   7.576   7.109   6.824
18718WAT      O56395   5.337   9.825   8.512
18718WAT     H156396   5.429   9.785   8.503
18718WAT     H256397   5.304   9.852   8.422
18719WAT      O56398   0.416   8.014   4.246
18719WAT     H156399   0.423   8.111   4.272
18719WAT     H256400   0.325   7.998   4.207
18720WAT      O56401   7.358   1.340   6.286
18720WAT     H156402   7.361   1.439   6.297
18720WAT     H256403   7.446   1.300   6.314
18721WAT      O56404   9.029   7.188   6.799
18721WAT     H156405   8.946   7.186   6.743
18721WAT     H256406   9.024   7.115   6.868
18722WAT      O56407   3.203   6.963   6.462
18722WAT     H156408   3.179   7.047   6.510
18722WAT     H256409   3.299   6.967   6.434
18723WAT      O56410   6.647   1.698   3.635
18723WAT     H156411   6.586   1.709   3.557
18723WAT     H256412   6.601   1.646   3.707
18724WAT      O56413   5.509   9.596   0.059
18724WAT     H156414   5.457   9.537  -0.003
18724WAT     H256415   5.560   9.663   0.005
18725WAT      O56416   5.163   2.543   0.176
18725WAT     H156417   5.148   2.636   0.140
18725WAT     H256418   5.099   2.526   0.250
18726WAT      O56419   7.061   2.726   0.519
18726WAT     H156420   7.052   2.714   0.618
18726WAT     H256421   7.054   2.637   0.474
18727WAT      O56422   6.495   3.072   5.373
18727WAT     H156423   6.498   3.003   5.300
18727WAT     H256424   6.587   3.089   5.407
18728WAT      O56425   1.515   5.465   4.545
18728WAT     H156426   1.552   5.477   4.453
18728WAT     H256427   1.444   5.395   4.544
18729WAT      O56428   4.239   5.371   5.839
18729WAT     H156429   4.297   5.296   5.868
18729WAT     H256430   4.217   5.430   5.917
18730WAT      O56431   1.480   5.227   2.662
18730WAT     H156432   1.383   5.249   2.665
18730WAT     H256433   1.518   5.230   2.755
18731WAT      O56434   3.693   2.478   3.235
18731WAT     H156435   3.758   2.430   3.176
18731WAT     H256436   3.616   2.511   3.180
18732WAT      O56437   4.565   8.565   2.656
18732WAT     H156438   4.623   8.620   2.715
18732WAT     H256439   4.563   8.470   2.689
18733WAT      O56440   7.410   7.486   5.587
18733WAT     H156441   7.324   7.454   5.627
18733WAT     H256442   7.476   7.501   5.660
18734WAT      O56443   8.147   2.499   4.327
18734WAT     H156444   8.244   2.495   4.352
18734WAT     H256445   8.135   2.465   4.234
18735WAT      O56446   6.410   5.830   1.506
18735WAT     H156447   6.331   5.828   1.567
18735WAT     H256448   6.479   5.893   1.542
18736WAT      O56449   0.866   8.636   8.724
18736WAT     H156450   0.899   8.694   8.799
18736WAT     H256451   0.886   8.680   8.636
18737WAT      O56452   0.963   1.507   1.278
18737WAT     H156453   0.899   1.573   1.318
18737WAT     H256454   1.043   1.556   1.243
18738WAT      O56455   1.539   2.844   0.331
18738WAT     H156456   1.588   2.801   0.255
18738WAT     H256457   1.476   2.913   0.296
18739WAT      O56458   7.969   7.779   7.748
18739WAT     H156459   7.943   7.862   7.698
18739WAT     H256460   7.979   7.800   7.845
18740WAT      O56461   1.481   3.055   8.267
18740WAT     H156462   1.452   3.134   8.212
18740WAT     H256463   1.401   3.010   8.306
18741WAT      O56464   4.010   0.222   7.388
18741WAT     H156465   3.951   0.163   7.442
18741WAT     H256466   4.098   0.233   7.435
18742WAT      O56467   8.642   1.910   5.631
18742WAT     H156468   8.722   1.929   5.574
18742WAT     H256469   8.616   1.814   5.621
18743WAT      O56470   3.642   7.570   3.704
18743WAT     H156471   3.687   7.596   3.618
18743WAT     H256472   3.586   7.646   3.737
18744WAT      O56473   8.662   4.866   5.785
18744WAT     H156474   8.609   4.826   5.859
18744WAT     H256475   8.602   4.921   5.727
18745WAT      O56476   8.064   5.419   1.114
18745WAT     H156477   8.093   5.365   1.194
18745WAT     H256478   8.109   5.508   1.117
18746WAT      O56479   9.695   9.228   9.856
18746WAT     H156480   9.724   9.308   9.909
18746WAT     H256481   9.766   9.205   9.790
18747WAT      O56482   3.297   5.720   7.043
18747WAT     H156483   3.379   5.768   7.010
18747WAT     H256484   3.325   5.644   7.102
18748WAT      O56485   6.444   8.707   8.688
18748WAT     H156486   6.529   8.722   8.638
18748WAT     H256487   6.433   8.610   8.707
18749WAT      O56488   2.534   8.019   6.683
18749WAT     H156489   2.589   8.005   6.766
18749WAT     H256490   2.587   7.992   6.603
18750WAT      O56491   2.490   9.206   7.059
18750WAT     H156492   2.441   9.123   7.085
18750WAT     H256493   2.451   9.242   6.974
18751WAT      O56494   3.196   0.886   2.288
18751WAT     H156495   3.219   0.968   2.340
18751WAT     H256496   3.103   0.896   2.251
18752WAT      O56497   5.718   6.155   8.797
18752WAT     H156498   5.756   6.109   8.877
18752WAT     H256499   5.622   6.128   8.786
18753WAT      O56500   8.363   7.726   2.740
18753WAT     H156501   8.354   7.684   2.650
18753WAT     H256502   8.382   7.824   2.730
18754WAT      O56503   3.449   4.767   9.016
18754WAT     H156504   3.547   4.750   9.015
18754WAT     H256505   3.420   4.793   9.109
18755WAT      O56506   2.810   1.640   5.173
18755WAT     H156507   2.744   1.714   5.165
18755WAT     H256508   2.780   1.562   5.119
18756WAT      O56509   3.234   5.979   5.260
18756WAT     H156510   3.177   6.016   5.333
18756WAT     H256511   3.229   5.879   5.262
18757WAT      O56512   1.544   8.211   6.422
18757WAT     H156513   1.469   8.232   6.484
18757WAT     H256514   1.529   8.121   6.380
18758WAT      O56515   5.143   0.952   9.142
18758WAT     H156516   5.147   0.857   9.111
18758WAT     H256517   5.235   0.991   9.144
18759WAT      O56518   7.274   6.874   3.402
18759WAT     H156519   7.200   6.876   3.470
18759WAT     H256520   7.331   6.956   3.413
18760WAT      O56521   7.642   5.156   5.632
18760WAT     H156522   7.609   5.136   5.724
18760WAT     H256523   7.565   5.185   5.575
18761WAT      O56524   5.515   8.232   7.594
18761WAT     H156525   5.450   8.207   7.665
18761WAT     H256526   5.487   8.192   7.507
18762WAT      O56527   1.442   7.021   8.546
18762WAT     H156528   1.501   7.036   8.625
18762WAT     H256529   1.429   7.108   8.497
18763WAT      O56530   3.652   9.368   2.251
18763WAT     H156531   3.723   9.310   2.211
18763WAT     H256532   3.566   9.318   2.255
18764WAT      O56533   8.876   7.651   2.557
18764WAT     H156534   8.781   7.681   2.561
18764WAT     H256535   8.887   7.567   2.610
18765WAT      O56536   6.485   2.083   1.943
18765WAT     H156537   6.511   2.128   2.029
18765WAT     H256538   6.456   2.152   1.877
18766WAT      O56539   8.770   5.916   6.603
18766WAT     H156540   8.695   5.934   6.539
18766WAT     H256541   8.809   5.826   6.584
18767WAT      O56542   8.677   9.160   2.311
18767WAT     H156543   8.640   9.179   2.220
18767WAT     H256544   8.624   9.209   2.380
18768WAT      O56545   4.219   4.806   0.187
18768WAT     H156546   4.143   4.842   0.242
18768WAT     H256547   4.185   4.776   0.098
18769WAT      O56548   3.495   7.567   4.073
18769WAT     H156549   3.495   7.547   4.171
18769WAT     H256550   3.568   7.515   4.028
18770WAT      O56551   0.889   7.621   0.318
18770WAT     H156552   0.934   7.710   0.330
18770WAT     H256553   0.835   7.600   0.400
18771WAT      O56554   5.799   3.750   7.560
18771WAT     H156555   5.849   3.762   7.475
18771WAT     H256556   5.844   3.801   7.634
18772WAT      O56557   6.212   8.075   1.549
18772WAT     H156558   6.308   8.048   1.551
18772WAT     H256559   6.180   8.093   1.642
18773WAT      O56560   0.927   4.334   2.210
18773WAT     H156561   1.019   4.360   2.240
18773WAT     H256562   0.869   4.416   2.205
18774WAT      O56563   5.655   4.509   2.052
18774WAT     H156564   5.661   4.420   2.097
18774WAT     H256565   5.747   4.537   2.022
18775WAT      O56566   5.772   1.974   8.035
18775WAT     H156567   5.800   2.065   8.065
18775WAT     H256568   5.773   1.911   8.113
18776WAT      O56569   9.617   3.912   5.794
18776WAT     H156570   9.602   3.814   5.792
18776WAT     H256571   9.537   3.959   5.756
18777WAT      O56572   7.444   1.322   3.265
18777WAT     H156573   7.477   1.355   3.176
18777WAT     H256574   7.522   1.299   3.323
18778WAT      O56575   4.736   4.698   1.539
18778WAT     H156576   4.783   4.622   1.494
18778WAT     H256577   4.699   4.759   1.469
18779WAT      O56578   8.142   6.080   9.464
18779WAT     H156579   8.216   6.100   9.400
18779WAT     H256580   8.082   6.010   9.426
18780WAT      O56581   3.691   1.436   5.232
18780WAT     H156582   3.684   1.528   5.195
18780WAT     H256583   3.757   1.435   5.308
18781WAT      O56584   0.526   2.256   8.371
18781WAT     H156585   0.539   2.280   8.275
18781WAT     H256586   0.458   2.184   8.379
18782WAT      O56587   5.877   1.986   6.041
18782WAT     H156588   5.800   2.007   5.981
18782WAT     H256589   5.847   1.925   6.114
18783WAT      O56590   5.488   5.231   7.407
18783WAT     H156591   5.540   5.309   7.443
18783WAT     H256592   5.426   5.262   7.335
18784WAT      O56593   0.604   8.002   7.433
18784WAT     H156594   0.683   8.054   7.400
18784WAT     H256595   0.551   7.968   7.355
18785WAT      O56596   1.246   8.875   8.088
18785WAT     H156597   1.243   8.837   7.996
18785WAT     H256598   1.165   8.930   8.104
18786WAT      O56599   1.991   3.580   8.988
18786WAT     H156600   2.020   3.492   8.951
18786WAT     H256601   1.966   3.570   9.084
18787WAT      O56602   8.328   6.903   4.969
18787WAT     H156603   8.260   6.974   4.990
18787WAT     H256604   8.349   6.904   4.871
18788WAT      O56605   3.400   8.179   1.294
18788WAT     H156606   3.305   8.207   1.282
18788WAT     H256607   3.449   8.247   1.349
18789WAT      O56608   3.637   6.551   8.765
18789WAT     H156609   3.641   6.634   8.710
18789WAT     H256610   3.595   6.478   8.712
18790WAT      O56611   5.091   2.737   7.580
18790WAT     H156612   5.072   2.640   7.563
18790WAT     H256613   5.079   2.788   7.495
18791WAT      O56614   8.052   7.822   1.537
18791WAT     H156615   7.991   7.886   1.584
18791WAT     H256616   8.015   7.729   1.543
18792WAT      O56617   2.424   6.471   2.666
18792WAT     H156618   2.372   6.427   2.592
18792WAT     H256619   2.443   6.566   2.640
18793WAT      O56620   2.822   5.044   9.487
18793WAT     H156621   2.836   4.955   9.444
18793WAT     H256622   2.884   5.111   9.445
18794WAT      O56623   8.129   0.325   6.744
18794WAT     H156624   8.215   0.320   6.795
18794WAT     H256625   8.057   0.360   6.804
18795WAT      O56626   7.665   7.300   1.957
18795WAT     H156627   7.623   7.311   2.047
18795WAT     H256628   7.745   7.241   1.965
18796WAT      O56629   9.000   1.598   9.292
18796WAT     H156630   8.927   1.643   9.241
18796WAT     H256631   9.006   1.639   9.383
18797WAT      O56632   3.685   3.858   1.911
18797WAT     H156633   3.723   3.825   1.824
18797WAT     H256634   3.752   3.846   1.984
18798WAT      O56635   5.699   1.227   2.155
18798WAT     H156636   5.661   1.162   2.089
18798WAT     H256637   5.781   1.269   2.117
18799WAT      O56638   9.475   7.622   4.485
18799WAT     H156639   9.429   7.542   4.525
18799WAT     H256640   9.564   7.634   4.528
18800WAT      O56641   4.490   4.804   5.453
18800WAT     H156642   4.467   4.893   5.413
18800WAT     H256643   4.568   4.765   5.404
18801WAT      O56644   3.424   0.849   2.420
18801WAT     H156645   3.487   0.908   2.369
18801WAT     H256646   3.345   0.829   2.363
18802WAT      O56647   7.998   8.693   5.857
18802WAT     H156648   8.028   8.741   5.775
18802WAT     H256649   7.898   8.697   5.863
18803WAT      O56650   5.376   7.749   2.760
18803WAT     H156651   5.439   7.784   2.691
18803WAT     H256652   5.314   7.683   2.719
18804WAT      O56653   5.263   9.744   7.719
18804WAT     H156654   5.328   9.777   7.651
18804WAT     H256655   5.301   9.665   7.767
18805WAT      O56656   0.463   8.491   3.905
18805WAT     H156657   0.488   8.396   3.924
18805WAT     H256658   0.492   8.549   3.982
18806WAT      O56659   2.762   2.417   5.220
18806WAT     H156660   2.851   2.393   5.258
18806WAT     H256661   2.691   2.365   5.267
18807WAT      O56662   9.448   2.041   0.655
18807WAT     H156663   9.478   2.105   0.585
18807WAT     H256664   9.523   2.022   0.718
18808WAT      O56665   5.387   8.135   7.383
18808WAT     H156666   5.303   8.159   7.334
18808WAT     H256667   5.410   8.040   7.364
18809WAT      O56668   2.423   0.180   2.716
18809WAT     H156669   2.492   0.253   2.722
18809WAT     H256670   2.363   0.198   2.638
18810WAT      O56671   5.589   9.395   5.765
18810WAT     H156672   5.641   9.475   5.796
18810WAT     H256673   5.653   9.321   5.741
18811WAT      O56674   1.359   3.046   7.008
18811WAT     H156675   1.455   3.068   6.992
18811WAT     H256676   1.303   3.090   6.938
18812WAT      O56677   3.342   6.058   9.731
18812WAT     H156678   3.416   6.125   9.727
18812WAT     H256679   3.274   6.088   9.798
18813WAT      O56680   7.444   0.451   0.112
18813WAT     H156681   7.465   0.536   0.064
18813WAT     H256682   7.526   0.417   0.157
18814WAT      O56683   3.535   4.330   6.625
18814WAT     H156684   3.629   4.353   6.598
18814WAT     H256685   3.537   4.256   6.692
18815WAT      O56686   2.217   8.107   3.464
18815WAT     H156687   2.219   8.186   3.402
18815WAT     H256688   2.279   8.124   3.541
18816WAT      O56689   9.605   5.997   8.632
18816WAT     H156690   9.588   5.968   8.538
18816WAT     H256691   9.671   6.072   8.632
18817WAT      O56692   9.141   0.572   6.993
18817WAT     H156693   9.226   0.622   6.978
18817WAT     H256694   9.084   0.576   6.912
18818WAT      O56695   3.276   3.956   4.432
18818WAT     H156696   3.256   4.044   4.388
18818WAT     H256697   3.355   3.965   4.491
18819WAT      O56698   1.933   2.944   0.563
18819WAT     H156699   1.872   3.019   0.538
18819WAT     H256700   2.014   2.946   0.505
18820WAT      O56701   5.201   4.954   6.151
18820WAT     H156702   5.132   4.929   6.083
18820WAT     H256703   5.166   4.934   6.242
18821WAT      O56704   5.049   4.217   1.647
18821WAT     H156705   4.998   4.202   1.562
18821WAT     H256706   5.138   4.173   1.640
18822WAT      O56707   3.648   5.046   3.107
18822WAT     H156708   3.566   5.080   3.061
18822WAT     H256709   3.669   5.104   3.185
18823WAT      O56710   1.022   9.454   2.902
18823WAT     H156711   1.045   9.371   2.852
18823WAT     H256712   1.083   9.464   2.980
18824WAT      O56713   0.989   2.037   1.517
18824WAT     H156714   1.030   2.004   1.432
18824WAT     H256715   0.982   2.137   1.514
18825WAT      O56716   6.984   6.183   7.152
18825WAT     H156717   6.910   6.152   7.211
18825WAT     H256718   7.026   6.105   7.106
18826WAT      O56719   7.270   5.828   3.768
18826WAT     H156720   7.346   5.789   3.819
18826WAT     H256721   7.264   5.926   3.787
18827WAT      O56722   3.366   5.775   9.822
18827WAT     H156723   3.393   5.860   9.776
18827WAT     H256724   3.352   5.793   9.919
18828WAT      O56725   9.290   5.073   5.736
18828WAT     H156726   9.376   5.025   5.751
18828WAT     H256727   9.280   5.095   5.639
18829WAT      O56728   3.779   4.145   5.378
18829WAT     H156729   3.706   4.214   5.388
18829WAT     H256730   3.838   4.170   5.301
18830WAT      O56731   2.547   0.078   4.199
18830WAT     H156732   2.508   0.146   4.137
18830WAT     H256733   2.599   0.124   4.271
18831WAT      O56734   1.139   6.339   2.049
18831WAT     H156735   1.040   6.326   2.050
18831WAT     H256736   1.170   6.365   2.140
18832WAT      O56737   1.264   5.125   5.034
18832WAT     H156738   1.275   5.025   5.037
18832WAT     H256739   1.171   5.147   5.005
18833WAT      O56740   1.706   1.232   0.173
18833WAT     H156741   1.724   1.163   0.103
18833WAT     H256742   1.737   1.198   0.262
18834WAT      O56743   9.369   2.406   4.369
18834WAT     H156744   9.270   2.392   4.365
18834WAT     H256745   9.413   2.328   4.413
18835WAT      O56746   2.857   2.745   2.081
18835WAT     H156747   2.851   2.798   2.165
18835WAT     H256748   2.950   2.751   2.045
18836WAT      O56749   5.923   9.482   6.025
18836WAT     H156750   5.946   9.519   5.934
18836WAT     H256751   5.871   9.398   6.014
18837WAT      O56752   1.510   7.995   6.276
18837WAT     H156753   1.498   8.044   6.190
18837WAT     H256754   1.421   7.970   6.313
18838WAT      O56755   0.006   7.351   3.769
18838WAT     H156756   0.004   7.252   3.776
18838WAT     H256757   0.077   7.379   3.704
18839WAT      O56758   0.080   1.387   3.880
18839WAT     H156759   0.111   1.292   3.883
18839WAT     H256760   0.027   1.407   3.962
18840WAT      O56761   3.905   7.207   2.956
18840WAT     H156762   3.994   7.167   2.977
18840WAT     H256763   3.855   7.147   2.893
18841WAT      O56764   8.833   6.486   7.332
18841WAT     H156765   8.905   6.525   7.389
18841WAT     H256766   8.841   6.387   7.330
18842WAT      O56767   0.686   0.260   1.132
18842WAT     H156768   0.671   0.218   1.222
18842WAT     H256769   0.723   0.191   1.069
18843WAT      O56770   9.396   5.508   5.119
18843WAT     H156771   9.320   5.501   5.054
18843WAT     H256772   9.481   5.524   5.068
18844WAT      O56773   4.838   6.879   9.792
18844WAT     H156774   4.889   6.932   9.860
18844WAT     H256775   4.764   6.935   9.755
18845WAT      O56776   4.151   8.286   6.595
18845WAT     H156777   4.108   8.261   6.682
18845WAT     H256778   4.112   8.231   6.522
18846WAT      O56779   0.822   3.893   7.218
18846WAT     H156780   0.782   3.981   7.241
18846WAT     H256781   0.921   3.903   7.207
18847WAT      O56782   6.433   2.749   2.511
18847WAT     H156783   6.453   2.656   2.478
18847WAT     H256784   6.494   2.814   2.465
18848WAT      O56785   6.208   5.336   1.403
18848WAT     H156786   6.246   5.283   1.480
18848WAT     H256787   6.281   5.357   1.338
18849WAT      O56788   9.464   1.391   3.531
18849WAT     H156789   9.504   1.370   3.442
18849WAT     H256790   9.527   1.448   3.583
18850WAT      O56791   3.005   4.237   8.317
18850WAT     H156792   3.029   4.149   8.359
18850WAT     H256793   2.990   4.305   8.389
18851WAT      O56794   6.776   9.724   5.384
18851WAT     H156795   6.706   9.707   5.314
18851WAT     H256796   6.832   9.801   5.356
18852WAT      O56797   1.471   7.203   1.933
18852WAT     H156798   1.393   7.149   1.902
18852WAT     H256799   1.444   7.261   2.010
18853WAT      O56800   7.355   8.921   1.000
18853WAT     H156801   7.397   8.978   0.930
18853WAT     H256802   7.399   8.831   1.000
18854WAT      O56803   8.097   8.934   7.842
18854WAT     H156804   8.077   9.027   7.812
18854WAT     H256805   8.192   8.928   7.873
18855WAT      O56806   7.736   8.463   2.427
18855WAT     H156807   7.639   8.441   2.417
18855WAT     H256808   7.778   8.473   2.337
18856WAT      O56809   7.195   5.735   6.147
18856WAT     H156810   7.132   5.727   6.069
18856WAT     H256811   7.288   5.717   6.117
18857WAT      O56812   4.214   9.193   4.064
18857WAT     H156813   4.153   9.202   3.985
18857WAT     H256814   4.309   9.202   4.034
18858WAT      O56815   3.457   5.337   7.928
18858WAT     H156816   3.403   5.315   8.009
18858WAT     H256817   3.538   5.277   7.924
18859WAT      O56818   1.396   6.184   5.191
18859WAT     H156819   1.300   6.155   5.193
18859WAT     H256820   1.454   6.103   5.180
18860WAT      O56821   5.878   5.217   2.635
18860WAT     H156822   5.882   5.141   2.700
18860WAT     H256823   5.917   5.187   2.548
18861WAT      O56824   6.040   0.922   2.589
18861WAT     H156825   5.959   0.966   2.549
18861WAT     H256826   6.042   0.940   2.687
18862WAT      O56827   4.522   2.088   7.887
18862WAT     H156828   4.432   2.056   7.859
18862WAT     H256829   4.516   2.128   7.978
18863WAT      O56830   4.791   9.106   4.155
18863WAT     H156831   4.844   9.190   4.153
18863WAT     H256832   4.770   9.082   4.250
18864WAT      O56833   9.182   1.820   9.760
18864WAT     H156834   9.223   1.907   9.786
18864WAT     H256835   9.243   1.771   9.698
18865WAT      O56836   6.714   1.973   1.605
18865WAT     H156837   6.657   2.054   1.590
18865WAT     H256838   6.658   1.901   1.647
18866WAT      O56839   1.171   4.131   3.928
18866WAT     H156840   1.131   4.220   3.909
18866WAT     H256841   1.126   4.089   4.007
18867WAT      O56842   0.408   6.948   1.926
18867WAT     H156843   0.336   6.989   1.869
18867WAT     H256844   0.496   6.988   1.901
18868WAT      O56845   8.576   0.719   1.682
18868WAT     H156846   8.489   0.731   1.635
18868WAT     H256847   8.598   0.621   1.687
18869WAT      O56848   5.855   8.430   0.465
18869WAT     H156849   5.760   8.458   0.481
18869WAT     H256850   5.891   8.479   0.386
18870WAT      O56851   7.324   8.475   2.607
18870WAT     H156852   7.338   8.535   2.529
18870WAT     H256853   7.284   8.389   2.577
18871WAT      O56854   9.123   3.094   3.964
18871WAT     H156855   9.126   2.994   3.976
18871WAT     H256856   9.215   3.131   3.970
18872WAT      O56857   4.123   9.338   0.746
18872WAT     H156858   4.118   9.432   0.714
18872WAT     H256859   4.092   9.333   0.841
18873WAT      O56860   1.011   5.249   2.908
18873WAT     H156861   1.023   5.150   2.900
18873WAT     H256862   0.926   5.268   2.957
18874WAT      O56863   0.278   5.543   8.673
18874WAT     H156864   0.302   5.634   8.638
18874WAT     H256865   0.211   5.553   8.747
18875WAT      O56866   1.586   4.809   7.490
18875WAT     H156867   1.623   4.844   7.404
18875WAT     H256868   1.502   4.758   7.471
18876WAT      O56869   9.142   7.897   6.351
18876WAT     H156870   9.202   7.817   6.343
18876WAT     H256871   9.197   7.978   6.368
18877WAT      O56872   6.212   9.628   6.977
18877WAT     H156873   6.288   9.693   6.967
18877WAT     H256874   6.134   9.661   6.923
18878WAT      O56875   0.748   5.560   7.517
18878WAT     H156876   0.691   5.624   7.464
18878WAT     H256877   0.697   5.531   7.598
18879WAT      O56878   0.586   1.062   4.204
18879WAT     H156879   0.659   0.994   4.202
18879WAT     H256880   0.585   1.112   4.117
18880WAT      O56881   0.991   3.108   4.058
18880WAT     H156882   1.081   3.141   4.030
18880WAT     H256883   0.923   3.181   4.045
18881WAT      O56884   8.644   5.486   1.308
18881WAT     H156885   8.709   5.527   1.244
18881WAT     H256886   8.606   5.557   1.368
18882WAT      O56887   7.490   8.189   4.786
18882WAT     H156888   7.535   8.230   4.866
18882WAT     H256889   7.479   8.090   4.801
18883WAT      O56890   1.012   9.290   1.796
18883WAT     H156891   1.036   9.379   1.758
18883WAT     H256892   1.077   9.265   1.868
18884WAT      O56893   9.586   5.864   2.368
18884WAT     H156894   9.637   5.902   2.291
18884WAT     H256895   9.645   5.805   2.423
18885WAT      O56896   5.540   6.840   9.442
18885WAT     H156897   5.632   6.808   9.461
18885WAT     H256898   5.537   6.940   9.450
18886WAT      O56899   8.583   7.974   0.836
18886WAT     H156900   8.508   8.037   0.815
18886WAT     H256901   8.625   7.943   0.751
18887WAT      O56902   5.644   5.909   6.762
18887WAT     H156903   5.577   5.843   6.728
18887WAT     H256904   5.734   5.865   6.768
18888WAT      O56905   3.759   4.436   2.129
18888WAT     H156906   3.659   4.428   2.130
18888WAT     H256907   3.787   4.492   2.051
18889WAT      O56908   8.641   8.380   5.649
18889WAT     H156909   8.559   8.394   5.594
18889WAT     H256910   8.621   8.318   5.725
18890WAT      O56911   9.855   8.890   7.522
18890WAT     H156912   9.801   8.821   7.571
18890WAT     H256913   9.832   8.981   7.557
18891WAT      O56914   9.313   4.971   3.071
18891WAT     H156915   9.344   4.923   3.153
18891WAT     H256916   9.213   4.974   3.070
18892WAT      O56917   0.140   7.131   8.848
18892WAT     H156918   0.178   7.101   8.760
18892WAT     H256919   0.052   7.175   8.832
18893WAT      O56920   0.467   5.722   0.195
18893WAT     H156921   0.397   5.756   0.257
18893WAT     H256922   0.512   5.642   0.235
18894WAT      O56923   1.139   8.886   6.335
18894WAT     H156924   1.136   8.983   6.360
18894WAT     H256925   1.072   8.868   6.264
18895WAT      O56926   7.533   0.933   1.764
18895WAT     H156927   7.618   0.986   1.764
18895WAT     H256928   7.457   0.993   1.738
18896WAT      O56929   4.315   9.428   9.121
18896WAT     H156930   4.408   9.444   9.155
18896WAT     H256931   4.303   9.330   9.104
18897WAT      O56932   4.880   9.417   9.684
18897WAT     H156933   4.821   9.491   9.653
18897WAT     H256934   4.889   9.420   9.783
18898WAT      O56935   6.199   7.609   0.844
18898WAT     H156936   6.229   7.642   0.933
18898WAT     H256937   6.112   7.651   0.820
18899WAT      O56938   3.923   4.305   7.694
18899WAT     H156939   4.000   4.332   7.637
18899WAT     H256940   3.884   4.220   7.660
18900WAT      O56941   2.231   8.066   6.177
18900WAT     H156942   2.286   7.984   6.163
18900WAT     H256943   2.262   8.138   6.115
18901WAT      O56944   5.302   7.413   9.357
18901WAT     H156945   5.327   7.371   9.269
18901WAT     H256946   5.279   7.509   9.342
18902WAT      O56947   7.615   3.423   2.500
18902WAT     H156948   7.640   3.467   2.587
18902WAT     H256949   7.690   3.363   2.471
18903WAT      O56950   7.150   0.360   8.850
18903WAT     H156951   7.089   0.409   8.788
18903WAT     H256952   7.159   0.265   8.820
18904WAT      O56953   4.657   3.216   2.494
18904WAT     H156954   4.570   3.187   2.455
18904WAT     H256955   4.652   3.212   2.594
18905WAT      O56956   8.466   8.447   4.706
18905WAT     H156957   8.547   8.505   4.704
18905WAT     H256958   8.456   8.407   4.797
18906WAT      O56959   7.565   5.013   0.622
18906WAT     H156960   7.545   4.947   0.550
18906WAT     H256961   7.646   4.984   0.673
18907WAT      O56962   7.804   2.386   7.592
18907WAT     H156963   7.781   2.310   7.531
18907WAT     H256964   7.769   2.367   7.684
18908WAT      O56965   0.967   3.075   3.382
18908WAT     H156966   0.909   3.156   3.394
18908WAT     H256967   1.005   3.075   3.289
18909WAT      O56968   1.270   2.229   7.380
18909WAT     H156969   1.197   2.296   7.396
18909WAT     H256970   1.252   2.147   7.434
18910WAT      O56971   4.768   8.608   4.530
18910WAT     H156972   4.803   8.675   4.465
18910WAT     H256973   4.670   8.623   4.543
18911WAT      O56974   7.251   2.586   2.516
18911WAT     H156975   7.343   2.608   2.483
18911WAT     H256976   7.184   2.610   2.445
18912WAT      O56977   9.337   3.288   8.546
18912WAT     H156978   9.364   3.337   8.463
18912WAT     H256979   9.410   3.225   8.573
18913WAT      O56980   4.453   2.980   4.430
18913WAT     H156981   4.424   2.992   4.335
18913WAT     H256982   4.553   2.984   4.436
18914WAT      O56983   9.279   4.576   9.160
18914WAT     H156984   9.256   4.649   9.096
18914WAT     H256985   9.262   4.606   9.254
18915WAT      O56986   7.735   4.659   6.682
18915WAT     H156987   7.804   4.731   6.693
18915WAT     H256988   7.644   4.702   6.676
18916WAT      O56989   7.313   8.463   5.279
18916WAT     H156990   7.336   8.410   5.197
18916WAT     H256991   7.318   8.561   5.257
18917WAT      O56992   8.918   9.826   2.413
18917WAT     H156993   8.918   9.921   2.447
18917WAT     H256994   8.947   9.825   2.318
18918WAT      O56995   8.099   3.377   0.473
18918WAT     H156996   8.121   3.402   0.379
18918WAT     H256997   8.171   3.411   0.534
18919WAT      O56998   3.018   2.788   8.018
18919WAT     H156999   3.083   2.714   8.001
18919WAT     H257000   3.063   2.860   8.072
18920WAT      O57001   9.050   0.073   1.405
18920WAT     H157002   8.993   0.123   1.469
18920WAT     H257003   9.047  -0.024   1.426
18921WAT      O57004   7.739   4.161   7.456
18921WAT     H157005   7.668   4.093   7.436
18921WAT     H257006   7.827   4.126   7.425
18922WAT      O57007   3.682   0.741   4.543
18922WAT     H157008   3.666   0.801   4.464
18922WAT     H257009   3.651   0.649   4.523
18923WAT      O57010   4.228   1.396   5.113
18923WAT     H157011   4.239   1.494   5.096
18923WAT     H257012   4.315   1.349   5.095
18924WAT      O57013   7.693   6.917   3.742
18924WAT     H157014   7.726   6.908   3.648
18924WAT     H257015   7.604   6.963   3.742
18925WAT      O57016   0.584   0.346   4.985
18925WAT     H157017   0.593   0.350   5.084
18925WAT     H257018   0.615   0.257   4.951
18926WAT      O57019   0.075   3.984   7.936
18926WAT     H157020  -0.004   3.974   7.996
18926WAT     H257021   0.076   3.911   7.868
18927WAT      O57022   1.592   5.135   9.156
18927WAT     H157023   1.534   5.101   9.083
18927WAT     H257024   1.546   5.209   9.204
18928WAT      O57025   6.516   1.281   2.585
18928WAT     H157026   6.531   1.223   2.505
18928WAT     H257027   6.567   1.366   2.574
18929WAT      O57028   8.770   4.604   3.891
18929WAT     H157029   8.868   4.584   3.893
18929WAT     H257030   8.721   4.533   3.941
18930WAT      O57031   4.876   0.477   3.311
18930WAT     H157032   4.855   0.431   3.225
18930WAT     H257033   4.871   0.576   3.298
18931WAT      O57034   7.938   8.030   0.090
18931WAT     H157035   7.931   8.103   0.022
18931WAT     H257036   7.883   7.952   0.060
18932WAT      O57037   0.883   0.348   5.183
18932WAT     H157038   0.926   0.370   5.271
18932WAT     H257039   0.789   0.383   5.182
18933WAT      O57040   0.658   7.700   7.768
18933WAT     H157041   0.639   7.760   7.845
18933WAT     H257042   0.572   7.669   7.728
18934WAT      O57043   7.267   5.060   0.361
18934WAT     H157044   7.227   5.129   0.301
18934WAT     H257045   7.198   5.029   0.427
18935WAT      O57046   1.011   8.120   0.597
18935WAT     H157047   1.040   8.104   0.503
18935WAT     H257048   0.948   8.197   0.600
18936WAT      O57049   6.335   1.552   5.189
18936WAT     H157050   6.381   1.478   5.239
18936WAT     H257051   6.237   1.550   5.210
18937WAT      O57052   4.611   2.011   7.524
18937WAT     H157053   4.568   2.101   7.521
18937WAT     H257054   4.540   1.940   7.514
18938WAT      O57055   4.609   9.212   2.223
18938WAT     H157056   4.534   9.191   2.161
18938WAT     H257057   4.683   9.146   2.209
18939WAT      O57058   0.507   8.913   9.057
18939WAT     H157059   0.602   8.884   9.048
18939WAT     H257060   0.481   8.913   9.154
18940WAT      O57061   1.071   6.117   8.824
18940WAT     H157062   1.058   6.122   8.725
18940WAT     H257063   1.165   6.144   8.846
18941WAT      O57064   6.909   9.059   3.540
18941WAT     H157065   6.984   9.125   3.532
18941WAT     H257066   6.944   8.973   3.578
18942WAT      O57067   4.177   6.053   6.820
18942WAT     H157068   4.175   5.965   6.771
18942WAT     H257069   4.086   6.071   6.858
18943WAT      O57070   2.892   3.897   6.832
18943WAT     H157071   2.916   3.988   6.797
18943WAT     H257072   2.951   3.874   6.909
18944WAT      O57073   7.493   3.535   2.310
18944WAT     H157074   7.538   3.483   2.383
18944WAT     H257075   7.473   3.627   2.343
18945WAT      O57076   1.550   0.749   1.144
18945WAT     H157077   1.596   0.697   1.072
18945WAT     H257078   1.492   0.687   1.197
18946WAT      O57079   1.358   5.961   8.324
18946WAT     H157080   1.341   5.926   8.416
18946WAT     H257081   1.364   5.885   8.259
18947WAT      O57082   2.153   2.648   4.359
18947WAT     H157083   2.103   2.584   4.300
18947WAT     H257084   2.241   2.608   4.384
18948WAT      O57085   6.846   9.170   5.873
18948WAT     H157086   6.787   9.134   5.946
18948WAT     H257087   6.812   9.259   5.843
18949WAT      O57088   8.238   0.322   3.586
18949WAT     H157089   8.221   0.326   3.487
18949WAT     H257090   8.243   0.415   3.622
18950WAT      O57091   0.012   4.017   3.970
18950WAT     H157092  -0.044   3.937   3.950
18950WAT     H257093  -0.030   4.099   3.930
18951WAT      O57094   7.294   4.800   1.785
18951WAT     H157095   7.241   4.858   1.846
18951WAT     H257096   7.268   4.820   1.690
18952WAT      O57097   9.214   5.635   3.131
18952WAT     H157098   9.162   5.652   3.215
18952WAT     H257099   9.151   5.624   3.055
18953WAT      O57100   8.841   5.408   8.669
18953WAT     H157101   8.821   5.451   8.757
18953WAT     H257102   8.761   5.356   8.639
18954WAT      O57103   7.241   4.355   5.706
18954WAT     H157104   7.285   4.354   5.796
18954WAT     H257105   7.311   4.363   5.635
18955WAT      O57106   5.229   8.370   2.396
18955WAT     H157107   5.260   8.277   2.418
18955WAT     H257108   5.303   8.435   2.415
18956WAT      O57109   4.265   4.268   6.707
18956WAT     H157110   4.217   4.354   6.721
18956WAT     H257111   4.292   4.230   6.796
18957WAT      O57112   6.181   6.832   6.585
18957WAT     H157113   6.112   6.898   6.617
18957WAT     H257114   6.189   6.839   6.485
18958WAT      O57115   3.354   5.911   4.472
18958WAT     H157116   3.448   5.889   4.500
18958WAT     H257117   3.307   5.957   4.547
18959WAT      O57118   4.891   3.485   7.039
18959WAT     H157119   4.798   3.471   7.005
18959WAT     H257120   4.911   3.418   7.111
18960WAT      O57121   7.463   7.634   8.489
18960WAT     H157122   7.546   7.580   8.501
18960WAT     H257123   7.487   7.724   8.453
18961WAT      O57124   4.253   3.613   7.839
18961WAT     H157125   4.328   3.616   7.772
18961WAT     H257126   4.273   3.674   7.915
18962WAT      O57127   7.635   7.067   9.650
18962WAT     H157128   7.610   7.158   9.684
18962WAT     H257129   7.723   7.040   9.688
18963WAT      O57130   7.403   9.745   2.120
18963WAT     H157131   7.335   9.674   2.140
18963WAT     H257132   7.422   9.796   2.204
18964WAT      O57133   2.893   1.487   2.768
18964WAT     H157134   2.884   1.489   2.668
18964WAT     H257135   2.849   1.567   2.807
18965WAT      O57136   2.731   3.578   5.734
18965WAT     H157137   2.806   3.606   5.673
18965WAT     H257138   2.648   3.628   5.711
18966WAT      O57139   1.322   6.384   0.220
18966WAT     H157140   1.261   6.337   0.284
18966WAT     H257141   1.303   6.482   0.223
18967WAT      O57142   4.010   8.680   0.898
18967WAT     H157143   3.924   8.651   0.856
18967WAT     H257144   4.062   8.733   0.831
18968WAT      O57145   6.952   8.867   2.257
18968WAT     H157146   6.871   8.898   2.307
18968WAT     H257147   6.956   8.914   2.169
18969WAT      O57148   0.649   4.652   7.792
18969WAT     H157149   0.595   4.655   7.708
18969WAT     H257150   0.712   4.574   7.789
18970WAT      O57151   2.280   8.337   3.242
18970WAT     H157152   2.227   8.382   3.170
18970WAT     H257153   2.342   8.270   3.200
18971WAT      O57154   6.616   6.985   7.702
18971WAT     H157155   6.676   6.906   7.691
18971WAT     H257156   6.564   6.999   7.618
18972WAT      O57157   8.026   2.814   2.246
18972WAT     H157158   8.000   2.749   2.175
18972WAT     H257159   7.951   2.825   2.311
18973WAT      O57160   2.917   1.238   1.189
18973WAT     H157161   2.880   1.215   1.099
18973WAT     H257162   2.910   1.337   1.203
18974WAT      O57163   7.383   7.413   0.606
18974WAT     H157164   7.458   7.351   0.587
18974WAT     H257165   7.349   7.397   0.699
18975WAT      O57166   0.917   0.747   7.624
18975WAT     H157167   0.819   0.732   7.635
18975WAT     H257168   0.935   0.844   7.610
18976WAT      O57169   3.904   0.620   5.403
18976WAT     H157170   3.838   0.575   5.463
18976WAT     H257171   3.867   0.708   5.374
18977WAT      O57172   7.768   8.820   3.181
18977WAT     H157173   7.783   8.759   3.258
18977WAT     H257174   7.732   8.768   3.104
18978WAT      O57175   2.458   4.111   0.385
18978WAT     H157176   2.509   4.061   0.315
18978WAT     H257177   2.521   4.137   0.459
18979WAT      O57178   0.772   1.485   4.986
18979WAT     H157179   0.728   1.541   4.915
18979WAT     H257180   0.702   1.430   5.032
18980WAT      O57181   1.236   7.152   1.561
18980WAT     H157182   1.240   7.065   1.609
18980WAT     H257183   1.327   7.191   1.554
18981WAT      O57184   8.139   8.489   5.956
18981WAT     H157185   8.225   8.460   5.914
18981WAT     H257186   8.092   8.553   5.895
18982WAT      O57187   2.032   5.305   5.594
18982WAT     H157188   1.976   5.250   5.532
18982WAT     H257189   2.070   5.383   5.544
18983WAT      O57190   1.196   6.060   1.273
18983WAT     H157191   1.261   6.036   1.344
18983WAT     H257192   1.206   5.997   1.195
18984WAT      O57193   4.825   8.889   3.371
18984WAT     H157194   4.895   8.879   3.442
18984WAT     H257195   4.737   8.857   3.406
18985WAT      O57196   8.701   9.365   3.985
18985WAT     H157197   8.615   9.356   4.035
18985WAT     H257198   8.769   9.410   4.043
18986WAT      O57199   8.297   9.671   1.420
18986WAT     H157200   8.288   9.665   1.519
18986WAT     H257201   8.365   9.740   1.397
18987WAT      O57202   9.561   2.321   7.596
18987WAT     H157203   9.535   2.308   7.691
18987WAT     H257204   9.610   2.241   7.563
18988WAT      O57205   2.155   0.955   8.269
18988WAT     H157206   2.218   1.028   8.243
18988WAT     H257207   2.078   0.953   8.206
18989WAT      O57208   2.473   8.521   7.949
18989WAT     H157209   2.384   8.561   7.971
18989WAT     H257210   2.465   8.465   7.867
18990WAT      O57211   3.827   6.838   3.217
18990WAT     H157212   3.842   6.936   3.213
18990WAT     H257213   3.741   6.815   3.171
18991WAT      O57214   2.635   4.381   0.801
18991WAT     H157215   2.595   4.413   0.886
18991WAT     H257216   2.703   4.310   0.822
18992WAT      O57217   5.450   4.154   7.233
18992WAT     H157218   5.488   4.218   7.167
18992WAT     H257219   5.351   4.166   7.239
18993WAT      O57220   6.978   3.259   2.038
18993WAT     H157221   6.936   3.349   2.030
18993WAT     H257222   7.014   3.247   2.130
18994WAT      O57223   8.258   0.724   1.079
18994WAT     H157224   8.283   0.795   1.013
18994WAT     H257225   8.327   0.719   1.151
18995WAT      O57226   6.089   9.297   8.639
18995WAT     H157227   6.146   9.231   8.590
18995WAT     H257228   5.994   9.284   8.612
18996WAT      O57229   1.922   7.788   2.483
18996WAT     H157230   1.861   7.857   2.520
18996WAT     H257231   1.993   7.766   2.550
18997WAT      O57232   0.506   6.473   7.739
18997WAT     H157233   0.407   6.484   7.747
18997WAT     H257234   0.533   6.478   7.643
18998WAT      O57235   8.250   9.431   4.757
18998WAT     H157236   8.220   9.527   4.759
18998WAT     H257237   8.323   9.420   4.689
18999WAT      O57238   8.080   8.559   9.026
18999WAT     H157239   7.993   8.582   9.070
18999WAT     H257240   8.064   8.488   8.957
19000WAT      O57241   5.588   0.471   9.236
19000WAT     H157242   5.648   0.519   9.171
19000WAT     H257243   5.636   0.457   9.322
19001WAT      O57244   6.111   7.704   1.255
19001WAT     H157245   6.202   7.718   1.217
19001WAT     H257246   6.107   7.740   1.348
19002WAT      O57247   1.267   5.218   8.021
19002WAT     H157248   1.359   5.184   8.039
19002WAT     H257249   1.205   5.140   8.010
19003WAT      O57250   7.845   2.536   3.450
19003WAT     H157251   7.914   2.477   3.491
19003WAT     H257252   7.773   2.480   3.409
19004WAT      O57253   3.915   7.491   7.373
19004WAT     H157254   3.957   7.420   7.429
19004WAT     H257255   3.833   7.455   7.328
19005WAT      O57256   1.579   4.009   8.380
19005WAT     H157257   1.500   3.998   8.439
19005WAT     H257258   1.554   4.065   8.301
19006WAT      O57259   3.156   9.243   3.848
19006WAT     H157260   3.079   9.237   3.785
19006WAT     H257261   3.190   9.337   3.851
19007WAT      O57262   0.343   8.653   5.678
19007WAT     H157263   0.339   8.705   5.763
19007WAT     H257264   0.313   8.559   5.695
19008WAT      O57265   6.859   8.430   8.841
19008WAT     H157266   6.901   8.502   8.896
19008WAT     H257267   6.760   8.440   8.843
19009WAT      O57268   0.681   9.661   2.428
19009WAT     H157269   0.700   9.567   2.402
19009WAT     H257270   0.748   9.692   2.495
19010WAT      O57271   4.485   6.701   3.324
19010WAT     H157272   4.421   6.759   3.374
19010WAT     H257273   4.453   6.690   3.229
19011WAT      O57274   2.486   6.087   5.562
19011WAT     H157275   2.418   6.014   5.569
19011WAT     H257276   2.488   6.122   5.469
19012WAT      O57277   2.658   0.991   0.859
19012WAT     H157278   2.561   0.975   0.875
19012WAT     H257279   2.690   0.929   0.787
19013WAT      O57280   3.014   7.988   8.574
19013WAT     H157281   3.003   8.023   8.481
19013WAT     H257282   3.111   7.966   8.590
19014WAT      O57283   9.248   4.201   8.814
19014WAT     H157284   9.339   4.240   8.828
19014WAT     H257285   9.231   4.189   8.717
19015WAT      O57286   4.558   1.577   7.908
19015WAT     H157287   4.545   1.613   7.816
19015WAT     H257288   4.480   1.520   7.934
19016WAT      O57289   9.088   2.099   3.161
19016WAT     H157290   9.045   2.044   3.233
19016WAT     H257291   9.126   2.182   3.201
19017WAT      O57292   7.494   3.350   7.208
19017WAT     H157293   7.472   3.327   7.114
19017WAT     H257294   7.592   3.337   7.224
19018WAT      O57295   2.880   4.645   0.439
19018WAT     H157296   2.841   4.597   0.517
19018WAT     H257297   2.867   4.743   0.450
19019WAT      O57298   6.655   2.992   6.993
19019WAT     H157299   6.641   3.062   7.064
19019WAT     H257300   6.618   3.024   6.906
19020WAT      O57301   5.353   5.516   6.352
19020WAT     H157302   5.399   5.429   6.337
19020WAT     H257303   5.350   5.536   6.450
19021WAT      O57304   5.243   5.424   8.118
19021WAT     H157305   5.278   5.330   8.127
19021WAT     H257306   5.309   5.487   8.159
19022WAT      O57307   7.533   8.530   1.797
19022WAT     H157308   7.624   8.570   1.786
19022WAT     H257309   7.503   8.492   1.709
19023WAT      O57310   9.375   1.103   6.195
19023WAT     H157311   9.392   1.122   6.099
19023WAT     H257312   9.453   1.051   6.233
19024WAT      O57313   3.315   9.688   5.981
19024WAT     H157314   3.223   9.651   5.966
19024WAT     H257315   3.382   9.624   5.943
19025WAT      O57316   3.006   0.096   7.249
19025WAT     H157317   3.017   0.054   7.339
19025WAT     H257318   2.921   0.148   7.246
19026WAT      O57319   8.405   8.455   5.933
19026WAT     H157320   8.390   8.420   6.026
19026WAT     H257321   8.476   8.401   5.888
19027WAT      O57322   7.204   4.970   8.195
19027WAT     H157323   7.198   4.912   8.114
19027WAT     H257324   7.141   4.937   8.265
19028WAT      O57325   5.837   4.784   5.829
19028WAT     H157326   5.802   4.782   5.922
19028WAT     H257327   5.776   4.838   5.771
19029WAT      O57328   5.728   7.817   1.794
19029WAT     H157329   5.783   7.798   1.713
19029WAT     H257330   5.749   7.909   1.827
19030WAT      O57331   6.089   6.734   2.154
19030WAT     H157332   6.174   6.785   2.173
19030WAT     H257333   6.017   6.766   2.216
19031WAT      O57334   9.402   7.365   0.894
19031WAT     H157335   9.370   7.274   0.868
19031WAT     H257336   9.501   7.371   0.881
19032WAT      O57337   4.868   5.621   3.796
19032WAT     H157338   4.905   5.680   3.868
19032WAT     H257339   4.878   5.666   3.708
19033WAT      O57340   2.694   6.958   9.706
19033WAT     H157341   2.645   7.032   9.659
19033WAT     H257342   2.697   6.877   9.647
19034WAT      O57343   8.229   3.807   2.109
19034WAT     H157344   8.209   3.894   2.065
19034WAT     H257345   8.176   3.734   2.066
19035WAT      O57346   1.031   1.554   0.989
19035WAT     H157347   1.081   1.624   1.040
19035WAT     H257348   0.934   1.580   0.983
19036WAT      O57349   4.809   6.191   0.762
19036WAT     H157350   4.814   6.182   0.862
19036WAT     H257351   4.823   6.102   0.719
19037WAT      O57352   9.752   7.709   3.188
19037WAT     H157353   9.850   7.699   3.172
19037WAT     H257354   9.721   7.635   3.249
19038WAT      O57355   8.386   1.403   4.283
19038WAT     H157356   8.469   1.348   4.270
19038WAT     H257357   8.309   1.357   4.240
19039WAT      O57358   5.204   7.321   0.901
19039WAT     H157359   5.259   7.368   0.970
19039WAT     H257360   5.264   7.283   0.831
19040WAT      O57361   4.276   5.728   8.042
19040WAT     H157362   4.286   5.744   7.944
19040WAT     H257363   4.365   5.734   8.087
19041WAT      O57364   0.455   7.242   7.370
19041WAT     H157365   0.356   7.237   7.360
19041WAT     H257366   0.488   7.156   7.409
19042WAT      O57367   2.787   7.141   4.071
19042WAT     H157368   2.839   7.170   4.151
19042WAT     H257369   2.736   7.220   4.034
19043WAT      O57370   6.215   8.860   5.687
19043WAT     H157371   6.262   8.773   5.671
19043WAT     H257372   6.120   8.852   5.656
19044WAT      O57373   8.574   3.040   9.066
19044WAT     H157374   8.645   2.970   9.074
19044WAT     H257375   8.608   3.117   9.012
19045WAT      O57376   1.087   1.404   9.076
19045WAT     H157377   0.998   1.397   9.122
19045WAT     H257378   1.087   1.481   9.013
19046WAT      O57379   8.201   1.248   5.656
19046WAT     H157380   8.103   1.237   5.641
19046WAT     H257381   8.251   1.215   5.575
19047WAT      O57382   2.665   0.996   2.767
19047WAT     H157383   2.571   1.028   2.778
19047WAT     H257384   2.728   1.066   2.801
19048WAT      O57385   6.948   5.858   8.955
19048WAT     H157386   6.867   5.853   9.014
19048WAT     H257387   6.977   5.953   8.947
19049WAT      O57388   9.271   1.300   0.542
19049WAT     H157389   9.283   1.203   0.520
19049WAT     H257390   9.192   1.335   0.491
19050WAT      O57391   9.817   9.470   5.945
19050WAT     H157392   9.822   9.503   5.851
19050WAT     H257393   9.757   9.529   5.998
19051WAT      O57394   2.604   6.404   5.433
19051WAT     H157395   2.569   6.326   5.381
19051WAT     H257396   2.703   6.411   5.418
19052WAT      O57397   1.482   4.290   9.236
19052WAT     H157398   1.449   4.353   9.166
19052WAT     H257399   1.461   4.327   9.327
19053WAT      O57400   0.201   8.217   1.970
19053WAT     H157401   0.131   8.230   2.040
19053WAT     H257402   0.270   8.288   1.978
19054WAT      O57403   0.443   3.148   7.880
19054WAT     H157404   0.481   3.174   7.791
19054WAT     H257405   0.353   3.192   7.891
19055WAT      O57406   2.927   6.183   8.806
19055WAT     H157407   2.936   6.084   8.816
19055WAT     H257408   2.958   6.210   8.715
19056WAT      O57409   1.756   1.052   4.359
19056WAT     H157410   1.792   1.027   4.269
19056WAT     H257411   1.673   1.107   4.347
19057WAT      O57412   8.556   8.647   5.372
19057WAT     H157413   8.569   8.670   5.468
19057WAT     H257414   8.645   8.640   5.327
19058WAT      O57415   4.229   1.602   0.683
19058WAT     H157416   4.270   1.652   0.759
19058WAT     H257417   4.203   1.510   0.714
19059WAT      O57418   5.694   0.472   4.332
19059WAT     H157419   5.708   0.443   4.426
19059WAT     H257420   5.596   0.483   4.314
19060WAT      O57421   1.880   6.713   9.599
19060WAT     H157422   1.930   6.628   9.612
19060WAT     H257423   1.944   6.785   9.572
19061WAT      O57424   0.932   7.648   2.764
19061WAT     H157425   0.988   7.592   2.825
19061WAT     H257426   0.946   7.744   2.784
19062WAT      O57427   5.375   6.531   8.775
19062WAT     H157428   5.434   6.483   8.839
19062WAT     H257429   5.345   6.618   8.816
19063WAT      O57430   0.207   5.906   2.903
19063WAT     H157431   0.186   5.817   2.943
19063WAT     H257432   0.131   5.968   2.919
19064WAT      O57433   5.812   2.716   8.247
19064WAT     H157434   5.783   2.807   8.276
19064WAT     H257435   5.891   2.687   8.300
19065WAT      O57436   7.714   5.631   5.756
19065WAT     H157437   7.748   5.545   5.718
19065WAT     H257438   7.650   5.673   5.692
19066WAT      O57439   0.800   1.859   9.040
19066WAT     H157440   0.705   1.866   9.010
19066WAT     H257441   0.852   1.939   9.006
19067WAT      O57442   4.522   7.732   6.041
19067WAT     H157443   4.549   7.752   6.135
19067WAT     H257444   4.510   7.818   5.991
19068WAT      O57445   9.441   8.053   3.810
19068WAT     H157446   9.505   8.108   3.756
19068WAT     H257447   9.411   8.106   3.890
19069WAT      O57448   1.254   1.934   3.351
19069WAT     H157449   1.277   1.983   3.435
19069WAT     H257450   1.338   1.914   3.301
19070WAT      O57451   8.527   0.552   9.763
19070WAT     H157452   8.473   0.573   9.844
19070WAT     H257453   8.567   0.460   9.772
19071WAT      O57454   6.400   3.692   9.596
19071WAT     H157455   6.378   3.789   9.609
19071WAT     H257456   6.338   3.636   9.651
19072WAT      O57457   9.595   6.227   4.692
19072WAT     H157458   9.583   6.160   4.765
19072WAT     H257459   9.507   6.243   4.646
19073WAT      O57460   0.980   0.205   8.500
19073WAT     H157461   0.970   0.107   8.520
19073WAT     H257462   0.948   0.259   8.577
19074WAT      O57463   3.620   4.217   8.125
19074WAT     H157464   3.527   4.253   8.120
19074WAT     H257465   3.622   4.137   8.186
19075WAT      O57466   8.549   2.048   0.151
19075WAT     H157467   8.460   2.084   0.122
19075WAT     H257468   8.581   2.100   0.230
19076WAT      O57469   9.624   7.398   0.567
19076WAT     H157470   9.541   7.454   0.576
19076WAT     H257471   9.671   7.422   0.482
19077WAT      O57472   3.918   0.931   3.899
19077WAT     H157473   3.957   1.014   3.860
19077WAT     H257474   3.834   0.907   3.851
19078WAT      O57475   6.266   8.718   4.407
19078WAT     H157476   6.225   8.803   4.373
19078WAT     H257477   6.342   8.691   4.348
19079WAT      O57478   3.206   1.100   7.476
19079WAT     H157479   3.160   1.091   7.387
19079WAT     H257480   3.139   1.129   7.544
19080WAT      O57481   4.739   4.090   7.752
19080WAT     H157482   4.809   4.087   7.681
19080WAT     H257483   4.782   4.080   7.842
19081WAT      O57484   3.345   4.399   7.685
19081WAT     H157485   3.369   4.495   7.700
19081WAT     H257486   3.246   4.389   7.689
19082WAT      O57487   2.695   6.733   3.970
19082WAT     H157488   2.777   6.684   3.998
19082WAT     H257489   2.721   6.807   3.908
19083WAT      O57490   6.093   6.148   8.521
19083WAT     H157491   6.072   6.207   8.443
19083WAT     H257492   6.025   6.075   8.528
19084WAT      O57493   4.491   4.490   5.391
19084WAT     H157494   4.442   4.578   5.392
19084WAT     H257495   4.426   4.416   5.407
19085WAT      O57496   0.102   5.689   7.877
19085WAT     H157497   0.147   5.722   7.794
19085WAT     H257498   0.135   5.742   7.955
19086WAT      O57499   9.241   7.565   3.378
19086WAT     H157500   9.230   7.547   3.280
19086WAT     H257501   9.221   7.661   3.397
19087WAT      O57502   3.377   0.967   6.832
19087WAT     H157503   3.378   0.872   6.862
19087WAT     H257504   3.437   0.977   6.752
19088WAT      O57505   8.225   9.369   5.041
19088WAT     H157506   8.151   9.307   5.066
19088WAT     H257507   8.220   9.389   4.943
19089WAT      O57508   4.010   6.475   3.586
19089WAT     H157509   4.000   6.522   3.674
19089WAT     H257510   3.929   6.491   3.530
19090WAT      O57511   3.938   2.502   3.496
19090WAT     H157512   3.863   2.450   3.456
19090WAT     H257513   3.924   2.512   3.595
19091WAT      O57514   9.085   7.763   2.846
19091WAT     H157515   9.081   7.794   2.941
19091WAT     H257516   9.173   7.790   2.806
19092WAT      O57517   6.869   1.804   3.098
19092WAT     H157518   6.828   1.843   3.181
19092WAT     H257519   6.804   1.742   3.055
19093WAT      O57520   1.016   8.495   4.044
19093WAT     H157521   1.097   8.533   4.088
19093WAT     H257522   1.010   8.529   3.950
19094WAT      O57523   9.394   9.198   4.621
19094WAT     H157524   9.449   9.159   4.695
19094WAT     H257525   9.426   9.290   4.600
19095WAT      O57526   2.410   7.741   9.011
19095WAT     H157527   2.446   7.758   9.102
19095WAT     H257528   2.399   7.642   8.997
19096WAT      O57529   9.797   8.423   0.485
19096WAT     H157530   9.857   8.410   0.564
19096WAT     H257531   9.824   8.506   0.435
19097WAT      O57532   2.638   4.110   2.585
19097WAT     H157533   2.712   4.097   2.651
19097WAT     H257534   2.550   4.106   2.632
19098WAT      O57535   1.367   7.489   1.458
19098WAT     H157536   1.391   7.393   1.467
19098WAT     H257537   1.373   7.516   1.362
19099WAT      O57538   2.270   7.332   3.545
19099WAT     H157539   2.196   7.274   3.580
19099WAT     H257540   2.270   7.330   3.445
19100WAT      O57541   1.045   3.987   7.043
19100WAT     H157542   1.086   4.078   7.041
19100WAT     H257543   1.091   3.928   6.977
19101WAT      O57544   2.720   8.376   3.169
19101WAT     H157545   2.670   8.341   3.248
19101WAT     H257546   2.817   8.354   3.179
19102WAT      O57547   0.533   3.694   7.307
19102WAT     H157548   0.563   3.717   7.400
19102WAT     H257549   0.611   3.699   7.245
19103WAT      O57550   4.421   2.621   4.211
19103WAT     H157551   4.445   2.529   4.179
19103WAT     H257552   4.326   2.640   4.189
19104WAT      O57553   2.078   7.267   5.323
19104WAT     H157554   2.123   7.282   5.235
19104WAT     H257555   1.985   7.303   5.320
19105WAT      O57556   7.702   7.226   2.617
19105WAT     H157557   7.613   7.262   2.646
19105WAT     H257558   7.691   7.134   2.580
19106WAT      O57559   4.947   8.527   7.702
19106WAT     H157560   4.852   8.553   7.718
19106WAT     H257561   4.975   8.459   7.770
19107WAT      O57562   1.451   6.568   6.904
19107WAT     H157563   1.393   6.528   6.833
19107WAT     H257564   1.397   6.583   6.987
19108WAT      O57565   3.037   8.074   1.914
19108WAT     H157566   3.069   7.993   1.865
19108WAT     H257567   2.938   8.068   1.927
19109WAT      O57568   2.935   7.189   8.456
19109WAT     H157569   2.978   7.193   8.546
19109WAT     H257570   3.006   7.191   8.385
19110WAT      O57571   9.831   0.627   4.931
19110WAT     H157572   9.881   0.619   4.845
19110WAT     H257573   9.752   0.687   4.919
19111WAT      O57574   1.947   9.843   5.528
19111WAT     H157575   1.981   9.784   5.455
19111WAT     H257576   1.942   9.791   5.613
19112WAT      O57577   3.627   6.930   0.035
19112WAT     H157578   3.626   6.886   0.125
19112WAT     H257579   3.580   7.018   0.040
19113WAT      O57580   7.244   6.801   7.444
19113WAT     H157581   7.202   6.878   7.397
19113WAT     H257582   7.332   6.779   7.402
19114WAT      O57583   9.033   5.873   7.408
19114WAT     H157584   8.979   5.894   7.490
19114WAT     H257585   8.978   5.815   7.346
19115WAT      O57586   8.663   4.611   9.735
19115WAT     H157587   8.723   4.585   9.659
19115WAT     H257588   8.712   4.598   9.821
19116WAT      O57589   8.751   4.479   7.054
19116WAT     H157590   8.788   4.405   6.999
19116WAT     H257591   8.657   4.457   7.079
19117WAT      O57592   6.080   9.806   0.764
19117WAT     H157593   6.084   9.896   0.722
19117WAT     H257594   6.104   9.736   0.696
19118WAT      O57595   3.722   8.092   5.090
19118WAT     H157596   3.713   8.090   5.189
19118WAT     H257597   3.668   8.168   5.053
19119WAT      O57598   3.175   4.793   3.201
19119WAT     H157599   3.160   4.700   3.168
19119WAT     H257600   3.254   4.794   3.262
19120WAT      O57601   2.668   5.773   0.921
19120WAT     H157602   2.721   5.838   0.867
19120WAT     H257603   2.584   5.750   0.872
19121WAT      O57604   5.802   9.537   1.284
19121WAT     H157605   5.772   9.443   1.266
19121WAT     H257606   5.737   9.601   1.245
19122WAT      O57607   4.422   7.031   3.931
19122WAT     H157608   4.515   7.012   3.897
19122WAT     H257609   4.428   7.073   4.021
19123WAT      O57610   7.850   6.910   4.551
19123WAT     H157611   7.836   6.993   4.496
19123WAT     H257612   7.815   6.831   4.501
19124WAT      O57613   4.787   8.030   6.148
19124WAT     H157614   4.807   8.018   6.051
19124WAT     H257615   4.690   8.012   6.164
19125WAT      O57616   5.940   4.150   4.479
19125WAT     H157617   5.912   4.067   4.526
19125WAT     H257618   5.965   4.129   4.385
19126WAT      O57619   1.467   0.346   9.839
19126WAT     H157620   1.372   0.362   9.866
19126WAT     H257621   1.470   0.322   9.742
19127WAT      O57622   4.582   6.124   9.318
19127WAT     H157623   4.528   6.175   9.251
19127WAT     H257624   4.648   6.066   9.270
19128WAT      O57625   1.337   1.003   2.954
19128WAT     H157626   1.273   1.075   2.927
19128WAT     H257627   1.325   0.923   2.895
19129WAT      O57628   3.035   3.656   7.676
19129WAT     H157629   2.989   3.568   7.664
19129WAT     H257630   3.129   3.650   7.641
19130WAT      O57631   8.482   9.466   5.049
19130WAT     H157632   8.386   9.474   5.076
19130WAT     H257633   8.495   9.381   4.999
19131WAT      O57634   4.082   6.381   0.683
19131WAT     H157635   3.997   6.425   0.712
19131WAT     H257636   4.111   6.316   0.753
19132WAT      O57637   7.069   7.024   2.558
19132WAT     H157638   6.998   6.958   2.582
19132WAT     H257639   7.029   7.096   2.501
19133WAT      O57640   3.430   7.258   1.875
19133WAT     H157641   3.529   7.254   1.885
19133WAT     H257642   3.406   7.329   1.809
19134WAT      O57643   9.715   8.002   7.207
19134WAT     H157644   9.796   8.048   7.171
19134WAT     H257645   9.741   7.949   7.289
19135WAT      O57646   9.211   4.937   9.200
19135WAT     H157647   9.289   5.000   9.200
19135WAT     H257648   9.220   4.872   9.125
19136WAT      O57649   6.815   2.886   3.186
19136WAT     H157650   6.905   2.921   3.162
19136WAT     H257651   6.745   2.931   3.130
19137WAT      O57652   0.610   9.775   0.676
19137WAT     H157653   0.653   9.812   0.593
19137WAT     H257654   0.656   9.691   0.703
19138WAT      O57655   2.201   8.566   8.324
19138WAT     H157656   2.230   8.661   8.319
19138WAT     H257657   2.281   8.506   8.330
19139WAT      O57658   3.916   5.566   7.136
19139WAT     H157659   3.864   5.607   7.210
19139WAT     H257660   3.951   5.638   7.075
19140WAT      O57661   5.855   3.955   2.455
19140WAT     H157662   5.884   3.867   2.492
19140WAT     H257663   5.920   4.026   2.483
19141WAT      O57664   0.415   5.414   7.035
19141WAT     H157665   0.427   5.497   6.979
19141WAT     H257666   0.499   5.397   7.087
19142WAT      O57667   4.752   4.035   6.692
19142WAT     H157668   4.789   4.127   6.707
19142WAT     H257669   4.824   3.967   6.709
19143WAT      O57670   4.077   5.676   6.029
19143WAT     H157671   4.081   5.587   6.074
19143WAT     H257672   4.125   5.744   6.084
19144WAT      O57673   8.099   8.660   3.328
19144WAT     H157674   8.114   8.603   3.408
19144WAT     H257675   8.163   8.736   3.329
19145WAT      O57676   8.522   4.976   8.069
19145WAT     H157677   8.516   4.910   8.144
19145WAT     H257678   8.516   5.069   8.106
19146WAT      O57679   8.134   9.800   4.086
19146WAT     H157680   8.173   9.710   4.064
19146WAT     H257681   8.091   9.796   4.177
19147WAT      O57682   3.204   7.214   6.592
19147WAT     H157683   3.144   7.264   6.656
19147WAT     H257684   3.298   7.218   6.626
19148WAT      O57685   0.130   0.072   0.724
19148WAT     H157686   0.223   0.090   0.691
19148WAT     H257687   0.088   0.158   0.751
19149WAT      O57688   2.124   6.727   0.305
19149WAT     H157689   2.026   6.748   0.298
19149WAT     H257690   2.170   6.801   0.354
19150WAT      O57691   4.658   1.102   4.441
19150WAT     H157692   4.631   1.024   4.498
19150WAT     H257693   4.580   1.133   4.386
19151WAT      O57694   3.655   7.732   8.705
19151WAT     H157695   3.629   7.749   8.610
19151WAT     H257696   3.639   7.636   8.727
19152WAT      O57697   6.430   6.369   1.937
19152WAT     H157698   6.493   6.389   2.012
19152WAT     H257699   6.404   6.454   1.891
19153WAT      O57700   2.802   8.430   1.714
19153WAT     H157701   2.792   8.464   1.620
19153WAT     H257702   2.883   8.372   1.720
19154WAT      O57703   6.377   9.592   4.840
19154WAT     H157704   6.401   9.689   4.828
19154WAT     H257705   6.445   9.535   4.795
19155WAT      O57706   8.268   4.404   6.270
19155WAT     H157707   8.368   4.400   6.275
19155WAT     H257708   8.240   4.489   6.226
19156WAT      O57709   2.583   9.146   1.958
19156WAT     H157710   2.516   9.158   2.031
19156WAT     H257711   2.610   9.050   1.953
19157WAT      O57712   6.461   6.431   4.774
19157WAT     H157713   6.423   6.339   4.783
19157WAT     H257714   6.528   6.447   4.846
19158WAT      O57715   5.893   7.875   8.783
19158WAT     H157716   5.938   7.794   8.821
19158WAT     H257717   5.944   7.957   8.811
19159WAT      O57718   1.708   4.144   0.192
19159WAT     H157719   1.690   4.202   0.113
19159WAT     H257720   1.692   4.048   0.167
19160WAT      O57721   2.941   4.798   9.400
19160WAT     H157722   2.971   4.746   9.480
19160WAT     H257723   3.015   4.800   9.332
19161WAT      O57724   7.015   1.664   6.498
19161WAT     H157725   7.057   1.575   6.517
19161WAT     H257726   6.986   1.668   6.403
19162WAT      O57727   8.729   7.582   5.272
19162WAT     H157728   8.685   7.668   5.302
19162WAT     H257729   8.661   7.524   5.228
19163WAT      O57730   6.024   8.932   3.452
19163WAT     H157731   5.939   8.962   3.494
19163WAT     H257732   6.065   8.858   3.507
19164WAT      O57733   7.730   8.162   8.261
19164WAT     H157734   7.632   8.179   8.273
19164WAT     H257735   7.744   8.078   8.209
19165WAT      O57736   0.194   8.019   5.476
19165WAT     H157737   0.123   7.949   5.470
19165WAT     H257738   0.208   8.045   5.572
19166WAT      O57739   6.768   7.262   9.417
19166WAT     H157740   6.709   7.343   9.421
19166WAT     H257741   6.864   7.291   9.427
19167WAT      O57742   5.645   0.734   7.972
19167WAT     H157743   5.612   0.796   8.043
19167WAT     H257744   5.677   0.786   7.893
19168WAT      O57745   1.800   5.388   9.591
19168WAT     H157746   1.872   5.401   9.522
19168WAT     H257747   1.838   5.399   9.682
19169WAT      O57748   7.604   5.015   3.734
19169WAT     H157749   7.567   5.041   3.645
19169WAT     H257750   7.693   4.971   3.722
19170WAT      O57751   8.761   5.384   8.042
19170WAT     H157752   8.781   5.476   8.009
19170WAT     H257753   8.831   5.320   8.010
19171WAT      O57754   4.849   7.571   2.008
19171WAT     H157755   4.826   7.474   2.001
19171WAT     H257756   4.948   7.582   2.007
19172WAT      O57757   5.995   4.851   0.649
19172WAT     H157758   5.914   4.884   0.697
19172WAT     H257759   6.076   4.869   0.704
19173WAT      O57760   0.316   9.040   7.921
19173WAT     H157761   0.289   9.023   7.826
19173WAT     H257762   0.236   9.066   7.974
19174WAT      O57763   5.964   9.625   5.756
19174WAT     H157764   6.064   9.633   5.752
19174WAT     H257765   5.927   9.620   5.664
19175WAT      O57766   8.839   4.540   8.292
19175WAT     H157767   8.822   4.461   8.233
19175WAT     H257768   8.839   4.511   8.388
19176WAT      O57769   5.741   8.572   4.245
19176WAT     H157770   5.770   8.588   4.150
19176WAT     H257771   5.646   8.603   4.255
19177WAT      O57772   2.838   0.800   3.678
19177WAT     H157773   2.918   0.760   3.722
19177WAT     H257774   2.807   0.739   3.604
19178WAT      O57775   9.164   1.109   6.480
19178WAT     H157776   9.264   1.104   6.473
19178WAT     H257777   9.124   1.023   6.450
19179WAT      O57778   4.414   1.151   3.129
19179WAT     H157779   4.361   1.190   3.204
19179WAT     H257780   4.410   1.212   3.050
19180WAT      O57781   1.536   7.217   7.236
19180WAT     H157782   1.543   7.135   7.292
19180WAT     H257783   1.576   7.200   7.146
19181WAT      O57784   4.535   2.544   5.650
19181WAT     H157785   4.535   2.522   5.748
19181WAT     H257786   4.625   2.579   5.624
19182WAT      O57787   1.260   3.488   4.867
19182WAT     H157788   1.329   3.556   4.894
19182WAT     H257789   1.268   3.408   4.926
19183WAT      O57790   8.735   1.681   9.727
19183WAT     H157791   8.758   1.720   9.816
19183WAT     H257792   8.663   1.734   9.685
19184WAT      O57793   1.710   6.932   3.175
19184WAT     H157794   1.766   7.013   3.157
19184WAT     H257795   1.613   6.956   3.167
19185WAT      O57796   4.998   2.576   8.998
19185WAT     H157797   5.057   2.497   9.014
19185WAT     H257798   5.007   2.641   9.074
19186WAT      O57799   0.848   5.767   1.750
19186WAT     H157800   0.829   5.865   1.751
19186WAT     H257801   0.929   5.748   1.806
19187WAT      O57802   5.500   3.119   8.927
19187WAT     H157803   5.479   3.188   8.859
19187WAT     H257804   5.457   3.144   9.014
19188WAT      O57805   9.461   3.448   6.253
19188WAT     H157806   9.468   3.409   6.162
19188WAT     H257807   9.369   3.486   6.266
19189WAT      O57808   4.767   2.864   4.986
19189WAT     H157809   4.774   2.935   4.916
19189WAT     H257810   4.674   2.826   4.986
19190WAT      O57811   8.896   4.988   1.441
19190WAT     H157812   8.908   5.071   1.495
19190WAT     H257813   8.915   4.908   1.497
19191WAT      O57814   7.668   3.022   3.995
19191WAT     H157815   7.758   2.982   4.008
19191WAT     H257816   7.673   3.098   3.930
19192WAT      O57817   0.762   3.503   4.759
19192WAT     H157818   0.764   3.404   4.769
19192WAT     H257819   0.676   3.538   4.798
19193WAT      O57820   7.951   6.774   8.625
19193WAT     H157821   7.936   6.680   8.657
19193WAT     H257822   8.043   6.783   8.589
19194WAT      O57823   5.487   5.848   8.573
19194WAT     H157824   5.458   5.753   8.563
19194WAT     H257825   5.582   5.858   8.543
19195WAT      O57826   9.551   8.511   0.445
19195WAT     H157827   9.632   8.459   0.473
19195WAT     H257828   9.563   8.607   0.471
19196WAT      O57829   5.971   0.813   5.813
19196WAT     H157830   6.006   0.765   5.893
19196WAT     H257831   5.907   0.884   5.843
19197WAT      O57832   5.812   9.650   8.225
19197WAT     H157833   5.851   9.718   8.162
19197WAT     H257834   5.808   9.561   8.180
19198WAT      O57835   3.386   5.160   1.415
19198WAT     H157836   3.457   5.121   1.473
19198WAT     H257837   3.419   5.164   1.321
19199WAT      O57838   2.044   4.328   1.399
19199WAT     H157839   1.969   4.393   1.385
19199WAT     H257840   2.131   4.377   1.400
19200WAT      O57841   2.708   6.014   4.783
19200WAT     H157842   2.780   5.945   4.788
19200WAT     H257843   2.750   6.105   4.787
19201WAT      O57844   3.281   5.708   7.532
19201WAT     H157845   3.217   5.778   7.501
19201WAT     H257846   3.367   5.717   7.481
19202WAT      O57847   8.349   3.807   2.677
19202WAT     H157848   8.324   3.719   2.718
19202WAT     H257849   8.432   3.841   2.721
19203WAT      O57850   8.734   6.701   8.179
19203WAT     H157851   8.699   6.694   8.086
19203WAT     H257852   8.713   6.791   8.217
19204WAT      O57853   1.590   0.380   2.882
19204WAT     H157854   1.655   0.370   2.806
19204WAT     H257855   1.509   0.324   2.864
19205WAT      O57856   6.623   8.366   9.650
19205WAT     H157857   6.625   8.431   9.574
19205WAT     H257858   6.531   8.362   9.688
19206WAT      O57859   7.883   0.205   2.238
19206WAT     H157860   7.908   0.230   2.332
19206WAT     H257861   7.966   0.183   2.187
19207WAT      O57862   3.231   0.302   9.245
19207WAT     H157863   3.167   0.329   9.317
19207WAT     H257864   3.232   0.202   9.238
19208WAT      O57865   4.248   9.186   9.435
19208WAT     H157866   4.177   9.159   9.370
19208WAT     H257867   4.338   9.159   9.399
19209WAT      O57868   2.810   6.685   2.110
19209WAT     H157869   2.793   6.601   2.161
19209WAT     H257870   2.805   6.667   2.012
19210WAT      O57871   7.631   3.427   8.834
19210WAT     H157872   7.725   3.426   8.871
19210WAT     H257873   7.566   3.415   8.910
19211WAT      O57874   7.977   0.681   8.461
19211WAT     H157875   7.955   0.749   8.532
19211WAT     H257876   7.947   0.590   8.492
19212WAT      O57877   0.686   7.983   2.247
19212WAT     H157878   0.687   8.013   2.152
19212WAT     H257879   0.778   7.991   2.286
19213WAT      O57880   4.843   9.380   0.937
19213WAT     H157881   4.780   9.456   0.926
19213WAT     H257882   4.909   9.380   0.862
19214WAT      O57883   0.222   7.047   8.600
19214WAT     H157884   0.123   7.056   8.587
19214WAT     H257885   0.269   7.114   8.543
19215WAT      O57886   5.084   6.084   0.460
19215WAT     H157887   5.136   6.122   0.536
19215WAT     H257888   4.990   6.066   0.491
19216WAT      O57889   4.722   7.029   2.631
19216WAT     H157890   4.766   6.985   2.553
19216WAT     H257891   4.784   7.027   2.709
19217WAT      O57892   0.376   1.610   5.833
19217WAT     H157893   0.400   1.706   5.818
19217WAT     H257894   0.430   1.574   5.909
19218WAT      O57895   8.085   1.317   9.262
19218WAT     H157896   8.128   1.390   9.314
19218WAT     H257897   8.132   1.230   9.279
19219WAT      O57898   1.866   5.036   8.493
19219WAT     H157899   1.957   5.004   8.519
19219WAT     H257900   1.797   4.996   8.553
19220WAT      O57901   9.338   1.626   5.293
19220WAT     H157902   9.282   1.636   5.375
19220WAT     H257903   9.279   1.612   5.213
19221WAT      O57904   7.445   4.110   7.189
19221WAT     H157905   7.537   4.125   7.154
19221WAT     H257906   7.382   4.176   7.149
19222WAT      O57907   9.281   4.513   5.315
19222WAT     H157908   9.208   4.559   5.264
19222WAT     H257909   9.304   4.566   5.396
19223WAT      O57910   5.653   2.409   8.503
19223WAT     H157911   5.646   2.506   8.479
19223WAT     H257912   5.594   2.355   8.443
19224WAT      O57913   0.626   4.456   9.590
19224WAT     H157914   0.642   4.552   9.615
19224WAT     H257915   0.646   4.443   9.493
19225WAT      O57916   7.651   6.943   1.844
19225WAT     H157917   7.656   6.849   1.813
19225WAT     H257918   7.737   6.990   1.823
19226WAT      O57919   3.862   6.454   9.836
19226WAT     H157920   3.888   6.382   9.900
19226WAT     H257921   3.813   6.526   9.886
19227WAT      O57922   9.328   2.439   6.385
19227WAT     H157923   9.299   2.494   6.307
19227WAT     H257924   9.394   2.490   6.439
19228WAT      O57925   2.847   8.144   6.648
19228WAT     H157926   2.900   8.219   6.608
19228WAT     H257927   2.797   8.096   6.575
19229WAT      O57928   9.688   5.173   2.219
19229WAT     H157929   9.595   5.146   2.195
19229WAT     H257930   9.725   5.111   2.288
19230WAT      O57931   6.014   7.825   2.164
19230WAT     H157932   6.023   7.756   2.092
19230WAT     H257933   5.919   7.831   2.193
19231WAT      O57934   2.526   9.246   2.524
19231WAT     H157935   2.624   9.254   2.545
19231WAT     H257936   2.510   9.279   2.431
19232WAT      O57937   5.461   0.826   0.560
19232WAT     H157938   5.435   0.898   0.625
19232WAT     H257939   5.546   0.851   0.515
19233WAT      O57940   1.566   3.604   7.951
19233WAT     H157941   1.642   3.585   8.014
19233WAT     H257942   1.550   3.525   7.893
19234WAT      O57943   2.812   9.586   0.885
19234WAT     H157944   2.756   9.517   0.839
19234WAT     H257945   2.769   9.675   0.876
19235WAT      O57946   0.998   2.305   2.610
19235WAT     H157947   0.963   2.325   2.701
19235WAT     H257948   0.944   2.231   2.569
19236WAT      O57949   8.092   5.305   8.229
19236WAT     H157950   8.022   5.353   8.176
19236WAT     H257951   8.178   5.305   8.178
19237WAT      O57952   8.928   4.734   7.415
19237WAT     H157953   8.961   4.653   7.464
19237WAT     H257954   8.932   4.813   7.476
19238WAT      O57955   8.519   0.478   4.236
19238WAT     H157956   8.503   0.571   4.267
19238WAT     H257957   8.603   0.474   4.182
19239WAT      O57958   1.052   7.939   3.334
19239WAT     H157959   0.983   8.008   3.356
19239WAT     H257960   1.131   7.982   3.292
19240WAT      O57961   2.950   0.459   8.912
19240WAT     H157962   2.861   0.490   8.879
19240WAT     H257963   2.940   0.371   8.958
19241WAT      O57964   6.425   4.720   0.772
19241WAT     H157965   6.424   4.820   0.776
19241WAT     H257966   6.346   4.689   0.719
19242WAT      O57967   1.309   5.910   4.277
19242WAT     H157968   1.226   5.936   4.326
19242WAT     H257969   1.389   5.929   4.333
19243WAT      O57970   7.264   2.784   5.074
19243WAT     H157971   7.349   2.821   5.037
19243WAT     H257972   7.186   2.829   5.030
19244WAT      O57973   9.669   8.804   1.839
19244WAT     H157974   9.714   8.844   1.759
19244WAT     H257975   9.656   8.875   1.908
19245WAT      O57976   5.623   3.305   2.491
19245WAT     H157977   5.588   3.301   2.585
19245WAT     H257978   5.676   3.389   2.479
19246WAT      O57979   7.830   2.509   9.235
19246WAT     H157980   7.923   2.491   9.267
19246WAT     H257981   7.770   2.526   9.313
19247WAT      O57982   4.021   0.425   7.802
19247WAT     H157983   3.955   0.448   7.731
19247WAT     H257984   4.069   0.341   7.779
19248WAT      O57985   1.788   2.152   7.132
19248WAT     H157986   1.804   2.054   7.142
19248WAT     H257987   1.799   2.197   7.220
19249WAT      O57988   9.413   8.228   9.382
19249WAT     H157989   9.501   8.257   9.418
19249WAT     H257990   9.340   8.271   9.435
19250WAT      O57991   4.841   7.681   9.728
19250WAT     H157992   4.848   7.582   9.739
19250WAT     H257993   4.773   7.717   9.792
19251WAT      O57994   4.419   2.431   8.702
19251WAT     H157995   4.483   2.367   8.744
19251WAT     H257996   4.343   2.449   8.766
19252WAT      O57997   5.440   3.412   7.329
19252WAT     H157998   5.494   3.372   7.255
19252WAT     H257999   5.499   3.467   7.389
19253WAT      O58000   7.778   0.392   6.997
19253WAT     H158001   7.705   0.362   7.059
19253WAT     H258002   7.737   0.438   6.918
19254WAT      O58003   1.421   4.777   0.977
19254WAT     H158004   1.446   4.874   0.973
19254WAT     H258005   1.434   4.736   0.887
19255WAT      O58006   8.638   1.514   1.149
19255WAT     H158007   8.569   1.584   1.169
19255WAT     H258008   8.592   1.428   1.125
19256WAT      O58009   4.326   2.877   2.881
19256WAT     H158010   4.271   2.930   2.945
19256WAT     H258011   4.366   2.938   2.813
19257WAT      O58012   5.616   4.285   7.050
19257WAT     H158013   5.661   4.242   6.971
19257WAT     H258014   5.604   4.382   7.032
19258WAT      O58015   5.428   8.006   8.676
19258WAT     H158016   5.336   8.022   8.712
19258WAT     H258017   5.463   7.920   8.713
19259WAT      O58018   8.651   9.610   2.337
19259WAT     H158019   8.655   9.674   2.261
19259WAT     H258020   8.672   9.659   2.422
19260WAT      O58021   3.584   3.720   7.644
19260WAT     H158022   3.519   3.796   7.645
19260WAT     H258023   3.590   3.680   7.736
19261WAT      O58024   3.429   5.148   8.997
19261WAT     H158025   3.390   5.229   8.953
19261WAT     H258026   3.484   5.176   9.075
19262WAT      O58027   2.455   0.222   1.490
19262WAT     H158028   2.428   0.126   1.477
19262WAT     H258029   2.515   0.229   1.569
19263WAT      O58030   0.930   4.230   9.344
19263WAT     H158031   0.882   4.303   9.296
19263WAT     H258032   1.016   4.210   9.298
19264WAT      O58033   0.688   7.861   0.340
19264WAT     H158034   0.764   7.849   0.277
19264WAT     H258035   0.606   7.819   0.302
19265WAT      O58036   7.754   3.084   8.210
19265WAT     H158037   7.760   3.088   8.310
19265WAT     H258038   7.846   3.090   8.171
19266WAT      O58039   5.523   2.244   9.447
19266WAT     H158040   5.516   2.344   9.454
19266WAT     H258041   5.433   2.203   9.458
19267WAT      O58042   0.717   6.303   9.255
19267WAT     H158043   0.802   6.251   9.262
19267WAT     H258044   0.674   6.285   9.167
19268WAT      O58045   8.813   5.662   6.583
19268WAT     H158046   8.904   5.622   6.592
19268WAT     H258047   8.744   5.589   6.583
19269WAT      O58048   7.569   7.520   3.651
19269WAT     H158049   7.634   7.472   3.709
19269WAT     H258050   7.476   7.505   3.685
19270WAT      O58051   9.468   6.691   1.841
19270WAT     H158052   9.422   6.612   1.883
19270WAT     H258053   9.501   6.666   1.750
19271WAT      O58054   3.417   2.892   2.783
19271WAT     H158055   3.368   2.822   2.733
19271WAT     H258056   3.497   2.922   2.731
19272WAT      O58057   8.628   6.669   1.985
19272WAT     H158058   8.582   6.700   1.902
19272WAT     H258059   8.576   6.699   2.065
19273WAT      O58060   0.782   4.464   4.348
19273WAT     H158061   0.837   4.530   4.399
19273WAT     H258062   0.711   4.427   4.408
19274WAT      O58063   5.986   3.550   1.961
19274WAT     H158064   5.918   3.597   1.904
19274WAT     H258065   6.077   3.584   1.940
19275WAT      O58066   6.337   3.303   2.739
19275WAT     H158067   6.309   3.274   2.830
19275WAT     H258068   6.257   3.330   2.686
19276WAT      O58069   1.540   9.535   7.092
19276WAT     H158070   1.509   9.491   7.008
19276WAT     H258071   1.620   9.487   7.127
19277WAT      O58072   7.837   8.838   4.727
19277WAT     H158073   7.792   8.925   4.706
19277WAT     H258074   7.934   8.844   4.702
19278WAT      O58075   0.056   3.637   1.534
19278WAT     H158076   0.093   3.555   1.579
19278WAT     H258077   0.113   3.660   1.456
19279WAT      O58078   9.569   3.158   0.223
19279WAT     H158079   9.525   3.192   0.140
19279WAT     H258080   9.605   3.066   0.207
19280WAT      O58081   4.170   3.105   2.272
19280WAT     H158082   4.153   3.162   2.192
19280WAT     H258083   4.113   3.136   2.348
19281WAT      O58084   1.908   4.596   8.540
19281WAT     H158085   1.935   4.631   8.630
19281WAT     H258086   1.832   4.532   8.550
19282WAT      O58087   6.270   6.231   2.717
19282WAT     H158088   6.190   6.210   2.773
19282WAT     H258089   6.325   6.301   2.762
19283WAT      O58090   8.722   6.397   6.744
19283WAT     H158091   8.714   6.497   6.749
19283WAT     H258092   8.709   6.358   6.835
19284WAT      O58093   9.517   0.895   2.428
19284WAT     H158094   9.534   0.976   2.483
19284WAT     H258095   9.454   0.834   2.476
19285WAT      O58096   6.459   9.144   6.656
19285WAT     H158097   6.394   9.087   6.707
19285WAT     H258098   6.409   9.197   6.587
19286WAT      O58099   1.454   3.320   4.002
19286WAT     H158100   1.513   3.358   3.931
19286WAT     H258101   1.415   3.395   4.056
19287WAT      O58102   9.605   7.878   6.589
19287WAT     H158103   9.587   7.815   6.513
19287WAT     H258104   9.524   7.934   6.606
19288WAT      O58105   8.993   0.036   8.767
19288WAT     H158106   9.020   0.022   8.672
19288WAT     H258107   8.937   0.119   8.774
19289WAT      O58108   0.868   4.208   3.995
19289WAT     H158109   0.842   4.136   3.931
19289WAT     H258110   0.922   4.170   4.069
19290WAT      O58111   7.387   1.731   4.083
19290WAT     H158112   7.343   1.808   4.037
19290WAT     H258113   7.395   1.655   4.019
19291WAT      O58114   8.940   9.829   3.809
19291WAT     H158115   8.889   9.886   3.873
19291WAT     H258116   8.964   9.883   3.728
19292WAT      O58117   8.413   5.767   7.180
19292WAT     H158118   8.407   5.668   7.195
19292WAT     H258119   8.321   5.804   7.168
19293WAT      O58120   3.518   7.827   5.820
19293WAT     H158121   3.521   7.924   5.843
19293WAT     H258122   3.606   7.800   5.780
19294WAT      O58123   6.624   8.899   0.359
19294WAT     H158124   6.704   8.878   0.303
19294WAT     H258125   6.604   8.821   0.418
19295WAT      O58126   1.994   0.847   4.069
19295WAT     H158127   1.898   0.876   4.071
19295WAT     H258128   2.001   0.758   4.025
19296WAT      O58129   6.194   2.049   6.553
19296WAT     H158130   6.133   1.970   6.555
19296WAT     H258131   6.141   2.132   6.571
19297WAT      O58132   2.672   2.741   3.539
19297WAT     H158133   2.673   2.649   3.501
19297WAT     H258134   2.692   2.738   3.636
19298WAT      O58135   3.819   3.751   5.585
19298WAT     H158136   3.812   3.822   5.656
19298WAT     H258137   3.773   3.783   5.502
19299WAT      O58138   6.707   0.521   2.947
19299WAT     H158139   6.749   0.605   2.913
19299WAT     H258140   6.613   0.516   2.915
19300WAT      O58141   0.901   5.462   0.357
19300WAT     H158142   0.837   5.390   0.332
19300WAT     H258143   0.940   5.443   0.447
19301WAT      O58144   3.734   3.295   4.213
19301WAT     H158145   3.827   3.272   4.184
19301WAT     H258146   3.687   3.342   4.138
19302WAT      O58147   8.077   9.013   2.728
19302WAT     H158148   8.027   9.065   2.797
19302WAT     H258149   8.030   9.023   2.640
19303WAT      O58150   8.982   2.968   0.317
19303WAT     H158151   8.957   3.044   0.256
19303WAT     H258152   8.907   2.902   0.320
19304WAT      O58153   2.934   5.846   3.616
19304WAT     H158154   3.027   5.836   3.582
19304WAT     H258155   2.874   5.875   3.542
19305WAT      O58156   2.385   9.493   0.602
19305WAT     H158157   2.387   9.400   0.565
19305WAT     H258158   2.312   9.545   0.557
19306WAT      O58159   0.873   4.333   2.704
19306WAT     H158160   0.856   4.239   2.731
19306WAT     H258161   0.803   4.362   2.639
19307WAT      O58162   9.021   5.924   2.473
19307WAT     H158163   9.042   5.931   2.376
19307WAT     H258164   8.978   6.009   2.504
19308WAT      O58165   2.916   3.829   4.390
19308WAT     H158166   2.995   3.774   4.417
19308WAT     H258167   2.914   3.912   4.445
19309WAT      O58168   1.467   6.775   3.846
19309WAT     H158169   1.453   6.686   3.891
19309WAT     H258170   1.382   6.828   3.852
19310WAT      O58171   4.857   0.367   6.331
19310WAT     H158172   4.836   0.463   6.352
19310WAT     H258173   4.938   0.363   6.274
19311WAT      O58174   6.825   2.039   7.554
19311WAT     H158175   6.731   2.023   7.524
19311WAT     H258176   6.887   2.024   7.477
19312WAT      O58177   3.657   5.261   9.254
19312WAT     H158178   3.698   5.229   9.168
19312WAT     H258179   3.707   5.223   9.331
19313WAT      O58180   7.370   9.674   2.849
19313WAT     H158181   7.430   9.753   2.836
19313WAT     H258182   7.278   9.706   2.875
19314WAT      O58183   0.774   4.388   1.231
19314WAT     H158184   0.827   4.391   1.316
19314WAT     H258185   0.776   4.294   1.195
19315WAT      O58186   8.705   3.142   8.578
19315WAT     H158187   8.731   3.230   8.539
19315WAT     H258188   8.638   3.098   8.518
19316WAT      O58189   7.081   0.939   8.007
19316WAT     H158190   7.119   0.849   8.025
19316WAT     H258191   7.125   0.979   7.926
19317WAT      O58192   1.481   0.900   8.945
19317WAT     H158193   1.436   0.814   8.967
19317WAT     H258194   1.470   0.920   8.847
19318WAT      O58195   8.784   6.254   7.552
19318WAT     H158196   8.692   6.265   7.591
19318WAT     H258197   8.843   6.329   7.583
19319WAT      O58198   1.986   2.354   5.336
19319WAT     H158199   2.026   2.325   5.250
19319WAT     H258200   1.954   2.449   5.327
19320WAT      O58201   2.848   8.965   2.149
19320WAT     H158202   2.943   8.940   2.166
19320WAT     H258203   2.799   8.973   2.236
19321WAT      O58204   1.364   0.691   6.974
19321WAT     H158205   1.334   0.615   6.917
19321WAT     H258206   1.430   0.747   6.924
19322WAT      O58207   1.779   4.510   2.285
19322WAT     H158208   1.754   4.500   2.189
19322WAT     H258209   1.727   4.586   2.325
19323WAT      O58210   4.169   0.427   5.954
19323WAT     H158211   4.154   0.419   5.855
19323WAT     H258212   4.131   0.514   5.986
19324WAT      O58213   1.017   3.657   4.305
19324WAT     H158214   1.030   3.748   4.344
19324WAT     H258215   0.984   3.667   4.211
19325WAT      O58216   5.006   4.406   2.680
19325WAT     H158217   4.934   4.369   2.622
19325WAT     H258218   5.032   4.337   2.748
19326WAT      O58219   3.780   5.515   4.159
19326WAT     H158220   3.789   5.456   4.239
19326WAT     H258221   3.871   5.540   4.126
19327WAT      O58222   5.134   1.289   2.948
19327WAT     H158223   5.209   1.354   2.962
19327WAT     H258224   5.144   1.212   3.011
19328WAT      O58225   1.020   8.035   1.114
19328WAT     H158226   1.116   8.007   1.106
19328WAT     H258227   0.991   8.079   1.029
19329WAT      O58228   2.016   1.960   0.502
19329WAT     H158229   1.954   1.942   0.579
19329WAT     H258230   2.111   1.951   0.533
19330WAT      O58231   8.463   8.015   8.475
19330WAT     H158232   8.462   7.953   8.553
19330WAT     H258233   8.553   8.014   8.432
19331WAT      O58234   8.158   7.459   7.169
19331WAT     H158235   8.165   7.559   7.176
19331WAT     H258236   8.067   7.434   7.137
19332WAT      O58237   8.386   4.116   3.448
19332WAT     H158238   8.465   4.177   3.447
19332WAT     H258239   8.362   4.090   3.355
19333WAT      O58240   2.155   1.360   8.841
19333WAT     H158241   2.194   1.317   8.759
19333WAT     H258242   2.105   1.443   8.814
19334WAT      O58243   3.486   0.358   1.100
19334WAT     H158244   3.435   0.306   1.169
19334WAT     H258245   3.426   0.426   1.059
19335WAT      O58246   2.450   7.896   4.491
19335WAT     H158247   2.445   7.836   4.411
19335WAT     H258248   2.522   7.863   4.553
19336WAT      O58249   5.949   2.053   1.241
19336WAT     H158250   5.888   2.045   1.320
19336WAT     H258251   6.044   2.055   1.271
19337WAT      O58252   4.054   1.410   6.889
19337WAT     H158253   4.073   1.344   6.961
19337WAT     H258254   3.956   1.427   6.885
19338WAT      O58255   9.592   3.375   7.011
19338WAT     H158256   9.669   3.437   7.025
19338WAT     H258257   9.543   3.361   7.097
19339WAT      O58258   6.233   5.069   1.857
19339WAT     H158259   6.138   5.074   1.829
19339WAT     H258260   6.255   5.150   1.912
19340WAT      O58261   5.000   7.228   2.174
19340WAT     H158262   4.996   7.269   2.083
19340WAT     H258263   4.960   7.136   2.172
19341WAT      O58264   2.779   0.211   1.945
19341WAT     H158265   2.863   0.219   1.999
19341WAT     H258266   2.786   0.132   1.885
19342WAT      O58267   4.691   9.686   2.334
19342WAT     H158268   4.719   9.781   2.343
19342WAT     H258269   4.755   9.628   2.384
19343WAT      O58270   8.572   4.260   7.352
19343WAT     H158271   8.635   4.338   7.346
19343WAT     H258272   8.503   4.279   7.422
19344WAT      O58273   8.266   7.825   1.393
19344WAT     H158274   8.299   7.918   1.377
19344WAT     H258275   8.170   7.828   1.420
19345WAT      O58276   3.142   6.723   0.462
19345WAT     H158277   3.102   6.640   0.501
19345WAT     H258278   3.074   6.796   0.463
19346WAT      O58279   7.645   5.370   3.203
19346WAT     H158280   7.572   5.403   3.144
19346WAT     H258281   7.729   5.359   3.150
19347WAT      O58282   8.997   1.162   3.934
19347WAT     H158283   9.080   1.215   3.914
19347WAT     H258284   9.010   1.067   3.904
19348WAT      O58285   8.882   0.986   7.113
19348WAT     H158286   8.849   0.904   7.065
19348WAT     H258287   8.804   1.044   7.136
19349WAT      O58288   4.097   3.560   5.004
19349WAT     H158289   4.122   3.641   5.058
19349WAT     H258290   4.076   3.484   5.066
19350WAT      O58291   8.897   3.717   1.037
19350WAT     H158292   8.854   3.676   0.957
19350WAT     H258293   8.854   3.805   1.057
19351WAT      O58294   9.614   0.981   1.815
19351WAT     H158295   9.692   0.919   1.828
19351WAT     H258296   9.638   1.053   1.751
19352WAT      O58297   9.002   0.285   1.845
19352WAT     H158298   8.993   0.226   1.926
19352WAT     H258299   9.014   0.380   1.874
19353WAT      O58300   2.367   5.240   6.453
19353WAT     H158301   2.356   5.141   6.443
19353WAT     H258302   2.390   5.281   6.365
19354WAT      O58303   0.323   5.698   4.543
19354WAT     H158304   0.335   5.599   4.539
19354WAT     H258305   0.375   5.741   4.469
19355WAT      O58306   7.613   9.585   5.380
19355WAT     H158307   7.674   9.662   5.356
19355WAT     H258308   7.647   9.502   5.336
19356WAT      O58309   4.811   0.088   7.921
19356WAT     H158310   4.887   0.077   7.857
19356WAT     H258311   4.748   0.157   7.887
19357WAT      O58312   9.809   6.045   2.897
19357WAT     H158313   9.742   6.041   2.971
19357WAT     H258314   9.833   6.141   2.879
19358WAT      O58315   8.268   9.065   9.042
19358WAT     H158316   8.365   9.046   9.023
19358WAT     H258317   8.213   8.988   9.010
19359WAT      O58318   0.102   1.667   8.387
19359WAT     H158319   0.189   1.626   8.417
19359WAT     H258320   0.030   1.598   8.393
19360WAT      O58321   4.757   8.782   4.229
19360WAT     H158322   4.811   8.707   4.190
19360WAT     H258323   4.818   8.856   4.258
19361WAT      O58324   6.331   2.963   3.328
19361WAT     H158325   6.255   2.935   3.387
19361WAT     H258326   6.353   2.888   3.265
19362WAT      O58327   3.488   4.654   2.991
19362WAT     H158328   3.540   4.679   2.910
19362WAT     H258329   3.508   4.718   3.065
19363WAT      O58330   5.941   4.295   2.260
19363WAT     H158331   6.039   4.273   2.259
19363WAT     H258332   5.890   4.222   2.214
19364WAT      O58333   7.195   4.981   4.530
19364WAT     H158334   7.182   5.068   4.578
19364WAT     H258335   7.252   4.996   4.450
19365WAT      O58336   0.033   8.402   8.176
19365WAT     H158337   0.093   8.482   8.186
19365WAT     H258338  -0.020   8.390   8.260
19366WAT      O58339   8.911   2.400   9.434
19366WAT     H158340   8.853   2.458   9.492
19366WAT     H258341   8.895   2.422   9.338
19367WAT      O58342   3.833   7.887   8.061
19367WAT     H158343   3.863   7.798   8.096
19367WAT     H258344   3.739   7.904   8.092
19368WAT      O58345   6.242   8.992   1.339
19368WAT     H158346   6.323   8.935   1.328
19368WAT     H258347   6.231   9.051   1.259
19369WAT      O58348   3.711   7.516   9.063
19369WAT     H158349   3.740   7.483   9.153
19369WAT     H258350   3.632   7.463   9.032
19370WAT      O58351   2.348   1.252   6.010
19370WAT     H158352   2.366   1.154   5.999
19370WAT     H258353   2.255   1.272   5.979
19371WAT      O58354   2.843   6.241   4.833
19371WAT     H158355   2.935   6.263   4.802
19371WAT     H258356   2.843   6.232   4.933
19372WAT      O58357   0.658   3.362   6.402
19372WAT     H158358   0.576   3.392   6.451
19372WAT     H258359   0.728   3.333   6.468
19373WAT      O58360   5.726   2.125   4.689
19373WAT     H158361   5.671   2.164   4.763
19373WAT     H258362   5.681   2.043   4.653
19374WAT      O58363   4.396   0.701   0.641
19374WAT     H158364   4.467   0.736   0.703
19374WAT     H258365   4.440   0.660   0.561
19375WAT      O58366   5.641   7.042   5.993
19375WAT     H158367   5.632   7.002   6.084
19375WAT     H258368   5.554   7.033   5.944
19376WAT      O58369   9.466   9.161   7.708
19376WAT     H158370   9.464   9.172   7.808
19376WAT     H258371   9.451   9.251   7.665
19377WAT      O58372   4.677   9.321   3.538
19377WAT     H158373   4.692   9.319   3.439
19377WAT     H258374   4.579   9.321   3.557
19378WAT      O58375   3.569   8.486   5.601
19378WAT     H158376   3.583   8.395   5.562
19378WAT     H258377   3.493   8.531   5.554
19379WAT      O58378   1.706   1.060   4.652
19379WAT     H158379   1.716   1.097   4.559
19379WAT     H258380   1.797   1.052   4.693
19380WAT      O58381   6.789   3.308   4.656
19380WAT     H158382   6.759   3.215   4.632
19380WAT     H258383   6.713   3.357   4.700
19381WAT      O58384   2.716   8.214   8.834
19381WAT     H158385   2.729   8.217   8.734
19381WAT     H258386   2.687   8.304   8.866
19382WAT      O58387   9.290   3.988   7.888
19382WAT     H158388   9.346   4.043   7.825
19382WAT     H258389   9.328   3.995   7.980
19383WAT      O58390   5.841   2.003   1.844
19383WAT     H158391   5.917   2.064   1.866
19383WAT     H258392   5.847   1.920   1.900
19384WAT      O58393   6.163   8.665   3.166
19384WAT     H158394   6.151   8.743   3.228
19384WAT     H258395   6.076   8.615   3.160
19385WAT      O58396   8.529   2.304   0.538
19385WAT     H158397   8.530   2.294   0.637
19385WAT     H258398   8.502   2.397   0.513
19386WAT      O58399   5.538   0.724   0.855
19386WAT     H158400   5.528   0.812   0.809
19386WAT     H258401   5.559   0.653   0.787
19387WAT      O58402   4.871   0.129   8.180
19387WAT     H158403   4.822   0.057   8.229
19387WAT     H258404   4.879   0.105   8.083
19388WAT      O58405   1.535   8.163   1.860
19388WAT     H158406   1.514   8.128   1.951
19388WAT     H258407   1.456   8.149   1.800
19389WAT      O58408   6.497   2.212   5.322
19389WAT     H158409   6.400   2.226   5.342
19389WAT     H258410   6.518   2.245   5.230
19390WAT      O58411   4.027   6.239   7.485
19390WAT     H158412   4.100   6.205   7.426
19390WAT     H258413   3.945   6.254   7.430
19391WAT      O58414   0.377   6.318   6.059
19391WAT     H158415   0.293   6.345   6.011
19391WAT     H258416   0.365   6.227   6.098
19392WAT      O58417   4.658   5.838   0.055
19392WAT     H158418   4.583   5.903   0.045
19392WAT     H258419   4.622   5.749   0.085
19393WAT      O58420   6.442   1.888   0.357
19393WAT     H158421   6.489   1.810   0.316
19393WAT     H258422   6.345   1.886   0.332
19394WAT      O58423   4.239   9.761   8.253
19394WAT     H158424   4.314   9.818   8.218
19394WAT     H258425   4.248   9.669   8.216
19395WAT      O58426   9.502   3.465   0.901
19395WAT     H158427   9.568   3.399   0.936
19395WAT     H258428   9.425   3.472   0.965
19396WAT      O58429   1.699   2.342   7.523
19396WAT     H158430   1.721   2.300   7.611
19396WAT     H258431   1.599   2.344   7.512
19397WAT      O58432   0.518   4.652   8.488
19397WAT     H158433   0.578   4.719   8.445
19397WAT     H258434   0.483   4.590   8.418
19398WAT      O58435   9.803   7.438   4.289
19398WAT     H158436   9.852   7.395   4.213
19398WAT     H258437   9.713   7.466   4.258
19399WAT      O58438   9.551   9.122   2.984
19399WAT     H158439   9.564   9.094   3.080
19399WAT     H258440   9.496   9.054   2.936
19400WAT      O58441   6.124   1.219   1.912
19400WAT     H158442   6.129   1.128   1.953
19400WAT     H258443   6.201   1.232   1.850
19401WAT      O58444   3.217   4.306   3.184
19401WAT     H158445   3.308   4.337   3.158
19401WAT     H258446   3.149   4.372   3.152
19402WAT      O58447   2.167   0.295   9.571
19402WAT     H158448   2.226   0.268   9.495
19402WAT     H258449   2.136   0.214   9.621
19403WAT      O58450   5.318   8.826   9.467
19403WAT     H158451   5.239   8.770   9.495
19403WAT     H258452   5.328   8.902   9.531
19404WAT      O58453   1.115   6.644   9.256
19404WAT     H158454   1.055   6.571   9.289
19404WAT     H258455   1.064   6.729   9.249
19405WAT      O58456   1.071   4.616   5.602
19405WAT     H158457   1.081   4.715   5.598
19405WAT     H258458   0.973   4.593   5.606
19406WAT      O58459   1.451   1.566   1.619
19406WAT     H158460   1.483   1.660   1.607
19406WAT     H258461   1.366   1.552   1.568
19407WAT      O58462   7.915   3.034   2.093
19407WAT     H158463   7.834   2.990   2.132
19407WAT     H258464   7.989   2.967   2.084
19408WAT      O58465   8.251   8.163   0.454
19408WAT     H158466   8.296   8.247   0.422
19408WAT     H258467   8.155   8.181   0.473
19409WAT      O58468   0.580   1.653   9.455
19409WAT     H158469   0.586   1.627   9.359
19409WAT     H258470   0.619   1.581   9.512
19410WAT      O58471   2.466   4.628   1.966
19410WAT     H158472   2.456   4.569   2.046
19410WAT     H258473   2.376   4.649   1.929
19411WAT      O58474   7.195   4.909   1.537
19411WAT     H158475   7.123   4.978   1.531
19411WAT     H258476   7.186   4.844   1.462
19412WAT      O58477   5.698   0.616   5.338
19412WAT     H158478   5.760   0.538   5.341
19412WAT     H258479   5.607   0.586   5.308
19413WAT      O58480   7.096   6.260   4.875
19413WAT     H158481   7.164   6.333   4.869
19413WAT     H258482   7.016   6.293   4.924
19414WAT      O58483   8.595   1.894   5.110
19414WAT     H158484   8.511   1.928   5.066
19414WAT     H258485   8.632   1.965   5.170
19415WAT      O58486   5.785   2.212   4.116
19415WAT     H158487   5.707   2.196   4.177
19415WAT     H258488   5.842   2.131   4.113
19416WAT      O58489   9.522   4.804   7.022
19416WAT     H158490   9.433   4.847   7.031
19416WAT     H258491   9.514   4.722   6.965
19417WAT      O58492   6.295   5.196   6.571
19417WAT     H158493   6.335   5.188   6.662
19417WAT     H258494   6.269   5.105   6.537
19418WAT      O58495   4.217   9.626   6.909
19418WAT     H158496   4.299   9.595   6.861
19418WAT     H258497   4.149   9.552   6.909
19419WAT      O58498   0.385   5.444   4.267
19419WAT     H158499   0.342   5.365   4.224
19419WAT     H258500   0.380   5.435   4.366
19420WAT      O58501   8.604   6.488   4.125
19420WAT     H158502   8.703   6.492   4.142
19420WAT     H258503   8.579   6.559   4.060
19421WAT      O58504   4.765   9.496   0.664
19421WAT     H158505   4.713   9.411   0.666
19421WAT     H258506   4.725   9.558   0.596
19422WAT      O58507   6.036   1.960   4.651
19422WAT     H158508   6.005   1.865   4.648
19422WAT     H258509   6.109   1.970   4.720
19423WAT      O58510   7.457   5.458   6.619
19423WAT     H158511   7.541   5.457   6.673
19423WAT     H258512   7.474   5.504   6.532
19424WAT      O58513   4.142   8.019   0.969
19424WAT     H158514   4.214   7.950   0.971
19424WAT     H258515   4.172   8.101   1.019
19425WAT      O58516   1.506   7.945   8.961
19425WAT     H158517   1.419   7.919   8.919
19425WAT     H258518   1.498   7.943   9.060
19426WAT      O58519   7.843   2.952   4.434
19426WAT     H158520   7.878   2.899   4.356
19426WAT     H258521   7.915   2.961   4.502
19427WAT      O58522   7.386   9.619   3.900
19427WAT     H158523   7.435   9.559   3.836
19427WAT     H258524   7.366   9.570   3.984
19428WAT      O58525   3.718   3.589   9.598
19428WAT     H158526   3.685   3.566   9.690
19428WAT     H258527   3.817   3.585   9.596
19429WAT      O58528   0.929   3.205   8.234
19429WAT     H158529   0.846   3.235   8.187
19429WAT     H258530   0.996   3.172   8.166
19430WAT      O58531   1.613   5.608   8.677
19430WAT     H158532   1.610   5.708   8.674
19430WAT     H258533   1.526   5.574   8.713
19431WAT      O58534   0.707   8.601   2.627
19431WAT     H158535   0.690   8.604   2.529
19431WAT     H258536   0.625   8.570   2.675
19432WAT      O58537   9.729   9.535   9.692
19432WAT     H158538   9.635   9.525   9.661
19432WAT     H258539   9.732   9.597   9.771
19433WAT      O58540   3.036   3.364   4.650
19433WAT     H158541   3.130   3.391   4.630
19433WAT     H258542   3.026   3.265   4.634
19434WAT      O58543   4.222   4.892   7.311
19434WAT     H158544   4.200   4.912   7.215
19434WAT     H258545   4.205   4.795   7.329
19435WAT      O58546   9.742   9.109   7.604
19435WAT     H158547   9.678   9.090   7.677
19435WAT     H258548   9.774   9.203   7.610
19436WAT      O58549   8.771   6.293   3.258
19436WAT     H158550   8.819   6.259   3.176
19436WAT     H258551   8.673   6.274   3.248
19437WAT      O58552   2.157   1.706   8.060
19437WAT     H158553   2.128   1.685   8.154
19437WAT     H258554   2.081   1.751   8.012
19438WAT      O58555   5.283   7.997   0.847
19438WAT     H158556   5.341   8.052   0.908
19438WAT     H258557   5.335   7.916   0.817
19439WAT      O58558   1.697  -0.001   3.550
19439WAT     H158559   1.764  -0.017   3.477
19439WAT     H258560   1.738   0.057   3.620
19440WAT      O58561   5.477   2.295   2.739
19440WAT     H158562   5.542   2.232   2.780
19440WAT     H258563   5.408   2.322   2.806
19441WAT      O58564   9.340   0.331   6.335
19441WAT     H158565   9.385   0.258   6.386
19441WAT     H258566   9.316   0.405   6.397
19442WAT      O58567   3.502   0.670   7.209
19442WAT     H158568   3.577   0.693   7.148
19442WAT     H258569   3.501   0.733   7.286
19443WAT      O58570   8.624   9.679   6.716
19443WAT     H158571   8.610   9.775   6.693
19443WAT     H258572   8.537   9.629   6.706
19444WAT      O58573   4.376   1.508   3.187
19444WAT     H158574   4.454   1.570   3.185
19444WAT     H258575   4.391   1.436   3.254
19445WAT      O58576   2.564   9.057   8.048
19445WAT     H158577   2.480   9.029   8.094
19445WAT     H258578   2.562   9.025   7.953
19446WAT      O58579   1.679   4.232   6.960
19446WAT     H158580   1.631   4.256   6.876
19446WAT     H258581   1.663   4.135   6.981
19447WAT      O58582   8.530   3.819   0.555
19447WAT     H158583   8.517   3.830   0.456
19447WAT     H258584   8.623   3.848   0.580
19448WAT      O58585   5.997   2.912   4.674
19448WAT     H158586   6.062   2.837   4.675
19448WAT     H258587   6.037   2.990   4.626
19449WAT      O58588   8.536   4.427   6.295
19449WAT     H158589   8.541   4.521   6.261
19449WAT     H258590   8.547   4.426   6.394
19450WAT      O58591   1.319   7.143   0.376
19450WAT     H158592   1.406   7.104   0.407
19450WAT     H258593   1.328   7.241   0.365
19451WAT      O58594   1.725   8.104   2.931
19451WAT     H158595   1.629   8.113   2.905
19451WAT     H258596   1.733   8.039   3.006
19452WAT      O58597   9.511   4.287   1.374
19452WAT     H158598   9.576   4.353   1.412
19452WAT     H258599   9.512   4.293   1.274
19453WAT      O58600   2.662   4.084   5.264
19453WAT     H158601   2.575   4.118   5.300
19453WAT     H258602   2.675   3.989   5.292
19454WAT      O58603   1.402   2.538   6.092
19454WAT     H158604   1.476   2.561   6.029
19454WAT     H258605   1.366   2.622   6.133
19455WAT      O58606   0.774   7.007   3.867
19455WAT     H158607   0.724   6.992   3.952
19455WAT     H258608   0.780   7.105   3.848
19456WAT      O58609   2.512   1.592   4.446
19456WAT     H158610   2.450   1.517   4.420
19456WAT     H258611   2.516   1.659   4.371
19457WAT      O58612   0.192   2.222   5.554
19457WAT     H158613   0.273   2.163   5.564
19457WAT     H258614   0.161   2.250   5.645
19458WAT      O58615   6.467   8.516   4.876
19458WAT     H158616   6.483   8.418   4.886
19458WAT     H258617   6.551   8.566   4.897
19459WAT      O58618   2.460   7.913   2.057
19459WAT     H158619   2.466   7.981   1.983
19459WAT     H258620   2.408   7.951   2.133
19460WAT      O58621   8.212   5.028   1.775
19460WAT     H158622   8.299   4.978   1.776
19460WAT     H258623   8.230   5.125   1.760
19461WAT      O58624   2.273   5.185   7.968
19461WAT     H158625   2.227   5.271   7.987
19461WAT     H258626   2.320   5.190   7.880
19462WAT      O58627   7.895   6.180   1.180
19462WAT     H158628   7.935   6.264   1.217
19462WAT     H258629   7.969   6.119   1.149
19463WAT      O58630   8.928   7.751   7.975
19463WAT     H158631   9.018   7.788   7.999
19463WAT     H258632   8.858   7.818   7.997
19464WAT      O58633   0.998   3.316   5.059
19464WAT     H158634   1.092   3.283   5.069
19464WAT     H258635   0.995   3.414   5.077
19465WAT      O58636   5.836   2.297   6.363
19465WAT     H158637   5.913   2.277   6.303
19465WAT     H258638   5.765   2.345   6.311
19466WAT      O58639   5.190   4.208   6.323
19466WAT     H158640   5.158   4.133   6.265
19466WAT     H258641   5.286   4.192   6.349
19467WAT      O58642   0.707   5.292   0.285
19467WAT     H158643   0.690   5.213   0.344
19467WAT     H258644   0.676   5.270   0.192
19468WAT      O58645   9.029   0.649   4.440
19468WAT     H158646   9.097   0.704   4.391
19468WAT     H258647   9.067   0.559   4.460
19469WAT      O58648   0.548   3.987   7.530
19469WAT     H158649   0.588   4.068   7.573
19469WAT     H258650   0.486   4.015   7.457
19470WAT      O58651   0.145   7.375   0.835
19470WAT     H158652   0.129   7.473   0.843
19470WAT     H258653   0.080   7.335   0.771
19471WAT      O58654   9.889   4.573   0.013
19471WAT     H158655   9.806   4.572   0.069
19471WAT     H258656   9.876   4.634  -0.065
19472WAT      O58657   1.340   4.707   7.516
19472WAT     H158658   1.268   4.637   7.518
19472WAT     H258659   1.369   4.729   7.609
19473WAT      O58660   3.333   7.881   6.625
19473WAT     H158661   3.285   7.910   6.708
19473WAT     H258662   3.325   7.952   6.555
19474WAT      O58663   1.422   6.200   9.677
19474WAT     H158664   1.502   6.256   9.657
19474WAT     H258665   1.347   6.258   9.709
19475WAT      O58666   4.025   8.853   9.065
19475WAT     H158667   4.045   8.924   8.997
19475WAT     H258668   3.968   8.892   9.138
19476WAT      O58669   4.989   4.967   2.603
19476WAT     H158670   5.063   4.930   2.658
19476WAT     H258671   4.975   5.063   2.627
19477WAT      O58672   7.491   6.621   9.869
19477WAT     H158673   7.504   6.612   9.771
19477WAT     H258674   7.429   6.549   9.902
19478WAT      O58675   9.329   0.265   1.016
19478WAT     H158676   9.263   0.248   1.089
19478WAT     H258677   9.281   0.268   0.928
19479WAT      O58678   6.996   5.271   1.982
19479WAT     H158679   6.986   5.311   1.891
19479WAT     H258680   7.087   5.292   2.018
19480WAT      O58681   9.260   8.860   6.120
19480WAT     H158682   9.225   8.944   6.079
19480WAT     H258683   9.187   8.792   6.124
19481WAT      O58684   7.012   4.966   6.295
19481WAT     H158685   6.949   4.921   6.231
19481WAT     H258686   6.992   4.936   6.388
19482WAT      O58687   3.007   7.907   8.844
19482WAT     H158688   3.009   7.936   8.749
19482WAT     H258689   2.924   7.943   8.888
19483WAT      O58690   7.063   3.733   1.807
19483WAT     H158691   7.129   3.806   1.828
19483WAT     H258692   6.992   3.769   1.746
19484WAT      O58693   8.049   0.801   9.506
19484WAT     H158694   7.975   0.789   9.572
19484WAT     H258695   8.035   0.887   9.456
19485WAT      O58696   5.359   0.639   2.181
19485WAT     H158697   5.393   0.652   2.274
19485WAT     H258698   5.335   0.543   2.167
19486WAT      O58699   3.442   2.117   4.277
19486WAT     H158700   3.437   2.164   4.188
19486WAT     H258701   3.400   2.027   4.269
19487WAT      O58702   0.805   8.467   5.808
19487WAT     H158703   0.885   8.526   5.803
19487WAT     H258704   0.760   8.463   5.719
19488WAT      O58705   8.013   4.640   6.489
19488WAT     H158706   7.992   4.692   6.572
19488WAT     H258707   7.928   4.615   6.443
19489WAT      O58708   3.404   5.936   7.759
19489WAT     H158709   3.370   5.919   7.666
19489WAT     H258710   3.366   6.021   7.794
19490WAT      O58711   3.856   3.222   2.221
19490WAT     H158712   3.898   3.201   2.309
19490WAT     H258713   3.776   3.164   2.207
19491WAT      O58714   8.319   6.550   6.040
19491WAT     H158715   8.351   6.474   5.985
19491WAT     H258716   8.297   6.517   6.132
19492WAT      O58717   1.395   0.708   4.703
19492WAT     H158718   1.342   0.793   4.691
19492WAT     H258719   1.477   0.728   4.757
19493WAT      O58720   5.542   1.691   4.871
19493WAT     H158721   5.586   1.760   4.928
19493WAT     H258722   5.594   1.606   4.875
19494WAT      O58723   6.809   7.971   0.401
19494WAT     H158724   6.727   7.913   0.402
19494WAT     H258725   6.819   8.012   0.310
19495WAT      O58726   1.360   8.403   5.034
19495WAT     H158727   1.309   8.323   5.063
19495WAT     H258728   1.449   8.404   5.079
19496WAT      O58729   3.169   2.011   8.495
19496WAT     H158730   3.173   2.076   8.418
19496WAT     H258731   3.143   1.921   8.460
19497WAT      O58732   4.347   3.078   3.880
19497WAT     H158733   4.416   3.147   3.901
19497WAT     H258734   4.378   3.023   3.802
19498WAT      O58735   6.379   0.028   0.353
19498WAT     H158736   6.402  -0.047   0.291
19498WAT     H258737   6.378  -0.005   0.447
19499WAT      O58738   9.408   5.966   3.561
19499WAT     H158739   9.392   5.869   3.541
19499WAT     H258740   9.481   5.974   3.629
19500WAT      O58741   4.287   7.363   0.197
19500WAT     H158742   4.274   7.344   0.100
19500WAT     H258743   4.232   7.300   0.252
19501WAT      O58744   3.765   9.149   1.632
19501WAT     H158745   3.792   9.162   1.537
19501WAT     H258746   3.677   9.195   1.648
19502WAT      O58747   4.685   4.738   2.689
19502WAT     H158748   4.732   4.713   2.605
19502WAT     H258749   4.733   4.700   2.767
19503WAT      O58750   7.028   8.732   2.661
19503WAT     H158751   7.091   8.765   2.732
19503WAT     H258752   6.936   8.727   2.698
19504WAT      O58753   8.775   2.215   3.459
19504WAT     H158754   8.860   2.227   3.510
19504WAT     H258755   8.782   2.258   3.370
19505WAT      O58756   4.079   5.684   8.298
19505WAT     H158757   4.146   5.611   8.282
19505WAT     H258758   4.028   5.702   8.214
19506WAT      O58759   9.856   6.891   9.287
19506WAT     H158760   9.809   6.932   9.209
19506WAT     H258761   9.897   6.804   9.260
19507WAT      O58762   3.233   1.199   8.559
19507WAT     H158763   3.285   1.280   8.532
19507WAT     H258764   3.211   1.204   8.656
19508WAT      O58765   5.901   5.429   5.943
19508WAT     H158766   5.926   5.432   5.846
19508WAT     H258767   5.803   5.446   5.953
19509WAT      O58768   0.839   9.625   1.900
19509WAT     H158769   0.851   9.723   1.883
19509WAT     H258770   0.898   9.573   1.839
19510WAT      O58771   8.968   6.425   7.650
19510WAT     H158772   8.945   6.457   7.742
19510WAT     H258773   8.982   6.504   7.590
19511WAT      O58774   9.654   9.279   0.846
19511WAT     H158775   9.684   9.185   0.862
19511WAT     H258776   9.565   9.278   0.800
19512WAT      O58777   8.995   6.195   8.312
19512WAT     H158778   9.032   6.103   8.324
19512WAT     H258779   9.058   6.249   8.256
19513WAT      O58780   2.740   6.966   6.252
19513WAT     H158781   2.838   6.959   6.269
19513WAT     H258782   2.698   6.876   6.259
19514WAT      O58783   0.477   7.068   5.588
19514WAT     H158784   0.411   7.087   5.515
19514WAT     H258785   0.441   6.998   5.649
19515WAT      O58786   1.515   9.732   9.357
19515WAT     H158787   1.605   9.774   9.368
19515WAT     H258788   1.445   9.796   9.385
19516WAT      O58789   1.026   5.517   2.147
19516WAT     H158790   1.023   5.472   2.236
19516WAT     H258791   0.933   5.539   2.117
19517WAT      O58792   8.154   2.764   6.485
19517WAT     H158793   8.110   2.788   6.399
19517WAT     H258794   8.108   2.685   6.525
19518WAT      O58795   1.595   2.443   3.579
19518WAT     H158796   1.592   2.354   3.624
19518WAT     H258797   1.668   2.444   3.511
19519WAT      O58798   7.592   4.178   8.461
19519WAT     H158799   7.548   4.235   8.530
19519WAT     H258800   7.533   4.100   8.439
19520WAT      O58801   0.877   8.505   3.429
19520WAT     H158802   0.970   8.537   3.447
19520WAT     H258803   0.878   8.439   3.354
19521WAT      O58804   2.667   2.865   7.530
19521WAT     H158805   2.652   2.962   7.551
19521WAT     H258806   2.585   2.827   7.487
19522WAT      O58807   2.355   6.800   7.130
19522WAT     H158808   2.322   6.871   7.192
19522WAT     H258809   2.285   6.781   7.062
19523WAT      O58810   6.954   1.402   9.168
19523WAT     H158811   6.966   1.354   9.081
19523WAT     H258812   6.894   1.481   9.154
19524WAT      O58813   7.833   4.526   8.133
19524WAT     H158814   7.800   4.462   8.203
19524WAT     H258815   7.927   4.502   8.109
19525WAT      O58816   6.648   6.971   1.134
19525WAT     H158817   6.618   7.020   1.052
19525WAT     H258818   6.748   6.979   1.143
19526WAT      O58819   8.831   6.208   7.299
19526WAT     H158820   8.813   6.120   7.255
19526WAT     H258821   8.795   6.206   7.393
19527WAT      O58822   7.120   0.383   8.087
19527WAT     H158823   7.144   0.338   8.173
19527WAT     H258824   7.021   0.400   8.084
19528WAT      O58825   2.805   0.497   1.398
19528WAT     H158826   2.707   0.480   1.411
19528WAT     H258827   2.847   0.418   1.354
19529WAT      O58828   7.912   4.153   0.481
19529WAT     H158829   7.967   4.075   0.514
19529WAT     H258830   7.938   4.235   0.531
19530WAT      O58831   6.436   4.839   3.197
19530WAT     H158832   6.482   4.868   3.281
19530WAT     H258833   6.505   4.810   3.130
19531WAT      O58834   6.641   1.873   5.911
19531WAT     H158835   6.580   1.795   5.901
19531WAT     H258836   6.662   1.911   5.821
19532WAT      O58837   4.725   5.465   3.382
19532WAT     H158838   4.728   5.543   3.320
19532WAT     H258839   4.639   5.466   3.433
19533WAT      O58840   5.552   9.624   2.907
19533WAT     H158841   5.519   9.717   2.890
19533WAT     H258842   5.476   9.567   2.939
19534WAT      O58843   9.542   1.512   6.991
19534WAT     H158844   9.466   1.518   7.057
19534WAT     H258845   9.606   1.586   7.008
19535WAT      O58846   6.796   2.860   2.054
19535WAT     H158847   6.876   2.824   2.006
19535WAT     H258848   6.744   2.920   1.992
19536WAT      O58849   2.574   0.241   8.718
19536WAT     H158850   2.654   0.185   8.694
19536WAT     H258851   2.515   0.250   8.638
19537WAT      O58852   5.137   8.037   6.595
19537WAT     H158853   5.193   8.115   6.569
19537WAT     H258854   5.134   8.030   6.694
19538WAT      O58855   2.936   1.898   7.266
19538WAT     H158856   2.992   1.967   7.311
19538WAT     H258857   2.962   1.892   7.170
19539WAT      O58858   6.100   3.580   3.167
19539WAT     H158859   6.191   3.566   3.127
19539WAT     H258860   6.084   3.511   3.238
19540WAT      O58861   7.053   4.657   6.945
19540WAT     H158862   7.037   4.634   6.849
19540WAT     H258863   7.034   4.577   7.002
19541WAT      O58864   4.325   3.732   1.824
19541WAT     H158865   4.343   3.670   1.901
19541WAT     H258866   4.336   3.827   1.855
19542WAT      O58867   4.871   4.165   8.704
19542WAT     H158868   4.887   4.072   8.736
19542WAT     H258869   4.774   4.177   8.682
19543WAT      O58870   2.090   6.975   0.509
19543WAT     H158871   2.050   7.063   0.484
19543WAT     H258872   2.051   6.944   0.596
19544WAT      O58873   1.211   0.909   6.597
19544WAT     H158874   1.140   0.908   6.668
19544WAT     H258875   1.301   0.893   6.639
19545WAT      O58876   2.838   7.118   6.487
19545WAT     H158877   2.785   7.080   6.412
19545WAT     H258878   2.796   7.094   6.574
19546WAT      O58879   5.626   3.080   3.975
19546WAT     H158880   5.690   3.144   3.933
19546WAT     H258881   5.620   3.097   4.073
19547WAT      O58882   7.222   7.618   1.447
19547WAT     H158883   7.307   7.645   1.401
19547WAT     H258884   7.188   7.533   1.407
19548WAT      O58885   7.362   7.721   5.032
19548WAT     H158886   7.421   7.766   5.099
19548WAT     H258887   7.284   7.679   5.080
19549WAT      O58888   6.354   8.733   7.945
19549WAT     H158889   6.399   8.796   8.009
19549WAT     H258890   6.259   8.721   7.971
19550WAT      O58891   8.574   7.248   6.734
19550WAT     H158892   8.589   7.149   6.727
19550WAT     H258893   8.640   7.287   6.798
19551WAT      O58894   8.971   3.347   7.065
19551WAT     H158895   8.893   3.322   7.121
19551WAT     H258896   8.942   3.363   6.971
19552WAT      O58897   6.698   5.685   7.238
19552WAT     H158898   6.710   5.778   7.275
19552WAT     H258899   6.746   5.678   7.151
19553WAT      O58900   1.612   4.171   6.012
19553WAT     H158901   1.645   4.265   6.015
19553WAT     H258902   1.647   4.127   5.929
19554WAT      O58903   7.777   6.634   8.403
19554WAT     H158904   7.777   6.633   8.503
19554WAT     H258905   7.864   6.600   8.369
19555WAT      O58906   2.220   7.323   9.364
19555WAT     H158907   2.205   7.295   9.459
19555WAT     H258908   2.259   7.415   9.362
19556WAT      O58909   8.467   2.599   0.010
19556WAT     H158910   8.487   2.525  -0.054
19556WAT     H258911   8.372   2.592   0.041
19557WAT      O58912   0.934   4.919   2.253
19557WAT     H158913   0.980   4.832   2.266
19557WAT     H258914   0.872   4.936   2.331
19558WAT      O58915   4.879   5.502   0.744
19558WAT     H158916   4.812   5.455   0.687
19558WAT     H258917   4.963   5.515   0.692
19559WAT      O58918   3.907   3.023   1.471
19559WAT     H158919   3.833   3.021   1.538
19559WAT     H258920   3.882   2.967   1.392
19560WAT      O58921   5.118   0.541   4.440
19560WAT     H158922   5.110   0.507   4.346
19560WAT     H258923   5.027   0.553   4.479
19561WAT      O58924   2.748   0.667   4.360
19561WAT     H158925   2.742   0.575   4.320
19561WAT     H258926   2.789   0.730   4.294
19562WAT      O58927   8.701   3.033   5.161
19562WAT     H158928   8.640   3.113   5.155
19562WAT     H258929   8.735   3.024   5.254
19563WAT      O58930   3.718   4.006   8.584
19563WAT     H158931   3.779   3.938   8.544
19563WAT     H258932   3.758   4.041   8.669
19564WAT      O58933   4.390   8.131   9.697
19564WAT     H158934   4.305   8.108   9.744
19564WAT     H258935   4.410   8.061   9.628
19565WAT      O58936   8.031   6.477   9.171
19565WAT     H158937   8.084   6.435   9.097
19565WAT     H258938   7.971   6.548   9.133
19566WAT      O58939   2.137   8.052   7.222
19566WAT     H158940   2.076   8.131   7.228
19566WAT     H258941   2.084   7.968   7.234
19567WAT      O58942   3.207   5.986   4.690
19567WAT     H158943   3.123   6.009   4.640
19567WAT     H258944   3.228   6.058   4.756
19568WAT      O58945   5.963   8.391   5.314
19568WAT     H158946   6.041   8.434   5.270
19568WAT     H258947   5.936   8.310   5.263
19569WAT      O58948   7.560   5.313   4.123
19569WAT     H158949   7.537   5.298   4.027
19569WAT     H258950   7.476   5.333   4.174
19570WAT      O58951   3.522   9.716   1.925
19570WAT     H158952   3.487   9.648   1.861
19570WAT     H258953   3.542   9.672   2.013
19571WAT      O58954   0.752   2.112   8.711
19571WAT     H158955   0.759   2.172   8.632
19571WAT     H258956   0.660   2.072   8.714
19572WAT      O58957   1.865   4.905   3.211
19572WAT     H158958   1.814   4.981   3.170
19572WAT     H258959   1.824   4.880   3.298
19573WAT      O58960   6.207   9.111   1.102
19573WAT     H158961   6.144   9.173   1.055
19573WAT     H258962   6.290   9.101   1.048
19574WAT      O58963   5.530   7.534   6.920
19574WAT     H158964   5.455   7.536   6.854
19574WAT     H258965   5.613   7.570   6.877
19575WAT      O58966   9.285   9.730   6.353
19575WAT     H158967   9.374   9.756   6.314
19575WAT     H258968   9.234   9.677   6.286
19576WAT      O58969   0.065   7.839   6.339
19576WAT     H158970   0.070   7.878   6.430
19576WAT     H258971   0.093   7.743   6.342
19577WAT      O58972   3.352   1.851   9.877
19577WAT     H158973   3.371   1.754   9.884
19577WAT     H258974   3.281   1.876   9.943
19578WAT      O58975   4.629   6.010   4.958
19578WAT     H158976   4.657   6.047   5.046
19578WAT     H258977   4.531   6.025   4.944
19579WAT      O58978   6.285   1.822   1.991
19579WAT     H158979   6.337   1.897   2.031
19579WAT     H258980   6.309   1.737   2.039
19580WAT      O58981   1.542   8.760   1.364
19580WAT     H158982   1.527   8.785   1.268
19580WAT     H258983   1.500   8.827   1.424
19581WAT      O58984   6.984   3.550   1.612
19581WAT     H158985   6.919   3.625   1.612
19581WAT     H258986   7.070   3.580   1.653
19582WAT      O58987   7.341   4.154   0.867
19582WAT     H158988   7.415   4.163   0.801
19582WAT     H258989   7.334   4.237   0.922
19583WAT      O58990   9.525   9.315   8.773
19583WAT     H158991   9.471   9.273   8.846
19583WAT     H258992   9.601   9.366   8.812
19584WAT      O58993   6.702   3.022   3.691
19584WAT     H158994   6.795   2.996   3.717
19584WAT     H258995   6.637   2.958   3.732
19585WAT      O58996   1.848   5.642   2.807
19585WAT     H158997   1.753   5.611   2.810
19585WAT     H258998   1.885   5.627   2.715
19586WAT      O58999   0.595   2.886   3.398
19586WAT     H159000   0.526   2.914   3.331
19586WAT     H259001   0.570   2.922   3.488
19587WAT      O59002   2.376   3.375   2.855
19587WAT     H159003   2.399   3.306   2.925
19587WAT     H259004   2.320   3.447   2.897
19588WAT      O59005   2.093   7.599   3.561
19588WAT     H159006   2.166   7.602   3.629
19588WAT     H259007   2.133   7.594   3.470
19589WAT      O59008   2.849   4.284   7.027
19589WAT     H159009   2.826   4.208   6.965
19589WAT     H259010   2.812   4.264   7.118
19590WAT      O59011   1.067   8.167   2.899
19590WAT     H159012   0.982   8.219   2.889
19590WAT     H259013   1.100   8.177   2.993
19591WAT      O59014   8.713   7.223   3.781
19591WAT     H159015   8.630   7.238   3.834
19591WAT     H259016   8.690   7.170   3.699
19592WAT      O59017   5.382   0.253   8.610
19592WAT     H159018   5.377   0.158   8.579
19592WAT     H259019   5.456   0.299   8.562
19593WAT      O59020   0.901   9.384   9.009
19593WAT     H159021   0.843   9.303   9.008
19593WAT     H259022   0.988   9.364   8.964
19594WAT      O59023   6.742   5.612   8.094
19594WAT     H159024   6.817   5.546   8.082
19594WAT     H259025   6.742   5.645   8.188
19595WAT      O59026   6.612   6.604   6.236
19595WAT     H159027   6.661   6.542   6.174
19595WAT     H259028   6.678   6.664   6.282
19596WAT      O59029   3.182   4.330   8.870
19596WAT     H159030   3.122   4.407   8.891
19596WAT     H259031   3.226   4.298   8.953
19597WAT      O59032   2.559   0.267   7.891
19597WAT     H159033   2.504   0.306   7.817
19597WAT     H259034   2.596   0.340   7.948
19598WAT      O59035   9.091   1.350   1.219
19598WAT     H159036   8.992   1.344   1.206
19598WAT     H259037   9.113   1.338   1.316
19599WAT      O59038   8.395   1.301   8.395
19599WAT     H159039   8.459   1.298   8.473
19599WAT     H259040   8.380   1.396   8.369
19600WAT      O59041   7.451   1.556   9.341
19600WAT     H159042   7.451   1.644   9.389
19600WAT     H259043   7.358   1.536   9.309
19601WAT      O59044   5.465   6.701   5.483
19601WAT     H159045   5.519   6.785   5.483
19601WAT     H259046   5.508   6.633   5.543
19602WAT      O59047   6.673   8.341   5.212
19602WAT     H159048   6.731   8.374   5.137
19602WAT     H259049   6.648   8.246   5.195
19603WAT      O59050   9.258   2.623   3.215
19603WAT     H159051   9.180   2.662   3.264
19603WAT     H259052   9.243   2.633   3.116
19604WAT      O59053   4.907   7.631   6.044
19604WAT     H159054   4.902   7.716   6.097
19604WAT     H259055   4.817   7.610   6.006
19605WAT      O59056   6.620   5.227   6.271
19605WAT     H159057   6.653   5.202   6.179
19605WAT     H259058   6.594   5.143   6.320
19606WAT      O59059   2.841   1.492   6.549
19606WAT     H159060   2.774   1.437   6.499
19606WAT     H259061   2.855   1.579   6.501
19607WAT      O59062   3.944   8.891   1.373
19607WAT     H159063   3.945   8.825   1.298
19607WAT     H259064   3.915   8.846   1.457
19608WAT      O59065   2.942   5.873   0.117
19608WAT     H159066   2.940   5.775   0.095
19608WAT     H259067   2.851   5.911   0.109
19609WAT      O59068   8.585   0.594   0.882
19609WAT     H159069   8.499   0.554   0.849
19609WAT     H259070   8.579   0.694   0.876
19610WAT      O59071   5.621   1.995   5.897
19610WAT     H159072   5.587   2.039   5.981
19610WAT     H259073   5.570   1.910   5.881
19611WAT      O59074   8.890   8.906   6.369
19611WAT     H159075   8.799   8.949   6.364
19611WAT     H259076   8.951   8.964   6.423
19612WAT      O59077   3.162   0.109   3.444
19612WAT     H159078   3.131   0.128   3.351
19612WAT     H259079   3.093   0.140   3.509
19613WAT      O59080   1.677   3.591   6.767
19613WAT     H159081   1.647   3.686   6.770
19613WAT     H259082   1.752   3.581   6.701
19614WAT      O59083   3.181   7.608   0.954
19614WAT     H159084   3.220   7.661   0.879
19614WAT     H259085   3.207   7.650   1.041
19615WAT      O59086   6.011   8.388   6.643
19615WAT     H159087   5.941   8.363   6.710
19615WAT     H259088   5.985   8.473   6.598
19616WAT      O59089   9.588   0.206   8.518
19616WAT     H159090   9.680   0.242   8.533
19616WAT     H259091   9.594   0.115   8.478
19617WAT      O59092   7.335   7.257   8.193
19617WAT     H159093   7.358   7.165   8.223
19617WAT     H259094   7.247   7.256   8.145
19618WAT      O59095   4.563   6.359   4.256
19618WAT     H159096   4.471   6.333   4.286
19618WAT     H259097   4.593   6.440   4.308
19619WAT      O59098   8.277   6.231   4.118
19619WAT     H159099   8.251   6.265   4.028
19619WAT     H259100   8.377   6.233   4.127
19620WAT      O59101   5.034   6.553   1.180
19620WAT     H159102   5.075   6.570   1.090
19620WAT     H259103   5.070   6.619   1.245
19621WAT      O59104   8.174   3.449   6.423
19621WAT     H159105   8.118   3.478   6.501
19621WAT     H259106   8.262   3.496   6.426
19622WAT      O59107   5.404   4.766   4.220
19622WAT     H159108   5.360   4.798   4.135
19622WAT     H259109   5.482   4.825   4.241
19623WAT      O59110   2.093   2.677   4.618
19623WAT     H159111   1.993   2.679   4.614
19623WAT     H259112   2.130   2.655   4.528
19624WAT      O59113   0.426   5.709   4.293
19624WAT     H159114   0.413   5.619   4.251
19624WAT     H259115   0.344   5.765   4.278
19625WAT      O59116   3.131   6.907   7.799
19625WAT     H159117   3.116   6.996   7.755
19625WAT     H259118   3.192   6.918   7.878
19626WAT      O59119   9.328   5.123   6.333
19626WAT     H159120   9.326   5.188   6.410
19626WAT     H259121   9.422   5.105   6.307
19627WAT      O59122   5.723   2.699   3.064
19627WAT     H159123   5.678   2.764   3.124
19627WAT     H259124   5.657   2.631   3.033
19628WAT      O59125   9.290   5.597   6.010
19628WAT     H159126   9.214   5.551   5.965
19628WAT     H259127   9.276   5.595   6.109
19629WAT      O59128   8.160   8.339   6.331
19629WAT     H159129   8.088   8.342   6.401
19629WAT     H259130   8.123   8.301   6.247
19630WAT      O59131   4.067   5.838   4.859
19630WAT     H159132   4.015   5.891   4.926
19630WAT     H259133   4.138   5.786   4.906
19631WAT      O59134   8.537   2.154   3.922
19631WAT     H159135   8.472   2.176   3.996
19631WAT     H259136   8.607   2.092   3.958
19632WAT      O59137   3.973   6.456   1.250
19632WAT     H159138   4.053   6.458   1.190
19632WAT     H259139   4.002   6.465   1.345
19633WAT      O59140   0.061   0.680   1.228
19633WAT     H159141   0.045   0.641   1.318
19633WAT     H259142   0.072   0.779   1.236
19634WAT      O59143   3.997   8.964   1.025
19634WAT     H159144   3.990   8.881   1.081
19634WAT     H259145   4.085   9.009   1.044
19635WAT      O59146   7.578   2.356   5.733
19635WAT     H159147   7.515   2.426   5.765
19635WAT     H259148   7.617   2.308   5.811
19636WAT      O59149   5.528   5.838   7.796
19636WAT     H159150   5.547   5.897   7.875
19636WAT     H259151   5.510   5.745   7.828
19637WAT      O59152   7.668   7.759   2.340
19637WAT     H159153   7.677   7.784   2.437
19637WAT     H259154   7.587   7.702   2.328
19638WAT      O59155   5.945   6.794   0.232
19638WAT     H159156   5.991   6.872   0.275
19638WAT     H259157   6.000   6.711   0.244
19639WAT      O59158   4.050   1.932   7.279
19639WAT     H159159   4.111   1.977   7.214
19639WAT     H259160   3.974   1.891   7.230
19640WAT      O59161   1.014   5.080   4.938
19640WAT     H159162   1.006   4.982   4.954
19640WAT     H259163   0.923   5.122   4.935
19641WAT      O59164   4.015   0.815   9.627
19641WAT     H159165   3.983   0.890   9.570
19641WAT     H259166   4.065   0.749   9.571
19642WAT      O59167   5.209   7.533   1.326
19642WAT     H159168   5.218   7.621   1.374
19642WAT     H259169   5.224   7.458   1.391
19643WAT      O59170   4.925   4.279   1.096
19643WAT     H159171   4.858   4.352   1.107
19643WAT     H259172   4.953   4.245   1.186
19644WAT      O59173   0.696   3.470   6.171
19644WAT     H159174   0.703   3.401   6.243
19644WAT     H259175   0.670   3.426   6.085
19645WAT      O59176   8.756   0.341   2.193
19645WAT     H159177   8.784   0.436   2.206
19645WAT     H259178   8.726   0.327   2.098
19646WAT      O59179   4.912   3.362   6.673
19646WAT     H159180   5.006   3.330   6.664
19646WAT     H259181   4.891   3.426   6.599
19647WAT      O59182   3.569   2.250   9.410
19647WAT     H159183   3.646   2.194   9.441
19647WAT     H259184   3.528   2.209   9.329
19648WAT      O59185   0.967   9.754   8.536
19648WAT     H159186   1.021   9.713   8.462
19648WAT     H259187   0.981   9.702   8.620
19649WAT      O59188   0.020   0.695   8.137
19649WAT     H159189  -0.070   0.679   8.179
19649WAT     H259190   0.062   0.607   8.114
19650WAT      O59191   8.304   5.390   0.955
19650WAT     H159192   8.240   5.466   0.945
19650WAT     H259193   8.328   5.378   1.052
19651WAT      O59194   3.555   1.157   7.832
19651WAT     H159195   3.605   1.195   7.754
19651WAT     H259196   3.502   1.077   7.801
19652WAT      O59197   2.192   2.530   1.037
19652WAT     H159198   2.243   2.593   1.095
19652WAT     H259199   2.097   2.526   1.068
19653WAT      O59200   5.787   7.315   0.106
19653WAT     H159201   5.701   7.305   0.055
19653WAT     H259202   5.858   7.259   0.063
19654WAT      O59203   3.062   5.666   8.343
19654WAT     H159204   3.002   5.656   8.264
19654WAT     H259205   3.008   5.664   8.427
19655WAT      O59206   3.735   8.166   1.560
19655WAT     H159207   3.785   8.097   1.613
19655WAT     H259208   3.668   8.121   1.501
19656WAT      O59209   7.248   6.538   9.614
19656WAT     H159210   7.214   6.537   9.708
19656WAT     H259211   7.200   6.608   9.561
19657WAT      O59212   6.994   4.321   2.637
19657WAT     H159213   6.946   4.295   2.721
19657WAT     H259214   7.052   4.244   2.607
19658WAT      O59215   6.441   7.312   7.096
19658WAT     H159216   6.424   7.248   7.171
19658WAT     H259217   6.490   7.391   7.131
19659WAT      O59218   9.326   5.477   0.824
19659WAT     H159219   9.284   5.561   0.858
19659WAT     H259220   9.366   5.493   0.733
19660WAT      O59221   2.282   9.368   3.623
19660WAT     H159222   2.306   9.272   3.626
19660WAT     H259223   2.302   9.411   3.711
19661WAT      O59224   5.557   9.232   8.615
19661WAT     H159225   5.606   9.183   8.688
19661WAT     H259226   5.479   9.281   8.654
19662WAT      O59227   8.680   7.015   1.372
19662WAT     H159228   8.681   7.035   1.470
19662WAT     H259229   8.627   6.932   1.355
19663WAT      O59230   0.575   7.878   1.325
19663WAT     H159231   0.666   7.863   1.286
19663WAT     H259232   0.527   7.946   1.270
19664WAT      O59233   3.593   6.007   0.409
19664WAT     H159234   3.523   6.058   0.359
19664WAT     H259235   3.585   5.909   0.389
19665WAT      O59236   9.218   7.396   7.913
19665WAT     H159237   9.296   7.442   7.956
19665WAT     H259238   9.134   7.424   7.960
19666WAT      O59239   4.285   4.731   1.840
19666WAT     H159240   4.368   4.724   1.784
19666WAT     H259241   4.309   4.725   1.937
19667WAT      O59242   6.856   2.939   6.793
19667WAT     H159243   6.822   2.912   6.703
19667WAT     H259244   6.779   2.945   6.857
19668WAT      O59245   1.230   7.913   6.681
19668WAT     H159246   1.279   7.832   6.648
19668WAT     H259247   1.239   7.920   6.780
19669WAT      O59248   4.521   8.755   2.180
19669WAT     H159249   4.462   8.823   2.223
19669WAT     H259250   4.610   8.754   2.227
19670WAT      O59251   8.403   5.176   8.481
19670WAT     H159252   8.452   5.185   8.395
19670WAT     H259253   8.468   5.162   8.556
19671WAT      O59254   0.483   9.338   0.980
19671WAT     H159255   0.459   9.303   1.071
19671WAT     H259256   0.409   9.394   0.945
19672WAT      O59257   4.096   8.947   6.801
19672WAT     H159258   4.136   8.860   6.831
19672WAT     H259259   4.089   9.009   6.879
19673WAT      O59260   7.264   8.568   4.462
19673WAT     H159261   7.325   8.549   4.539
19673WAT     H259262   7.315   8.616   4.391
19674WAT      O59263   8.532   7.791   5.314
19674WAT     H159264   8.451   7.741   5.343
19674WAT     H259265   8.506   7.858   5.244
19675WAT      O59266   1.959   7.216   4.842
19675WAT     H159267   2.028   7.149   4.814
19675WAT     H259268   1.877   7.206   4.787
19676WAT      O59269   9.031   6.803   8.182
19676WAT     H159270   9.097   6.872   8.210
19676WAT     H259271   8.948   6.812   8.236
19677WAT      O59272   6.407   1.088   1.339
19677WAT     H159273   6.480   1.026   1.309
19677WAT     H259274   6.321   1.037   1.342
19678WAT      O59275   3.725   7.940   0.097
19678WAT     H159276   3.639   7.899   0.066
19678WAT     H259277   3.786   7.868   0.131
19679WAT      O59278   9.405   3.929   5.457
19679WAT     H159279   9.382   3.861   5.526
19679WAT     H259280   9.370   4.018   5.485
19680WAT      O59281   7.827   2.932   3.417
19680WAT     H159282   7.771   2.912   3.336
19680WAT     H259283   7.920   2.953   3.388
19681WAT      O59284   3.622   7.605   9.863
19681WAT     H159285   3.633   7.518   9.911
19681WAT     H259286   3.708   7.631   9.820
19682WAT      O59287   4.294   4.603   8.099
19682WAT     H159288   4.316   4.508   8.077
19682WAT     H259289   4.293   4.657   8.015
19683WAT      O59290   3.165   9.242   8.685
19683WAT     H159291   3.232   9.314   8.701
19683WAT     H259292   3.096   9.244   8.758
19684WAT      O59293   7.131   5.065   7.228
19684WAT     H159294   7.140   5.006   7.308
19684WAT     H259295   7.139   5.161   7.256
19685WAT      O59296   0.932   3.866   8.507
19685WAT     H159297   1.020   3.819   8.496
19685WAT     H259298   0.861   3.798   8.529
19686WAT      O59299   1.558   2.763   7.771
19686WAT     H159300   1.492   2.794   7.840
19686WAT     H259301   1.510   2.741   7.686
19687WAT      O59302   3.740   9.818   8.383
19687WAT     H159303   3.668   9.829   8.453
19687WAT     H259304   3.830   9.829   8.426
19688WAT      O59305   1.065   1.847   4.799
19688WAT     H159306   1.135   1.893   4.854
19688WAT     H259307   1.038   1.762   4.843
19689WAT      O59308   7.485   6.489   1.251
19689WAT     H159309   7.444   6.398   1.262
19689WAT     H259310   7.556   6.502   1.319
19690WAT      O59311   4.108   7.315   2.101
19690WAT     H159312   4.067   7.227   2.076
19690WAT     H259313   4.044   7.368   2.156
19691WAT      O59314   7.277   3.797   0.545
19691WAT     H159315   7.321   3.781   0.634
19691WAT     H259316   7.232   3.886   0.546
19692WAT      O59317   3.190   0.569   1.830
19692WAT     H159318   3.221   0.594   1.922
19692WAT     H259319   3.140   0.646   1.790
19693WAT      O59320   8.039   1.325   2.813
19693WAT     H159321   7.940   1.314   2.813
19693WAT     H259322   8.078   1.281   2.732
19694WAT      O59323   1.483   7.411   4.555
19694WAT     H159324   1.541   7.486   4.586
19694WAT     H259325   1.472   7.344   4.629
19695WAT      O59326   1.497   3.256   1.339
19695WAT     H159327   1.529   3.292   1.426
19695WAT     H259328   1.553   3.177   1.312
19696WAT      O59329   4.829   5.407   6.190
19696WAT     H159330   4.928   5.425   6.192
19696WAT     H259331   4.808   5.334   6.255
19697WAT      O59332   4.226   8.946   4.187
19697WAT     H159333   4.221   9.043   4.164
19697WAT     H259334   4.322   8.917   4.188
19698WAT      O59335   7.815   9.780   0.384
19698WAT     H159336   7.856   9.779   0.475
19698WAT     H259337   7.863   9.715   0.325
19699WAT      O59338   0.299   5.203   5.704
19699WAT     H159339   0.323   5.204   5.801
19699WAT     H259340   0.261   5.113   5.681
19700WAT      O59341   5.270   2.172   8.656
19700WAT     H159342   5.200   2.110   8.693
19700WAT     H259343   5.242   2.203   8.565
19701WAT      O59344   8.197   5.443   5.822
19701WAT     H159345   8.105   5.404   5.810
19701WAT     H259346   8.189   5.535   5.860
19702WAT      O59347   5.313   9.015   0.307
19702WAT     H159348   5.359   8.926   0.310
19702WAT     H259349   5.253   9.018   0.227
19703WAT      O59350   9.347   0.923   4.647
19703WAT     H159351   9.286   0.999   4.666
19703WAT     H259352   9.322   0.844   4.704
19704WAT      O59353   7.117   3.866   3.057
19704WAT     H159354   7.117   3.843   3.154
19704WAT     H259355   7.208   3.848   3.019
19705WAT      O59356   3.992   1.273   4.031
19705WAT     H159357   4.038   1.268   3.943
19705WAT     H259358   4.012   1.361   4.074
19706WAT      O59359   7.447   1.843   2.462
19706WAT     H159360   7.355   1.805   2.460
19706WAT     H259361   7.498   1.812   2.381
19707WAT      O59362   5.924   7.517   2.688
19707WAT     H159363   5.908   7.422   2.715
19707WAT     H259364   5.840   7.555   2.648
19708WAT      O59365   0.988   5.606   2.818
19708WAT     H159366   0.893   5.596   2.788
19708WAT     H259367   1.037   5.668   2.757
19709WAT      O59368   7.961   1.858   4.847
19709WAT     H159369   7.969   1.760   4.867
19709WAT     H259370   8.053   1.897   4.838
19710WAT      O59371   8.674   0.998   3.071
19710WAT     H159372   8.662   1.063   3.145
19710WAT     H259373   8.589   0.947   3.056
19711WAT      O59374   3.819   2.419   4.404
19711WAT     H159375   3.777   2.487   4.464
19711WAT     H259376   3.748   2.374   4.350
19712WAT      O59377   5.021   6.504   7.642
19712WAT     H159378   5.081   6.456   7.706
19712WAT     H259379   4.926   6.488   7.667
19713WAT      O59380   9.133   8.842   2.115
19713WAT     H159381   9.153   8.933   2.152
19713WAT     H259382   9.184   8.828   2.031
19714WAT      O59383   6.625   4.041   0.197
19714WAT     H159384   6.603   4.107   0.126
19714WAT     H259385   6.690   3.974   0.162
19715WAT      O59386   6.525   5.898   2.915
19715WAT     H159387   6.467   5.868   2.839
19715WAT     H259388   6.560   5.819   2.964
19716WAT      O59389   4.593   1.080   6.930
19716WAT     H159390   4.676   1.087   6.874
19716WAT     H259391   4.617   1.049   7.022
19717WAT      O59392   6.820   0.603   4.131
19717WAT     H159393   6.892   0.661   4.093
19717WAT     H259394   6.820   0.610   4.231
19718WAT      O59395   2.482   7.326   1.681
19718WAT     H159396   2.386   7.333   1.708
19718WAT     H259397   2.488   7.323   1.581
19719WAT      O59398   2.563   2.591   8.737
19719WAT     H159399   2.535   2.530   8.663
19719WAT     H259400   2.656   2.624   8.720
19720WAT      O59401   9.437   6.346   0.732
19720WAT     H159402   9.355   6.401   0.718
19720WAT     H259403   9.508   6.403   0.773
19721WAT      O59404   9.683   2.510   2.737
19721WAT     H159405   9.752   2.501   2.808
19721WAT     H259406   9.658   2.420   2.703
19722WAT      O59407   5.940   4.339   1.076
19722WAT     H159408   5.953   4.265   1.142
19722WAT     H259409   6.010   4.333   1.005
19723WAT      O59410   5.080   6.367   2.954
19723WAT     H159411   4.998   6.393   2.902
19723WAT     H259412   5.052   6.314   3.034
19724WAT      O59413   6.807   7.826   9.081
19724WAT     H159414   6.887   7.840   9.138
19724WAT     H259415   6.786   7.910   9.031
19725WAT      O59416   7.994   2.153   7.865
19725WAT     H159417   8.068   2.206   7.822
19725WAT     H259418   7.910   2.208   7.865
19726WAT      O59419   8.613   2.487   7.160
19726WAT     H159420   8.680   2.543   7.209
19726WAT     H259421   8.628   2.498   7.061
19727WAT      O59422   3.705   3.671   7.236
19727WAT     H159423   3.624   3.656   7.179
19727WAT     H259424   3.783   3.694   7.177
19728WAT      O59425   9.368   3.934   7.172
19728WAT     H159426   9.451   3.891   7.207
19728WAT     H259427   9.289   3.904   7.227
19729WAT      O59428   4.147   3.169   6.716
19729WAT     H159429   4.071   3.142   6.656
19729WAT     H259430   4.231   3.177   6.662
19730WAT      O59431   0.990   1.621   1.568
19730WAT     H159432   1.033   1.699   1.612
19730WAT     H259433   0.899   1.606   1.609
19731WAT      O59434   0.734   3.866   9.536
19731WAT     H159435   0.789   3.791   9.569
19731WAT     H259436   0.674   3.899   9.609
19732WAT      O59437   0.507   1.151   2.006
19732WAT     H159438   0.428   1.132   2.064
19732WAT     H259439   0.579   1.193   2.061
19733WAT      O59440   6.821   8.252   6.578
19733WAT     H159441   6.772   8.206   6.652
19733WAT     H259442   6.775   8.232   6.491
19734WAT      O59443   8.150   0.923   6.161
19734WAT     H159444   8.198   0.884   6.082
19734WAT     H259445   8.201   1.002   6.195
19735WAT      O59446   6.820   2.961   0.359
19735WAT     H159447   6.905   3.012   0.358
19735WAT     H259448   6.810   2.914   0.447
19736WAT      O59449   2.637   3.511   3.076
19736WAT     H159450   2.654   3.465   2.989
19736WAT     H259451   2.538   3.524   3.087
19737WAT      O59452   6.374   7.498   5.741
19737WAT     H159453   6.318   7.424   5.705
19737WAT     H259454   6.422   7.468   5.824
19738WAT      O59455   1.179   3.463   8.782
19738WAT     H159456   1.242   3.400   8.737
19738WAT     H259457   1.225   3.551   8.798
19739WAT      O59458   6.036   0.348   6.468
19739WAT     H159459   6.082   0.436   6.469
19739WAT     H259460   6.103   0.274   6.467
19740WAT      O59461   8.958   1.578   4.688
19740WAT     H159462   9.014   1.504   4.726
19740WAT     H259463   8.981   1.664   4.733
19741WAT      O59464   1.951   9.773   1.862
19741WAT     H159465   1.966   9.872   1.856
19741WAT     H259466   1.976   9.741   1.953
19742WAT      O59467   3.816   8.391   9.396
19742WAT     H159468   3.898   8.423   9.348
19742WAT     H259469   3.817   8.292   9.403
19743WAT      O59470   4.196   1.177   4.478
19743WAT     H159471   4.162   1.135   4.393
19743WAT     H259472   4.152   1.134   4.556
19744WAT      O59473   4.116   7.821   1.210
19744WAT     H159474   4.053   7.768   1.267
19744WAT     H259475   4.102   7.919   1.226
19745WAT      O59476   8.871   7.092   9.083
19745WAT     H159477   8.813   7.033   9.139
19745WAT     H259478   8.954   7.042   9.056
19746WAT      O59479   5.307   0.265   4.756
19746WAT     H159480   5.366   0.331   4.802
19746WAT     H259481   5.266   0.203   4.824
19747WAT      O59482   9.737   2.401   4.372
19747WAT     H159483   9.814   2.392   4.435
19747WAT     H259484   9.714   2.498   4.360
19748WAT      O59485   7.864   8.696   3.421
19748WAT     H159486   7.888   8.716   3.516
19748WAT     H259487   7.947   8.695   3.365
19749WAT      O59488   8.779   7.141   5.254
19749WAT     H159489   8.724   7.064   5.285
19749WAT     H259490   8.795   7.203   5.331
19750WAT      O59491   9.200   6.739   5.287
19750WAT     H159492   9.208   6.710   5.382
19750WAT     H259493   9.125   6.805   5.278
19751WAT      O59494   2.727   4.163   9.505
19751WAT     H159495   2.803   4.226   9.487
19751WAT     H259496   2.702   4.116   9.421
19752WAT      O59497   6.293   5.830   4.776
19752WAT     H159498   6.357   5.884   4.831
19752WAT     H259499   6.200   5.847   4.809
19753WAT      O59500   4.052   8.290   9.195
19753WAT     H159501   4.055   8.363   9.126
19753WAT     H259502   4.124   8.224   9.177
19754WAT      O59503   2.675   7.376   3.599
19754WAT     H159504   2.719   7.465   3.583
19754WAT     H259505   2.629   7.346   3.515
19755WAT      O59506   3.383   3.178   9.711
19755WAT     H159507   3.392   3.234   9.793
19755WAT     H259508   3.472   3.171   9.666
19756WAT      O59509   7.602   4.742   6.141
19756WAT     H159510   7.538   4.816   6.159
19756WAT     H259511   7.638   4.750   6.048
19757WAT      O59512   0.452   9.334   1.725
19757WAT     H159513   0.381   9.311   1.792
19757WAT     H259514   0.521   9.392   1.769
19758WAT      O59515   9.727   7.009   3.026
19758WAT     H159516   9.726   6.982   3.123
19758WAT     H259517   9.814   6.983   2.985
19759WAT      O59518   4.390   3.484   3.894
19759WAT     H159519   4.322   3.551   3.924
19759WAT     H259520   4.467   3.532   3.851
19760WAT      O59521   9.459   4.796   3.883
19760WAT     H159522   9.501   4.878   3.844
19760WAT     H259523   9.470   4.719   3.819
19761WAT      O59524   2.829   8.034   1.274
19761WAT     H159525   2.929   8.028   1.273
19761WAT     H259526   2.794   7.989   1.356
19762WAT      O59527   9.153   1.161   3.388
19762WAT     H159528   9.192   1.170   3.480
19762WAT     H259529   9.067   1.211   3.384
19763WAT      O59530   1.313   7.385   0.578
19763WAT     H159531   1.409   7.370   0.601
19763WAT     H259532   1.306   7.426   0.487
19764WAT      O59533   3.357   7.511   2.662
19764WAT     H159534   3.287   7.456   2.707
19764WAT     H259535   3.368   7.481   2.567
19765WAT      O59536   5.658   7.751   3.579
19765WAT     H159537   5.705   7.795   3.655
19765WAT     H259538   5.605   7.819   3.528
19766WAT      O59539   9.555   1.313   4.757
19766WAT     H159540   9.541   1.258   4.675
19766WAT     H259541   9.466   1.347   4.789
19767WAT      O59542   0.400   4.244   7.866
19767WAT     H159543   0.434   4.216   7.956
19767WAT     H259544   0.365   4.165   7.817
19768WAT      O59545   8.348   9.650   3.741
19768WAT     H159546   8.367   9.707   3.821
19768WAT     H259547   8.421   9.662   3.673
19769WAT      O59548   6.094   5.435   4.885
19769WAT     H159549   6.155   5.407   4.959
19769WAT     H259550   6.148   5.452   4.803
19770WAT      O59551   6.288   5.134   7.131
19770WAT     H159552   6.320   5.195   7.203
19770WAT     H259553   6.345   5.051   7.129
19771WAT      O59554   9.858   1.674   2.844
19771WAT     H159555   9.883   1.769   2.857
19771WAT     H259556   9.782   1.650   2.904
19772WAT      O59557   4.186   2.850   2.375
19772WAT     H159558   4.265   2.793   2.357
19772WAT     H259559   4.193   2.935   2.322
19773WAT      O59560   3.038   4.868   8.316
19773WAT     H159561   3.099   4.937   8.355
19773WAT     H259562   2.946   4.879   8.354
19774WAT      O59563   1.369   8.651   9.649
19774WAT     H159564   1.392   8.555   9.633
19774WAT     H259565   1.445   8.697   9.695
19775WAT      O59566   0.229   6.837   4.269
19775WAT     H159567   0.297   6.877   4.208
19775WAT     H259568   0.142   6.828   4.222
19776WAT      O59569   3.613   7.559   1.081
19776WAT     H159570   3.674   7.535   1.156
19776WAT     H259571   3.518   7.559   1.114
19777WAT      O59572   0.746   3.709   1.854
19777WAT     H159573   0.663   3.736   1.903
19777WAT     H259574   0.812   3.671   1.919
19778WAT      O59575   1.196   4.846   0.766
19778WAT     H159576   1.256   4.766   0.756
19778WAT     H259577   1.251   4.929   0.766
19779WAT      O59578   8.512   7.225   3.944
19779WAT     H159579   8.506   7.126   3.955
19779WAT     H259580   8.518   7.268   4.035
19780WAT      O59581   3.871   7.962   4.539
19780WAT     H159582   3.865   7.950   4.440
19780WAT     H259583   3.861   8.059   4.562
19781WAT      O59584   0.757   2.323   2.158
19781WAT     H159585   0.721   2.244   2.207
19781WAT     H259586   0.852   2.305   2.131
19782WAT      O59587   6.191   8.732   8.611
19782WAT     H159588   6.160   8.690   8.525
19782WAT     H259589   6.290   8.722   8.618
19783WAT      O59590   5.610   9.093   2.942
19783WAT     H159591   5.541   9.031   2.980
19783WAT     H259592   5.700   9.067   2.977
19784WAT      O59593   2.683   5.245   2.577
19784WAT     H159594   2.669   5.235   2.675
19784WAT     H259595   2.758   5.186   2.548
19785WAT      O59596   5.028   6.805   6.662
19785WAT     H159597   4.981   6.872   6.604
19785WAT     H259598   5.041   6.843   6.754
19786WAT      O59599   1.402   3.647   3.619
19786WAT     H159600   1.308   3.621   3.641
19786WAT     H259601   1.404   3.743   3.590
19787WAT      O59602   9.039   6.348   9.166
19787WAT     H159603   8.969   6.277   9.155
19787WAT     H259604   9.129   6.304   9.171
19788WAT      O59605   4.882   9.561   2.452
19788WAT     H159606   4.919   9.481   2.404
19788WAT     H259607   4.958   9.615   2.489
19789WAT      O59608   5.257   5.710   7.705
19789WAT     H159609   5.315   5.790   7.717
19789WAT     H259610   5.309   5.628   7.730
19790WAT      O59611   2.418   9.540   4.436
19790WAT     H159612   2.419   9.544   4.336
19790WAT     H259613   2.366   9.459   4.465
19791WAT      O59614   4.099   9.584   0.659
19791WAT     H159615   4.047   9.636   0.727
19791WAT     H259616   4.047   9.578   0.574
19792WAT      O59617   4.712   3.644   5.586
19792WAT     H159618   4.722   3.559   5.637
19792WAT     H259619   4.712   3.721   5.649
19793WAT      O59620   1.655   0.430   6.802
19793WAT     H159621   1.574   0.389   6.760
19793WAT     H259622   1.732   0.367   6.795
19794WAT      O59623   7.058   7.736   7.244
19794WAT     H159624   7.022   7.729   7.151
19794WAT     H259625   7.010   7.672   7.304
19795WAT      O59626   4.179   6.970   7.030
19795WAT     H159627   4.140   6.947   7.120
19795WAT     H259628   4.137   7.055   6.998
19796WAT      O59629   9.476   6.010   1.506
19796WAT     H159630   9.414   5.932   1.506
19796WAT     H259631   9.439   6.083   1.448
19797WAT      O59632   2.043   1.592   8.774
19797WAT     H159633   2.037   1.688   8.744
19797WAT     H259634   1.954   1.563   8.809
19798WAT      O59635   4.610   6.668   2.707
19798WAT     H159636   4.617   6.638   2.802
19798WAT     H259637   4.520   6.644   2.671
19799WAT      O59638   6.104   4.970   0.089
19799WAT     H159639   6.194   4.929   0.102
19799WAT     H259640   6.044   4.906   0.040
19800WAT      O59641   9.716   6.543   0.235
19800WAT     H159642   9.631   6.507   0.275
19800WAT     H259643   9.721   6.641   0.250
19801WAT      O59644   3.591   1.567   0.406
19801WAT     H159645   3.584   1.560   0.307
19801WAT     H259646   3.527   1.503   0.448
19802WAT      O59647   5.285   7.293   9.106
19802WAT     H159648   5.281   7.195   9.124
19802WAT     H259649   5.194   7.332   9.116
19803WAT      O59650   4.678   0.419   7.633
19803WAT     H159651   4.652   0.500   7.581
19803WAT     H259652   4.750   0.369   7.585
19804WAT      O59653   4.043   6.293   1.756
19804WAT     H159654   3.996   6.205   1.752
19804WAT     H259655   4.142   6.278   1.754
19805WAT      O59656   7.656   4.572   9.326
19805WAT     H159657   7.680   4.556   9.422
19805WAT     H259658   7.557   4.562   9.315
19806WAT      O59659   9.535   8.701   9.011
19806WAT     H159660   9.455   8.710   9.070
19806WAT     H259661   9.569   8.791   8.986
19807WAT      O59662   7.177   3.326   1.322
19807WAT     H159663   7.229   3.256   1.370
19807WAT     H259664   7.083   3.327   1.356
19808WAT      O59665   0.391   1.091   1.015
19808WAT     H159666   0.459   1.161   0.991
19808WAT     H259667   0.304   1.115   0.974
19809WAT      O59668   7.252   2.787   8.087
19809WAT     H159669   7.311   2.808   8.165
19809WAT     H259670   7.158   2.775   8.119
19810WAT      O59671   9.299   2.945   2.346
19810WAT     H159672   9.357   2.867   2.322
19810WAT     H259673   9.230   2.915   2.412
19811WAT      O59674   4.781   8.592   2.493
19811WAT     H159675   4.773   8.673   2.436
19811WAT     H259676   4.697   8.579   2.545
19812WAT      O59677   0.992   8.273   3.646
19812WAT     H159678   0.899   8.310   3.644
19812WAT     H259679   1.012   8.236   3.736
19813WAT      O59680   4.947   0.887   8.164
19813WAT     H159681   4.950   0.977   8.121
19813WAT     H259682   5.027   0.834   8.139
19814WAT      O59683   2.008   9.168   7.658
19814WAT     H159684   2.003   9.254   7.710
19814WAT     H259685   1.992   9.186   7.561
19815WAT      O59686   4.340   5.190   9.446
19815WAT     H159687   4.413   5.258   9.438
19815WAT     H259688   4.325   5.146   9.357
19816WAT      O59689   1.406   2.342   9.808
19816WAT     H159690   1.474   2.302   9.747
19816WAT     H259691   1.315   2.314   9.779
19817WAT      O59692   5.697   2.031   7.774
19817WAT     H159693   5.698   1.941   7.730
19817WAT     H259694   5.691   2.019   7.873
19818WAT      O59695   1.813   5.054   7.990
19818WAT     H159696   1.873   4.996   7.935
19818WAT     H259697   1.761   5.115   7.930
19819WAT      O59698   3.876   0.646   3.985
19819WAT     H159699   3.900   0.570   3.925
19819WAT     H259700   3.922   0.729   3.953
19820WAT      O59701   9.460   2.368   1.307
19820WAT     H159702   9.422   2.336   1.393
19820WAT     H259703   9.560   2.365   1.311
19821WAT      O59704   7.195   3.848   7.775
19821WAT     H159705   7.174   3.776   7.708
19821WAT     H259706   7.127   3.846   7.848
19822WAT      O59707   8.418   1.045   9.711
19822WAT     H159708   8.448   0.993   9.631
19822WAT     H259709   8.335   1.002   9.748
19823WAT      O59710   2.979   3.731   6.631
19823WAT     H159711   2.957   3.801   6.698
19823WAT     H259712   2.974   3.641   6.673
19824WAT      O59713   6.770   7.609   1.319
19824WAT     H159714   6.837   7.659   1.374
19824WAT     H259715   6.797   7.513   1.312
19825WAT      O59716   8.573   9.149   5.686
19825WAT     H159717   8.544   9.208   5.611
19825WAT     H259718   8.517   9.066   5.687
19826WAT      O59719   7.054   6.529   3.964
19826WAT     H159720   7.032   6.469   3.887
19826WAT     H259721   7.105   6.608   3.930
19827WAT      O59722   1.040   6.134   8.562
19827WAT     H159723   0.964   6.164   8.504
19827WAT     H259724   1.096   6.213   8.586
19828WAT      O59725   5.451   1.617   4.544
19828WAT     H159726   5.380   1.687   4.552
19828WAT     H259727   5.500   1.628   4.458
19829WAT      O59728   4.172   5.229   2.155
19829WAT     H159729   4.111   5.305   2.178
19829WAT     H259730   4.136   5.181   2.075
19830WAT      O59731   5.672   8.078   9.542
19830WAT     H159732   5.722   7.991   9.536
19830WAT     H259733   5.618   8.092   9.459
19831WAT      O59734   9.842   5.175   0.479
19831WAT     H159735   9.862   5.078   0.488
19831WAT     H259736   9.743   5.189   0.482
19832WAT      O59737   7.255   4.370   5.081
19832WAT     H159738   7.249   4.454   5.135
19832WAT     H259739   7.251   4.291   5.142
19833WAT      O59740   9.173   7.267   9.710
19833WAT     H159741   9.159   7.363   9.687
19833WAT     H259742   9.270   7.244   9.698
19834WAT      O59743   2.831   3.232   3.367
19834WAT     H159744   2.784   3.214   3.280
19834WAT     H259745   2.878   3.320   3.361
19835WAT      O59746   4.269   8.061   6.221
19835WAT     H159747   4.254   8.097   6.129
19835WAT     H259748   4.197   8.095   6.282
19836WAT      O59749   9.226   2.144   2.248
19836WAT     H159750   9.320   2.150   2.280
19836WAT     H259751   9.216   2.198   2.164
19837WAT      O59752   4.874   7.435   6.822
19837WAT     H159753   4.847   7.373   6.896
19837WAT     H259754   4.851   7.394   6.734
19838WAT      O59755   8.644   7.459   3.400
19838WAT     H159756   8.606   7.371   3.371
19838WAT     H259757   8.583   7.501   3.468
19839WAT      O59758   1.719   6.811   0.636
19839WAT     H159759   1.647   6.795   0.703
19839WAT     H259760   1.781   6.732   0.635
19840WAT      O59761   1.640   7.256   3.982
19840WAT     H159762   1.717   7.265   4.045
19840WAT     H259763   1.571   7.194   4.022
19841WAT      O59764   9.754   6.357   6.061
19841WAT     H159765   9.740   6.354   5.962
19841WAT     H259766   9.702   6.433   6.100
19842WAT      O59767   6.306   6.641   2.470
19842WAT     H159768   6.315   6.705   2.393
19842WAT     H259769   6.361   6.560   2.452
19843WAT      O59770   7.703   9.184   3.734
19843WAT     H159771   7.785   9.159   3.681
19843WAT     H259772   7.681   9.280   3.717
19844WAT      O59773   4.205   4.251   5.248
19844WAT     H159774   4.247   4.252   5.338
19844WAT     H259775   4.106   4.244   5.257
19845WAT      O59776   9.268   8.559   8.115
19845WAT     H159777   9.361   8.572   8.149
19845WAT     H259778   9.205   8.613   8.171
19846WAT      O59779   0.800   1.486   6.674
19846WAT     H159780   0.835   1.532   6.593
19846WAT     H259781   0.702   1.468   6.663
19847WAT      O59782   3.874   9.110   4.111
19847WAT     H159783   3.924   9.153   4.036
19847WAT     H259784   3.820   9.179   4.159
19848WAT      O59785   6.109   7.612   0.481
19848WAT     H159786   6.114   7.520   0.442
19848WAT     H259787   6.063   7.673   0.416
19849WAT      O59788   3.981   1.272   3.315
19849WAT     H159789   3.944   1.181   3.335
19849WAT     H259790   4.010   1.277   3.220
19850WAT      O59791   2.723   8.503   9.689
19850WAT     H159792   2.735   8.447   9.771
19850WAT     H259793   2.805   8.558   9.673
19851WAT      O59794   3.826   6.463   8.933
19851WAT     H159795   3.897   6.402   8.898
19851WAT     H259796   3.770   6.496   8.858
19852WAT      O59797   0.460   7.625   2.918
19852WAT     H159798   0.415   7.712   2.895
19852WAT     H259799   0.438   7.601   3.012
19853WAT      O59800   2.551   5.497   6.319
19853WAT     H159801   2.620   5.431   6.348
19853WAT     H259802   2.530   5.558   6.396
19854WAT      O59803   0.388   3.072   7.214
19854WAT     H159804   0.308   3.122   7.246
19854WAT     H259805   0.419   3.110   7.127
19855WAT      O59806   7.375   3.984   8.421
19855WAT     H159807   7.340   3.996   8.328
19855WAT     H259808   7.393   3.887   8.437
19856WAT      O59809   7.974   7.818   6.338
19856WAT     H159810   8.029   7.898   6.312
19856WAT     H259811   8.018   7.735   6.303
19857WAT      O59812   8.515   6.484   9.096
19857WAT     H159813   8.461   6.402   9.077
19857WAT     H259814   8.491   6.520   9.186
19858WAT      O59815   9.610   6.922   1.894
19858WAT     H159816   9.553   6.847   1.860
19858WAT     H259817   9.665   6.958   1.819
19859WAT      O59818   2.527   1.172   8.962
19859WAT     H159819   2.515   1.122   9.048
19859WAT     H259820   2.623   1.195   8.950
19860WAT      O59821   7.553   9.515   4.439
19860WAT     H159822   7.471   9.496   4.493
19860WAT     H259823   7.634   9.495   4.493
19861WAT      O59824   5.385   2.486   0.826
19861WAT     H159825   5.326   2.408   0.848
19861WAT     H259826   5.337   2.571   0.844
19862WAT      O59827   3.626   9.556   7.195
19862WAT     H159828   3.617   9.561   7.096
19862WAT     H259829   3.664   9.641   7.230
19863WAT      O59830   2.789   5.110   7.240
19863WAT     H159831   2.879   5.154   7.249
19863WAT     H259832   2.749   5.134   7.151
19864WAT      O59833   4.082   2.707   7.565
19864WAT     H159834   4.014   2.745   7.502
19864WAT     H259835   4.110   2.778   7.630
19865WAT      O59836   3.394   0.072   6.948
19865WAT     H159837   3.337   0.017   7.008
19865WAT     H259838   3.467   0.015   6.910
19866WAT      O59839   9.366   0.531   0.128
19866WAT     H159840   9.320   0.445   0.105
19866WAT     H259841   9.455   0.512   0.169
19867WAT      O59842   6.631   4.243   4.604
19867WAT     H159843   6.703   4.198   4.552
19867WAT     H259844   6.635   4.214   4.700
19868WAT      O59845   5.568   9.678   1.204
19868WAT     H159846   5.535   9.627   1.124
19868WAT     H259847   5.507   9.661   1.282
19869WAT      O59848   2.200   6.302   9.036
19869WAT     H159849   2.252   6.278   9.118
19869WAT     H259850   2.230   6.244   8.960
19870WAT      O59851   5.867   4.801   0.402
19870WAT     H159852   5.810   4.719   0.409
19870WAT     H259853   5.909   4.821   0.490
19871WAT      O59854   8.901   2.622   8.605
19871WAT     H159855   8.975   2.581   8.553
19871WAT     H259856   8.838   2.669   8.543
19872WAT      O59857   9.704   1.090   2.089
19872WAT     H159858   9.650   1.014   2.051
19872WAT     H259859   9.801   1.075   2.069
19873WAT      O59860   3.004   2.399   4.088
19873WAT     H159861   3.026   2.376   4.183
19873WAT     H259862   3.011   2.498   4.076
19874WAT      O59863   1.934   0.425   4.860
19874WAT     H159864   2.031   0.399   4.863
19874WAT     H259865   1.888   0.372   4.789
19875WAT      O59866   2.514   6.822   5.500
19875WAT     H159867   2.451   6.791   5.428
19875WAT     H259868   2.530   6.920   5.491
19876WAT      O59869   7.056   4.378   8.400
19876WAT     H159870   7.020   4.372   8.494
19876WAT     H259871   7.001   4.320   8.340
19877WAT      O59872   6.409   0.212   0.132
19877WAT     H159873   6.370   0.159   0.207
19877WAT     H259874   6.421   0.153   0.052
19878WAT      O59875   8.988   9.061   7.425
19878WAT     H159876   8.932   9.056   7.507
19878WAT     H259877   8.936   9.027   7.347
19879WAT      O59878   5.099   3.729   1.633
19879WAT     H159879   5.158   3.706   1.711
19879WAT     H259880   5.010   3.685   1.645
19880WAT      O59881   2.116   4.525   3.906
19880WAT     H159882   2.113   4.596   3.836
19880WAT     H259883   2.085   4.439   3.867
19881WAT      O59884   6.034   7.657   2.915
19881WAT     H159885   6.049   7.751   2.885
19881WAT     H259886   5.998   7.602   2.839
19882WAT      O59887   3.083   1.502   0.783
19882WAT     H159888   2.998   1.504   0.835
19882WAT     H259889   3.161   1.506   0.845
19883WAT      O59890   4.587   2.362   9.661
19883WAT     H159891   4.605   2.361   9.760
19883WAT     H259892   4.548   2.451   9.636
19884WAT      O59893   4.787   7.243   0.616
19884WAT     H159894   4.787   7.271   0.712
19884WAT     H259895   4.708   7.282   0.569
19885WAT      O59896   2.633   3.605   2.346
19885WAT     H159897   2.722   3.585   2.387
19885WAT     H259898   2.629   3.568   2.253
19886WAT      O59899   5.818   9.492   6.524
19886WAT     H159900   5.903   9.440   6.524
19886WAT     H259901   5.778   9.489   6.433
19887WAT      O59902   3.274   5.732   5.435
19887WAT     H159903   3.350   5.667   5.429
19887WAT     H259904   3.206   5.698   5.500
19888WAT      O59905   5.493   4.685   8.466
19888WAT     H159906   5.427   4.611   8.450
19888WAT     H259907   5.463   4.741   8.543
19889WAT      O59908   8.210   1.566   6.982
19889WAT     H159909   8.252   1.646   7.027
19889WAT     H259910   8.206   1.582   6.884
19890WAT      O59911   0.462   8.395   5.617
19890WAT     H159912   0.440   8.357   5.707
19890WAT     H259913   0.560   8.408   5.609
19891WAT      O59914   9.419   2.830   2.005
19891WAT     H159915   9.493   2.816   2.071
19891WAT     H259916   9.354   2.896   2.042
19892WAT      O59917   8.053   0.439   3.927
19892WAT     H159918   8.068   0.393   4.014
19892WAT     H259919   8.110   0.522   3.924
19893WAT      O59920   6.875   8.660   9.010
19893WAT     H159921   6.958   8.710   9.036
19893WAT     H259922   6.810   8.723   8.968
19894WAT      O59923   0.131   4.867   3.037
19894WAT     H159924   0.208   4.822   2.990
19894WAT     H259925   0.155   4.962   3.055
19895WAT      O59926   2.773   1.626   1.025
19895WAT     H159927   2.803   1.602   1.118
19895WAT     H259928   2.840   1.687   0.983
19896WAT      O59929   9.187   6.983   8.303
19896WAT     H159930   9.264   6.965   8.364
19896WAT     H259931   9.201   7.071   8.257
19897WAT      O59932   8.011   2.335   6.219
19897WAT     H159933   8.048   2.318   6.310
19897WAT     H259934   7.924   2.286   6.208
19898WAT      O59935   6.054   2.875   9.256
19898WAT     H159936   6.055   2.775   9.259
19898WAT     H259937   6.061   2.912   9.349
19899WAT      O59938   3.221   4.760   1.365
19899WAT     H159939   3.259   4.713   1.445
19899WAT     H259940   3.193   4.692   1.297
19900WAT      O59941   5.095   7.674   3.605
19900WAT     H159942   5.060   7.706   3.518
19900WAT     H259943   5.083   7.575   3.612
19901WAT      O59944   2.742   0.483   4.769
19901WAT     H159945   2.819   0.513   4.712
19901WAT     H259946   2.656   0.512   4.727
19902WAT      O59947   9.469   8.211   2.170
19902WAT     H159948   9.467   8.284   2.101
19902WAT     H259949   9.432   8.127   2.131
19903WAT      O59950   9.354   8.545   2.114
19903WAT     H159951   9.281   8.479   2.130
19903WAT     H259952   9.411   8.552   2.196
19904WAT      O59953   7.967   4.782   6.731
19904WAT     H159954   7.940   4.751   6.823
19904WAT     H259955   7.983   4.881   6.733
19905WAT      O59956   0.592   0.269   5.251
19905WAT     H159957   0.493   0.266   5.263
19905WAT     H259958   0.637   0.269   5.340
19906WAT      O59959   1.369   4.692   9.427
19906WAT     H159960   1.318   4.778   9.428
19906WAT     H259961   1.452   4.701   9.482
19907WAT      O59962   7.257   2.282   2.142
19907WAT     H159963   7.220   2.374   2.148
19907WAT     H259964   7.231   2.241   2.055
19908WAT      O59965   6.744   2.057   8.209
19908WAT     H159966   6.717   2.016   8.296
19908WAT     H259967   6.807   1.996   8.161
19909WAT      O59968   0.357   0.768   8.923
19909WAT     H159969   0.404   0.689   8.962
19909WAT     H259970   0.389   0.782   8.829
19910WAT      O59971   7.694   8.548   5.142
19910WAT     H159972   7.667   8.610   5.068
19910WAT     H259973   7.779   8.580   5.183
19911WAT      O59974   3.635   3.027   4.081
19911WAT     H159975   3.560   2.977   4.123
19911WAT     H259976   3.600   3.106   4.032
19912WAT      O59977   8.919   7.972   4.902
19912WAT     H159978   8.988   8.043   4.911
19912WAT     H259979   8.963   7.887   4.873
19913WAT      O59980   6.670   3.517   3.342
19913WAT     H159981   6.712   3.474   3.422
19913WAT     H259982   6.710   3.478   3.259
19914WAT      O59983   5.242   9.193   8.293
19914WAT     H159984   5.225   9.234   8.383
19914WAT     H259985   5.158   9.198   8.238
19915WAT      O59986   9.468   1.998   1.072
19915WAT     H159987   9.424   2.087   1.080
19915WAT     H259988   9.563   2.011   1.042
19916WAT      O59989   4.722   5.363   7.637
19916WAT     H159990   4.745   5.288   7.575
19916WAT     H259991   4.626   5.357   7.663
19917WAT      O59992   4.469   2.350   5.472
19917WAT     H159993   4.526   2.324   5.394
19917WAT     H259994   4.518   2.414   5.530
19918WAT      O59995   6.612   9.125   5.156
19918WAT     H159996   6.681   9.179   5.203
19918WAT     H259997   6.624   9.028   5.180
19919WAT      O59998   8.623   1.567   7.874
19919WAT     H159999   8.662   1.515   7.950
19919WAT     H260000   8.539   1.521   7.842
19920WAT      O60001   7.491   7.386   0.058
19920WAT     H160002   7.437   7.456   0.105
19920WAT     H260003   7.438   7.350  -0.019
19921WAT      O60004   9.440   9.571   2.652
19921WAT     H160005   9.377   9.493   2.649
19921WAT     H260006   9.532   9.540   2.629
19922WAT      O60007   8.275   7.487   1.745
19922WAT     H160008   8.236   7.492   1.836
19922WAT     H260009   8.307   7.578   1.717
19923WAT      O60010   9.296   1.955   1.921
19923WAT     H160011   9.374   1.999   1.966
19923WAT     H260012   9.327   1.907   1.839
19924WAT      O60013   7.171   1.495   9.325
19924WAT     H160014   7.089   1.448   9.292
19924WAT     H260015   7.153   1.594   9.330
19925WAT      O60016   5.386   1.293   1.774
19925WAT     H160017   5.380   1.216   1.710
19925WAT     H260018   5.395   1.378   1.723
19926WAT      O60019   6.645   0.652   0.806
19926WAT     H160020   6.568   0.647   0.741
19926WAT     H260021   6.683   0.560   0.817
19927WAT      O60022   1.635   8.012   9.408
19927WAT     H160023   1.646   7.927   9.358
19927WAT     H260024   1.639   7.993   9.507
19928WAT      O60025   8.492   8.345   4.981
19928WAT     H160026   8.553   8.314   5.053
19928WAT     H260027   8.453   8.434   5.007
19929WAT      O60028   4.616   8.280   1.913
19929WAT     H160029   4.639   8.335   1.993
19929WAT     H260030   4.645   8.328   1.830
19930WAT      O60031   7.251   8.055   1.865
19930WAT     H160032   7.319   7.993   1.826
19930WAT     H260033   7.236   8.132   1.803
19931WAT      O60034   1.031   6.848   5.172
19931WAT     H160035   1.007   6.757   5.205
19931WAT     H260036   1.097   6.840   5.098
19932WAT      O60037   5.516   9.818   6.873
19932WAT     H160038   5.521   9.749   6.801
19932WAT     H260039   5.476   9.778   6.956
19933WAT      O60040   2.357   3.392   9.560
19933WAT     H160041   2.282   3.429   9.616
19933WAT     H260042   2.320   3.351   9.477
19934WAT      O60043   7.519   6.033   4.411
19934WAT     H160044   7.508   6.126   4.377
19934WAT     H260045   7.562   6.036   4.501
19935WAT      O60046   8.570   5.989   5.257
19935WAT     H160047   8.542   5.981   5.161
19935WAT     H260048   8.602   5.900   5.289
19936WAT      O60049   0.106   2.937   1.205
19936WAT     H160050   0.078   3.032   1.196
19936WAT     H260051   0.182   2.918   1.143
19937WAT      O60052   4.277   0.139   3.308
19937WAT     H160053   4.232   0.227   3.298
19937WAT     H260054   4.215   0.066   3.277
19938WAT      O60055   7.403   9.262   9.298
19938WAT     H160056   7.432   9.177   9.252
19938WAT     H260057   7.303   9.268   9.297
19939WAT      O60058   9.362   7.866   8.791
19939WAT     H160059   9.429   7.927   8.834
19939WAT     H260060   9.273   7.911   8.787
19940WAT      O60061   1.470   9.809   4.300
19940WAT     H160062   1.416   9.893   4.291
19940WAT     H260063   1.532   9.817   4.377
19941WAT      O60064   6.659   8.787   9.191
19941WAT     H160065   6.665   8.689   9.172
19941WAT     H260066   6.576   8.824   9.150
19942WAT      O60067   8.688   8.424   1.271
19942WAT     H160068   8.692   8.386   1.363
19942WAT     H260069   8.607   8.482   1.262
19943WAT      O60070   2.719   7.041   8.983
19943WAT     H160071   2.686   7.116   8.925
19943WAT     H260072   2.755   7.078   9.069
19944WAT      O60073   8.043   6.757   4.865
19944WAT     H160074   7.960   6.780   4.916
19944WAT     H260075   8.059   6.825   4.794
19945WAT      O60076   9.559   9.783   6.476
19945WAT     H160077   9.642   9.814   6.430
19945WAT     H260078   9.583   9.712   6.543
19946WAT      O60079   7.768   9.827   5.328
19946WAT     H160080   7.685   9.878   5.310
19946WAT     H260081   7.815   9.866   5.407
19947WAT      O60082   0.769   3.540   6.693
19947WAT     H160083   0.834   3.471   6.663
19947WAT     H260084   0.684   3.532   6.642
19948WAT      O60085   4.021   5.190   4.007
19948WAT     H160086   3.931   5.196   3.964
19948WAT     H260087   4.087   5.155   3.941
19949WAT      O60088   0.479   9.839   4.057
19949WAT     H160089   0.465   9.744   4.085
19949WAT     H260090   0.540   9.885   4.122
19950WAT      O60091   8.440   5.552   8.405
19950WAT     H160092   8.439   5.536   8.504
19950WAT     H260093   8.518   5.505   8.365
19951WAT      O60094   4.622   0.836   3.636
19951WAT     H160095   4.708   0.857   3.590
19951WAT     H260096   4.616   0.888   3.721
19952WAT      O60097   2.038   1.575   0.490
19952WAT     H160098   2.106   1.507   0.463
19952WAT     H260099   2.051   1.598   0.587
19953WAT      O60100   4.335   2.714   5.579
19953WAT     H160101   4.292   2.722   5.668
19953WAT     H260102   4.426   2.674   5.589
19954WAT      O60103   0.157   9.092   4.919
19954WAT     H160104   0.089   9.021   4.902
19954WAT     H260105   0.236   9.052   4.965
19955WAT      O60106   3.359   2.290   0.210
19955WAT     H160107   3.362   2.321   0.305
19955WAT     H260108   3.333   2.366   0.150
19956WAT      O60109   0.759   1.808   0.107
19956WAT     H160110   0.759   1.842   0.201
19956WAT     H260111   0.670   1.770   0.085
19957WAT      O60112   0.792   8.233   1.443
19957WAT     H160113   0.819   8.328   1.429
19957WAT     H260114   0.868   8.173   1.419
19958WAT      O60115   0.240   7.513   1.474
19958WAT     H160116   0.264   7.545   1.566
19958WAT     H260117   0.279   7.575   1.406
19959WAT      O60118   8.799   3.503   1.518
19959WAT     H160119   8.862   3.426   1.510
19959WAT     H260120   8.721   3.490   1.457
19960WAT      O60121   6.744   1.701   2.759
19960WAT     H160122   6.729   1.798   2.741
19960WAT     H260123   6.729   1.683   2.857
19961WAT      O60124   4.773   3.080   4.790
19961WAT     H160125   4.680   3.061   4.823
19961WAT     H260126   4.782   3.047   4.696
19962WAT      O60127   6.093   4.854   6.159
19962WAT     H160128   6.070   4.923   6.091
19962WAT     H260129   6.010   4.827   6.208
19963WAT      O60130   0.402   1.194   5.588
19963WAT     H160131   0.432   1.144   5.669
19963WAT     H260132   0.430   1.289   5.595
19964WAT      O60133   2.499   4.437   2.145
19964WAT     H160134   2.455   4.461   2.231
19964WAT     H260135   2.565   4.364   2.160
19965WAT      O60136   3.159   3.901   0.332
19965WAT     H160137   3.188   3.933   0.242
19965WAT     H260138   3.120   3.977   0.383
19966WAT      O60139   9.535   5.374   3.546
19966WAT     H160140   9.598   5.437   3.500
19966WAT     H260141   9.542   5.284   3.503
19967WAT      O60142   9.558   2.307   6.074
19967WAT     H160143   9.624   2.273   6.008
19967WAT     H260144   9.499   2.233   6.105
19968WAT      O60145   1.668   7.781   5.059
19968WAT     H160146   1.674   7.783   5.159
19968WAT     H260147   1.596   7.716   5.032
19969WAT      O60148   1.463   1.404   9.104
19969WAT     H160149   1.555   1.409   9.143
19969WAT     H260150   1.458   1.465   9.025
19970WAT      O60151   5.706   5.434   1.144
19970WAT     H160152   5.737   5.513   1.197
19970WAT     H260153   5.712   5.455   1.047
19971WAT      O60154   3.940   2.744   2.412
19971WAT     H160155   4.034   2.775   2.402
19971WAT     H260156   3.938   2.654   2.456
19972WAT      O60157   9.378   7.184   4.491
19972WAT     H160158   9.435   7.213   4.568
19972WAT     H260159   9.367   7.084   4.494
19973WAT      O60160   4.921   6.831   8.552
19973WAT     H160161   4.919   6.913   8.608
19973WAT     H260162   5.016   6.804   8.535
19974WAT      O60163   7.720   7.353   0.186
19974WAT     H160164   7.706   7.321   0.280
19974WAT     H260165   7.631   7.360   0.140
19975WAT      O60166   9.224   3.682   1.813
19975WAT     H160167   9.179   3.597   1.843
19975WAT     H260168   9.321   3.664   1.797
19976WAT      O60169   2.827   3.543   4.675
19976WAT     H160170   2.921   3.517   4.653
19976WAT     H260171   2.779   3.465   4.715
19977WAT      O60172   6.970   1.628   3.493
19977WAT     H160173   7.048   1.611   3.433
19977WAT     H260174   6.896   1.564   3.471
19978WAT      O60175   6.030   4.480   8.890
19978WAT     H160176   6.100   4.549   8.908
19978WAT     H260177   5.996   4.491   8.796
19979WAT      O60178   9.188   9.582   3.271
19979WAT     H160179   9.094   9.617   3.269
19979WAT     H260180   9.224   9.589   3.364
19980WAT      O60181   6.921   7.757   1.496
19980WAT     H160182   7.007   7.803   1.475
19980WAT     H260183   6.919   7.732   1.593
19981WAT      O60184   5.352   9.299   0.398
19981WAT     H160185   5.332   9.206   0.369
19981WAT     H260186   5.279   9.360   0.368
19982WAT      O60187   9.368   4.651   3.568
19982WAT     H160188   9.284   4.689   3.606
19982WAT     H260189   9.349   4.611   3.478
19983WAT      O60190   6.444   5.368   7.831
19983WAT     H160191   6.513   5.436   7.805
19983WAT     H260192   6.355   5.413   7.840
19984WAT      O60193   8.747   0.194   9.811
19984WAT     H160194   8.815   0.127   9.839
19984WAT     H260195   8.784   0.251   9.738
19985WAT      O60196   3.220   9.634   2.062
19985WAT     H160197   3.237   9.636   2.160
19985WAT     H260198   3.141   9.692   2.040
19986WAT      O60199   1.520   7.575   9.228
19986WAT     H160200   1.504   7.588   9.131
19986WAT     H260201   1.515   7.478   9.250
19987WAT      O60202   4.200   0.060   4.635
19987WAT     H160203   4.153  -0.022   4.603
19987WAT     H260204   4.146   0.104   4.707
19988WAT      O60205   7.724   6.622   1.781
19988WAT     H160206   7.793   6.574   1.726
19988WAT     H260207   7.646   6.646   1.723
19989WAT      O60208   5.757   2.811   0.742
19989WAT     H160209   5.851   2.835   0.715
19989WAT     H260210   5.715   2.759   0.668
19990WAT      O60211   9.670   8.787   2.957
19990WAT     H160212   9.745   8.725   2.936
19990WAT     H260213   9.651   8.845   2.878
19991WAT      O60214   4.337   6.986   9.382
19991WAT     H160215   4.319   6.928   9.461
19991WAT     H260216   4.273   6.962   9.308
19992WAT      O60217   0.851   5.143   8.119
19992WAT     H160218   0.866   5.122   8.022
19992WAT     H260219   0.855   5.242   8.132
19993WAT      O60220   1.776   9.820   1.437
19993WAT     H160221   1.728   9.761   1.371
19993WAT     H260222   1.781   9.773   1.525
19994WAT      O60223   4.946   8.406   5.489
19994WAT     H160224   4.968   8.369   5.399
19994WAT     H260225   4.911   8.499   5.480
19995WAT      O60226   6.179   8.367   4.666
19995WAT     H160227   6.178   8.342   4.569
19995WAT     H260228   6.173   8.467   4.674
19996WAT      O60229   9.269   2.370   2.934
19996WAT     H160230   9.294   2.467   2.931
19996WAT     H260231   9.348   2.315   2.908
19997WAT      O60232   2.196   6.726   6.384
19997WAT     H160233   2.225   6.802   6.442
19997WAT     H260234   2.189   6.758   6.289
19998WAT      O60235   8.075   4.112   3.265
19998WAT     H160236   8.023   4.121   3.180
19998WAT     H260237   8.170   4.137   3.249
19999WAT      O60238   9.269   4.550   4.128
19999WAT     H160239   9.252   4.464   4.080
19999WAT     H260240   9.206   4.620   4.095
20000WAT      O60241   1.296   6.247   4.534
20000WAT     H160242   1.369   6.253   4.466
20000WAT     H260243   1.209   6.275   4.494
20001WAT      O60244   5.934   6.307   8.809
20001WAT     H160245   5.844   6.264   8.810
20001WAT     H260246   5.987   6.275   8.731
20002WAT      O60247   5.329   4.320   6.645
20002WAT     H160248   5.279   4.244   6.687
20002WAT     H260249   5.278   4.405   6.657
20003WAT      O60250   2.092   7.756   9.366
20003WAT     H160251   2.106   7.764   9.268
20003WAT     H260252   2.122   7.841   9.411
20004WAT      O60253   7.414   5.784   7.110
20004WAT     H160254   7.317   5.774   7.132
20004WAT     H260255   7.440   5.714   7.043
20005WAT      O60256   2.759   5.996   2.725
20005WAT     H160257   2.670   6.030   2.753
20005WAT     H260258   2.784   6.035   2.636
20006WAT      O60259   6.440   7.149   5.053
20006WAT     H160260   6.361   7.129   4.995
20006WAT     H260261   6.408   7.171   5.145
20007WAT      O60262   2.244   9.256   1.045
20007WAT     H160263   2.273   9.320   0.973
20007WAT     H260264   2.182   9.303   1.108
20008WAT      O60265   2.680   2.177   7.459
20008WAT     H160266   2.582   2.160   7.469
20008WAT     H260267   2.710   2.241   7.530
20009WAT      O60268   7.192   9.173   8.177
20009WAT     H160269   7.161   9.225   8.257
20009WAT     H260270   7.271   9.118   8.200
20010WAT      O60271   8.005   6.350   9.538
20010WAT     H160272   8.039   6.436   9.501
20010WAT     H260273   8.063   6.275   9.508
20011WAT      O60274   9.123   3.388   7.296
20011WAT     H160275   9.059   3.376   7.220
20011WAT     H260276   9.090   3.461   7.356
20012WAT      O60277   7.547   8.728   9.686
20012WAT     H160278   7.478   8.797   9.705
20012WAT     H260279   7.596   8.752   9.602
20013WAT      O60280   0.891   3.168   0.297
20013WAT     H160281   0.846   3.192   0.383
20013WAT     H260282   0.923   3.073   0.301
20014WAT      O60283   4.525   0.737   2.469
20014WAT     H160284   4.476   0.773   2.548
20014WAT     H260285   4.459   0.695   2.405
20015WAT      O60286   8.345   0.114   2.684
20015WAT     H160287   8.441   0.133   2.663
20015WAT     H260288   8.305   0.194   2.729
20016WAT      O60289   6.225   3.220   5.782
20016WAT     H160290   6.248   3.179   5.870
20016WAT     H260291   6.127   3.211   5.766
20017WAT      O60292   1.799   6.986   1.778
20017WAT     H160293   1.885   6.986   1.725
20017WAT     H260294   1.751   6.900   1.762
20018WAT      O60295   4.518   7.895   8.196
20018WAT     H160296   4.474   7.810   8.168
20018WAT     H260297   4.555   7.941   8.115
20019WAT      O60298   9.676   2.058   3.915
20019WAT     H160299   9.722   1.970   3.928
20019WAT     H260300   9.577   2.044   3.917
20020WAT      O60301   5.720   5.822   3.723
20020WAT     H160302   5.771   5.818   3.637
20020WAT     H260303   5.776   5.870   3.791
20021WAT      O60304   4.250   7.890   2.229
20021WAT     H160305   4.221   7.952   2.303
20021WAT     H260306   4.348   7.902   2.213
20022WAT      O60307   2.951   4.854   8.644
20022WAT     H160308   2.892   4.816   8.716
20022WAT     H260309   2.912   4.832   8.554
20023WAT      O60310   4.976   7.492   1.158
20023WAT     H160311   4.951   7.577   1.112
20023WAT     H260312   5.071   7.496   1.189
20024WAT      O60313   9.568   9.618   0.814
20024WAT     H160314   9.541   9.674   0.735
20024WAT     H260315   9.541   9.664   0.898
20025WAT      O60316   4.877   6.063   3.649
20025WAT     H160317   4.793   6.085   3.697
20025WAT     H260318   4.870   6.092   3.554
20026WAT      O60319   8.027   5.558   0.138
20026WAT     H160320   8.015   5.485   0.071
20026WAT     H260321   8.080   5.632   0.097
20027WAT      O60322   3.087   9.439   7.167
20027WAT     H160323   3.064   9.483   7.080
20027WAT     H260324   3.171   9.478   7.202
20028WAT      O60325   0.014   3.891   5.655
20028WAT     H160326   0.106   3.920   5.680
20028WAT     H260327  -0.012   3.812   5.710
20029WAT      O60328   0.988   9.652   3.343
20029WAT     H160329   0.982   9.726   3.410
20029WAT     H260330   1.069   9.667   3.285
20030WAT      O60331   5.739   2.521   2.367
20030WAT     H160332   5.704   2.508   2.460
20030WAT     H260333   5.720   2.614   2.337
20031WAT      O60334   2.249   6.953   6.539
20031WAT     H160335   2.266   7.028   6.603
20031WAT     H260336   2.158   6.916   6.554
20032WAT      O60337   4.731   1.698   1.264
20032WAT     H160338   4.661   1.627   1.261
20032WAT     H260339   4.695   1.783   1.227
20033WAT      O60340   1.343   1.513   4.795
20033WAT     H160341   1.370   1.603   4.828
20033WAT     H260342   1.424   1.456   4.781
20034WAT      O60343   3.672   1.087   5.861
20034WAT     H160344   3.659   1.156   5.790
20034WAT     H260345   3.723   1.126   5.937
20035WAT      O60346   5.145   2.606   1.621
20035WAT     H160347   5.077   2.537   1.645
20035WAT     H260348   5.108   2.697   1.640
20036WAT      O60349   4.491   9.314   8.663
20036WAT     H160350   4.443   9.402   8.662
20036WAT     H260351   4.424   9.239   8.662
20037WAT      O60352   3.973   7.507   8.935
20037WAT     H160353   3.890   7.505   8.992
20037WAT     H260354   4.013   7.415   8.932
20038WAT      O60355   5.894   2.192   2.670
20038WAT     H160356   5.895   2.291   2.688
20038WAT     H260357   5.827   2.148   2.730
20039WAT      O60358   1.552   7.945   0.250
20039WAT     H160359   1.644   7.921   0.216
20039WAT     H260360   1.555   7.952   0.350
20040WAT      O60361   1.900   2.925   8.533
20040WAT     H160362   1.881   2.992   8.605
20040WAT     H260363   1.815   2.902   8.486
20041WAT      O60364   4.927   4.243   0.070
20041WAT     H160365   5.020   4.263   0.100
20041WAT     H260366   4.926   4.158   0.018
20042WAT      O60367   0.173   3.717   9.230
20042WAT     H160368   0.107   3.675   9.293
20042WAT     H260369   0.127   3.787   9.175
20043WAT      O60370   7.173   4.715   3.078
20043WAT     H160371   7.121   4.716   3.164
20043WAT     H260372   7.217   4.804   3.066
20044WAT      O60373   0.049   3.129   3.539
20044WAT     H160374   0.104   3.202   3.498
20044WAT     H260375  -0.003   3.082   3.468
20045WAT      O60376   4.655   8.257   0.365
20045WAT     H160377   4.638   8.352   0.392
20045WAT     H260378   4.645   8.247   0.266
20046WAT      O60379   8.016   0.569   7.377
20046WAT     H160380   8.107   0.539   7.346
20046WAT     H260381   8.021   0.664   7.406
20047WAT      O60382   5.441   5.969   0.265
20047WAT     H160383   5.476   5.967   0.171
20047WAT     H260384   5.351   6.013   0.266
20048WAT      O60385   4.665   6.696   0.798
20048WAT     H160386   4.656   6.630   0.872
20048WAT     H260387   4.623   6.783   0.824
20049WAT      O60388   2.961   6.456   0.735
20049WAT     H160389   2.926   6.522   0.802
20049WAT     H260390   2.916   6.368   0.749
20050WAT      O60391   0.007   4.724   8.595
20050WAT     H160392  -0.027   4.688   8.509
20050WAT     H260393   0.107   4.727   8.593
20051WAT      O60394   0.878   4.473   7.749
20051WAT     H160395   0.959   4.417   7.768
20051WAT     H260396   0.878   4.500   7.653
20052WAT      O60397   3.720   6.985   9.061
20052WAT     H160398   3.654   6.915   9.034
20052WAT     H260399   3.768   7.019   8.980
20053WAT      O60400   4.328   7.511   5.108
20053WAT     H160401   4.379   7.582   5.157
20053WAT     H260402   4.376   7.488   5.024
20054WAT      O60403   1.943   1.970   4.418
20054WAT     H160404   1.988   2.031   4.354
20054WAT     H260405   2.011   1.923   4.474
20055WAT      O60406   9.848   4.473   5.172
20055WAT     H160407   9.822   4.560   5.130
20055WAT     H260408   9.932   4.485   5.225
20056WAT      O60409   9.468   5.771   6.121
20056WAT     H160410   9.568   5.772   6.129
20056WAT     H260411   9.439   5.680   6.091
20057WAT      O60412   7.795   5.995   7.595
20057WAT     H160413   7.808   6.090   7.569
20057WAT     H260414   7.877   5.962   7.643
20058WAT      O60415   3.236   4.289   9.152
20058WAT     H160416   3.214   4.194   9.171
20058WAT     H260417   3.163   4.348   9.187
20059WAT      O60418   6.256   4.817   9.628
20059WAT     H160419   6.348   4.855   9.620
20059WAT     H260420   6.251   4.757   9.708
20060WAT      O60421   4.330   6.233   4.265
20060WAT     H160422   4.310   6.195   4.355
20060WAT     H260423   4.283   6.179   4.195
20061WAT      O60424   2.796   6.305   7.320
20061WAT     H160425   2.809   6.330   7.224
20061WAT     H260426   2.757   6.214   7.325
20062WAT      O60427   9.136   2.168   1.206
20062WAT     H160428   9.161   2.102   1.276
20062WAT     H260429   9.062   2.131   1.149
20063WAT      O60430   1.205   9.207   4.844
20063WAT     H160431   1.150   9.267   4.787
20063WAT     H260432   1.146   9.160   4.910
20064WAT      O60433   1.671   7.564   2.578
20064WAT     H160434   1.730   7.584   2.499
20064WAT     H260435   1.604   7.495   2.551
20065WAT      O60436   9.442   6.372   3.584
20065WAT     H160437   9.537   6.400   3.595
20065WAT     H260438   9.397   6.369   3.673
20066WAT      O60439   0.189   5.325   1.922
20066WAT     H160440   0.258   5.263   1.958
20066WAT     H260441   0.127   5.351   1.996
20067WAT      O60442   2.401   5.020   2.469
20067WAT     H160443   2.458   5.101   2.457
20067WAT     H260444   2.379   5.008   2.565
20068WAT      O60445   1.297   5.338   0.593
20068WAT     H160446   1.353   5.377   0.666
20068WAT     H260447   1.295   5.401   0.515
20069WAT      O60448   7.899   8.196   7.057
20069WAT     H160449   7.959   8.133   7.107
20069WAT     H260450   7.907   8.178   6.959
20070WAT      O60451   0.980   7.257   6.716
20070WAT     H160452   0.960   7.227   6.809
20070WAT     H260453   1.072   7.297   6.713
20071WAT      O60454   0.101   1.931   8.517
20071WAT     H160455   0.079   1.836   8.496
20071WAT     H260456   0.107   1.942   8.616
20072WAT      O60457   5.713   8.806   3.490
20072WAT     H160458   5.770   8.816   3.408
20072WAT     H260459   5.618   8.796   3.463
20073WAT      O60460   0.612   7.435   1.299
20073WAT     H160461   0.668   7.429   1.381
20073WAT     H260462   0.544   7.508   1.310
20074WAT      O60463   3.325   1.511   3.011
20074WAT     H160464   3.276   1.518   2.924
20074WAT     H260465   3.268   1.463   3.078
20075WAT      O60466   9.595   5.961   5.205
20075WAT     H160467   9.688   5.994   5.193
20075WAT     H260468   9.531   6.037   5.194
20076WAT      O60469   0.306   3.058   6.812
20076WAT     H160470   0.267   2.978   6.766
20076WAT     H260471   0.241   3.093   6.879
20077WAT      O60472   1.095   4.108   2.307
20077WAT     H160473   1.032   4.036   2.337
20077WAT     H260474   1.049   4.197   2.313
20078WAT      O60475   1.072   1.365   3.058
20078WAT     H160476   1.126   1.437   3.102
20078WAT     H260477   0.977   1.395   3.049
20079WAT      O60478   1.594   1.539   5.126
20079WAT     H160479   1.549   1.621   5.161
20079WAT     H260480   1.688   1.535   5.158
20080WAT      O60481   2.019   2.122   8.700
20080WAT     H160482   2.104   2.110   8.752
20080WAT     H260483   1.954   2.173   8.756
20081WAT      O60484   5.232   2.295   2.531
20081WAT     H160485   5.312   2.287   2.472
20081WAT     H260486   5.251   2.359   2.605
20082WAT      O60487   7.254   9.243   2.862
20082WAT     H160488   7.326   9.250   2.794
20082WAT     H260489   7.286   9.190   2.940
20083WAT      O60490   7.851   4.209   4.096
20083WAT     H160491   7.916   4.156   4.151
20083WAT     H260492   7.901   4.274   4.039
20084WAT      O60493   5.314   9.567   4.023
20084WAT     H160494   5.373   9.635   4.066
20084WAT     H260495   5.219   9.595   4.031
20085WAT      O60496   3.197   4.405   2.791
20085WAT     H160497   3.193   4.504   2.785
20085WAT     H260498   3.175   4.365   2.702
20086WAT      O60499   5.848   6.709   0.779
20086WAT     H160500   5.757   6.732   0.745
20086WAT     H260501   5.901   6.667   0.706
20087WAT      O60502   8.103   7.489   1.540
20087WAT     H160503   8.149   7.495   1.452
20087WAT     H260504   8.169   7.498   1.614
20088WAT      O60505   3.501   5.294   2.094
20088WAT     H160506   3.442   5.357   2.144
20088WAT     H260507   3.511   5.209   2.146
20089WAT      O60508   1.604   3.977   9.367
20089WAT     H160509   1.650   4.035   9.300
20089WAT     H260510   1.609   4.020   9.457
20090WAT      O60511   5.555   4.847   5.071
20090WAT     H160512   5.474   4.869   5.017
20090WAT     H260513   5.534   4.773   5.135
20091WAT      O60514   2.125   8.672   4.749
20091WAT     H160515   2.100   8.578   4.726
20091WAT     H260516   2.145   8.679   4.847
20092WAT      O60517   0.826   3.999   3.827
20092WAT     H160518   0.894   3.956   3.768
20092WAT     H260519   0.742   4.015   3.776
20093WAT      O60520   7.682   0.699   2.946
20093WAT     H160521   7.733   0.782   2.921
20093WAT     H260522   7.677   0.638   2.867
20094WAT      O60523   3.170   6.969   0.727
20094WAT     H160524   3.083   6.984   0.773
20094WAT     H260525   3.206   7.056   0.694
20095WAT      O60526   0.618   8.775   7.545
20095WAT     H160527   0.643   8.678   7.547
20095WAT     H260528   0.563   8.795   7.464
20096WAT      O60529   1.852   4.862   2.743
20096WAT     H160530   1.849   4.953   2.784
20096WAT     H260531   1.787   4.857   2.668
20097WAT      O60532   1.939   6.596   7.345
20097WAT     H160533   2.019   6.638   7.302
20097WAT     H260534   1.969   6.527   7.411
20098WAT      O60535   1.554   5.278   7.083
20098WAT     H160536   1.621   5.206   7.067
20098WAT     H260537   1.588   5.340   7.154
20099WAT      O60538   6.479   3.120   2.581
20099WAT     H160539   6.409   3.060   2.542
20099WAT     H260540   6.437   3.185   2.643
20100WAT      O60541   9.012   8.241   9.872
20100WAT     H160542   8.970   8.163   9.918
20100WAT     H260543   9.004   8.229   9.773
20101WAT      O60544   2.330   4.281   1.000
20101WAT     H160545   2.333   4.297   0.902
20101WAT     H260546   2.405   4.332   1.044
20102WAT      O60547   2.323   9.212   5.505
20102WAT     H160548   2.253   9.193   5.574
20102WAT     H260549   2.359   9.304   5.519
20103WAT      O60550   7.216   4.725   3.532
20103WAT     H160551   7.291   4.693   3.590
20103WAT     H260552   7.252   4.792   3.467
20104WAT      O60553   3.963   5.535   5.116
20104WAT     H160554   3.869   5.554   5.086
20104WAT     H260555   3.969   5.549   5.215
20105WAT      O60556   5.493   7.865   1.491
20105WAT     H160557   5.492   7.905   1.582
20105WAT     H260558   5.586   7.840   1.467
20106WAT      O60559   4.845   2.843   5.286
20106WAT     H160560   4.883   2.932   5.310
20106WAT     H260561   4.812   2.845   5.191
20107WAT      O60562   9.739   7.221   6.696
20107WAT     H160563   9.838   7.230   6.686
20107WAT     H260564   9.702   7.303   6.738
20108WAT      O60565   3.576   0.027   4.353
20108WAT     H160566   3.507  -0.019   4.409
20108WAT     H260567   3.547   0.122   4.338
20109WAT      O60568   1.992   4.023   4.318
20109WAT     H160569   1.962   4.005   4.411
20109WAT     H260570   2.061   3.956   4.291
20110WAT      O60571   9.492   0.622   2.029
20110WAT     H160572   9.525   0.566   2.105
20110WAT     H260573   9.454   0.707   2.065
20111WAT      O60574   5.696   4.264   0.323
20111WAT     H160575   5.650   4.285   0.410
20111WAT     H260576   5.649   4.188   0.279
20112WAT      O60577   7.641   6.831   7.125
20112WAT     H160578   7.648   6.930   7.115
20112WAT     H260579   7.687   6.803   7.210
20113WAT      O60580   7.078   6.392   3.257
20113WAT     H160581   7.139   6.375   3.179
20113WAT     H260582   7.025   6.310   3.276
20114WAT      O60583   2.209   0.595   3.507
20114WAT     H160584   2.241   0.504   3.481
20114WAT     H260585   2.158   0.636   3.431
20115WAT      O60586   2.317   2.509   9.376
20115WAT     H160587   2.233   2.458   9.358
20115WAT     H260588   2.336   2.569   9.298
20116WAT      O60589   4.619   7.431   8.671
20116WAT     H160590   4.580   7.404   8.759
20116WAT     H260591   4.547   7.470   8.614
20117WAT      O60592   8.573   8.321   1.513
20117WAT     H160593   8.512   8.244   1.498
20117WAT     H260594   8.520   8.400   1.544
20118WAT      O60595   1.274   0.471   5.939
20118WAT     H160596   1.329   0.471   5.855
20118WAT     H260597   1.334   0.474   6.018
20119WAT      O60598   0.243   8.240   1.422
20119WAT     H160599   0.332   8.286   1.418
20119WAT     H260600   0.214   8.233   1.517
20120WAT      O60601   9.258   6.897   8.678
20120WAT     H160602   9.160   6.877   8.675
20120WAT     H260603   9.305   6.821   8.723
20121WAT      O60604   8.510   7.416   8.025
20121WAT     H160605   8.560   7.461   7.951
20121WAT     H260606   8.482   7.484   8.093
20122WAT      O60607   5.364   8.398   3.786
20122WAT     H160608   5.444   8.457   3.771
20122WAT     H260609   5.345   8.347   3.702
20123WAT      O60610   3.561   0.702   4.273
20123WAT     H160611   3.486   0.642   4.303
20123WAT     H260612   3.635   0.647   4.236
20124WAT      O60613   7.708   4.004   0.397
20124WAT     H160614   7.764   4.082   0.427
20124WAT     H260615   7.670   4.023   0.307
20125WAT      O60616   0.822   5.680   8.391
20125WAT     H160617   0.869   5.595   8.416
20125WAT     H260618   0.858   5.756   8.446
20126WAT      O60619   3.173   7.003   2.668
20126WAT     H160620   3.092   7.051   2.703
20126WAT     H260621   3.256   7.049   2.701
20127WAT      O60622   5.677   9.094   8.845
20127WAT     H160623   5.773   9.069   8.850
20127WAT     H260624   5.637   9.094   8.937
20128WAT      O60625   8.166   7.204   0.129
20128WAT     H160626   8.243   7.149   0.096
20128WAT     H260627   8.112   7.151   0.195
20129WAT      O60628   3.485   9.195   4.201
20129WAT     H160629   3.580   9.177   4.228
20129WAT     H260630   3.427   9.197   4.283
20130WAT      O60631   6.802   4.979   3.404
20130WAT     H160632   6.711   4.940   3.390
20130WAT     H260633   6.862   4.910   3.446
20131WAT      O60634   8.832   0.625   5.542
20131WAT     H160635   8.861   0.597   5.633
20131WAT     H260636   8.875   0.712   5.518
20132WAT      O60637   1.224   8.125   7.996
20132WAT     H160638   1.134   8.167   8.005
20132WAT     H260639   1.252   8.128   7.900
20133WAT      O60640   6.999   2.694   7.338
20133WAT     H160641   7.066   2.766   7.358
20133WAT     H260642   7.038   2.605   7.359
20134WAT      O60643   8.623   0.990   2.103
20134WAT     H160644   8.623   0.986   2.003
20134WAT     H260645   8.667   1.075   2.132
20135WAT      O60646   8.840   2.624   7.248
20135WAT     H160647   8.875   2.562   7.318
20135WAT     H260648   8.841   2.718   7.283
20136WAT      O60649   4.652   2.416   9.170
20136WAT     H160650   4.615   2.325   9.156
20136WAT     H260651   4.624   2.476   9.094
20137WAT      O60652   6.160   9.130   4.891
20137WAT     H160653   6.074   9.181   4.889
20137WAT     H260654   6.226   9.179   4.948
20138WAT      O60655   2.300   9.742   1.992
20138WAT     H160656   2.299   9.820   1.930
20138WAT     H260657   2.393   9.728   2.027
20139WAT      O60658   5.971   9.574   9.578
20139WAT     H160659   6.016   9.486   9.570
20139WAT     H260660   5.927   9.582   9.668
20140WAT      O60661   3.373   5.499   2.203
20140WAT     H160662   3.412   5.540   2.286
20140WAT     H260663   3.289   5.450   2.226
20141WAT      O60664   2.217   1.648   5.858
20141WAT     H160665   2.304   1.695   5.844
20141WAT     H260666   2.231   1.550   5.851
20142WAT      O60667   6.936   6.254   8.631
20142WAT     H160668   6.925   6.354   8.634
20142WAT     H260669   7.030   6.230   8.655
20143WAT      O60670   6.507   5.767   4.622
20143WAT     H160671   6.576   5.833   4.652
20143WAT     H260672   6.418   5.812   4.614
20144WAT      O60673   3.112   3.538   0.681
20144WAT     H160674   3.091   3.636   0.688
20144WAT     H260675   3.091   3.506   0.589
20145WAT      O60676   5.411   0.049   3.792
20145WAT     H160677   5.438   0.126   3.850
20145WAT     H260678   5.465  -0.032   3.815
20146WAT      O60679   0.573   6.030   3.266
20146WAT     H160680   0.616   5.945   3.237
20146WAT     H260681   0.633   6.077   3.331
20147WAT      O60682   6.079   7.171   0.859
20147WAT     H160683   6.004   7.108   0.879
20147WAT     H260684   6.114   7.209   0.945
20148WAT      O60685   2.531   9.569   3.490
20148WAT     H160686   2.616   9.622   3.484
20148WAT     H260687   2.458   9.627   3.524
20149WAT      O60688   4.491   4.135   2.842
20149WAT     H160689   4.486   4.085   2.929
20149WAT     H260690   4.585   4.165   2.826
20150WAT      O60691   0.774   4.644   3.016
20150WAT     H160692   0.798   4.552   2.984
20150WAT     H260693   0.750   4.641   3.112
20151WAT      O60694   0.871   6.907   2.692
20151WAT     H160695   0.905   6.995   2.658
20151WAT     H260696   0.863   6.911   2.792
20152WAT      O60697   8.531   1.595   3.208
20152WAT     H160698   8.614   1.649   3.213
20152WAT     H260699   8.521   1.556   3.117
20153WAT      O60700   4.407   5.451   2.781
20153WAT     H160701   4.366   5.375   2.730
20153WAT     H260702   4.362   5.459   2.870
20154WAT      O60703   3.202   8.849   8.168
20154WAT     H160704   3.141   8.861   8.246
20154WAT     H260705   3.215   8.937   8.122
20155WAT      O60706   6.352   3.571   3.975
20155WAT     H160707   6.299   3.489   3.954
20155WAT     H260708   6.443   3.564   3.936
20156WAT      O60709   5.921   6.884   5.526
20156WAT     H160710   5.823   6.876   5.508
20156WAT     H260711   5.935   6.950   5.601
20157WAT      O60712   0.736   1.139   8.078
20157WAT     H160713   0.646   1.177   8.101
20157WAT     H260714   0.806   1.206   8.102
20158WAT      O60715   7.333   7.786   7.339
20158WAT     H160716   7.333   7.813   7.243
20158WAT     H260717   7.239   7.786   7.374
20159WAT      O60718   3.269   4.005   8.227
20159WAT     H160719   3.267   3.963   8.137
20159WAT     H260720   3.177   4.008   8.265
20160WAT      O60721   3.924   7.799   0.240
20160WAT     H160722   3.976   7.866   0.293
20160WAT     H260723   3.863   7.749   0.301
20161WAT      O60724   2.406   8.739   1.322
20161WAT     H160725   2.374   8.651   1.288
20161WAT     H260726   2.388   8.810   1.253
20162WAT      O60727   7.243   3.134   7.965
20162WAT     H160728   7.191   3.090   7.893
20162WAT     H260729   7.339   3.103   7.961
20163WAT      O60730   9.369   1.789   5.936
20163WAT     H160731   9.373   1.819   5.841
20163WAT     H260732   9.294   1.837   5.982
20164WAT      O60733   3.700   8.424   2.671
20164WAT     H160734   3.634   8.458   2.604
20164WAT     H260735   3.652   8.379   2.745
20165WAT      O60736   9.283   5.312   5.908
20165WAT     H160737   9.293   5.229   5.855
20165WAT     H260738   9.201   5.362   5.878
20166WAT      O60739   9.647   3.504   0.363
20166WAT     H160740   9.696   3.424   0.328
20166WAT     H260741   9.582   3.535   0.294
20167WAT      O60742   8.797   1.940   9.487
20167WAT     H160743   8.712   1.894   9.511
20167WAT     H260744   8.873   1.898   9.536
20168WAT      O60745   5.395   1.043   0.968
20168WAT     H160746   5.438   1.006   1.050
20168WAT     H260747   5.462   1.047   0.894
20169WAT      O60748   4.849   2.190   7.195
20169WAT     H160749   4.944   2.198   7.166
20169WAT     H260750   4.822   2.272   7.246
20170WAT      O60751   8.608   4.698   4.390
20170WAT     H160752   8.645   4.688   4.483
20170WAT     H260753   8.682   4.723   4.327
20171WAT      O60754   5.123   3.912   8.065
20171WAT     H160755   5.068   3.829   8.057
20171WAT     H260756   5.094   3.963   8.146
20172WAT      O60757   1.029   8.970   5.576
20172WAT     H160758   1.031   8.893   5.512
20172WAT     H260759   0.987   9.049   5.532
20173WAT      O60760   9.649   8.315   9.524
20173WAT     H160761   9.678   8.395   9.472
20173WAT     H260762   9.728   8.276   9.571
20174WAT      O60763   9.669   3.025   5.308
20174WAT     H160764   9.726   3.011   5.227
20174WAT     H260765   9.707   2.973   5.385
20175WAT      O60766   4.763   5.015   9.095
20175WAT     H160767   4.714   5.102   9.088
20175WAT     H260768   4.698   4.943   9.121
20176WAT      O60769   5.171   8.730   8.740
20176WAT     H160770   5.093   8.699   8.686
20176WAT     H260771   5.177   8.675   8.824
20177WAT      O60772   3.984   1.050   1.605
20177WAT     H160773   3.966   1.133   1.656
20177WAT     H260774   3.953   1.061   1.511
20178WAT      O60775   9.844   4.264   1.351
20178WAT     H160776   9.929   4.250   1.401
20178WAT     H260777   9.794   4.177   1.346
20179WAT      O60778   0.459   8.547   8.213
20179WAT     H160779   0.362   8.565   8.231
20179WAT     H260780   0.506   8.633   8.192
20180WAT      O60781   8.821   7.386   0.007
20180WAT     H160782   8.816   7.302  -0.046
20180WAT     H260783   8.823   7.465  -0.055
20181WAT      O60784   0.379   0.033   4.992
20181WAT     H160785   0.450   0.036   5.062
20181WAT     H260786   0.337   0.124   4.983
20182WAT      O60787   3.759   8.227   9.065
20182WAT     H160788   3.836   8.227   9.001
20182WAT     H260789   3.791   8.253   9.156
20183WAT      O60790   2.064   5.519   6.329
20183WAT     H160791   2.112   5.566   6.255
20183WAT     H260792   2.121   5.519   6.411
20184WAT      O60793   1.902   0.994   8.934
20184WAT     H160794   1.836   0.953   8.996
20184WAT     H260795   1.875   1.088   8.914
20185WAT      O60796   8.503   8.107   8.876
20185WAT     H160797   8.422   8.149   8.835
20185WAT     H260798   8.577   8.104   8.808
20186WAT      O60799   8.113   8.646   7.193
20186WAT     H160800   8.084   8.551   7.196
20186WAT     H260801   8.091   8.685   7.104
20187WAT      O60802   8.809   2.215   9.176
20187WAT     H160803   8.762   2.280   9.236
20187WAT     H260804   8.764   2.126   9.182
20188WAT      O60805   2.425   7.007   3.515
20188WAT     H160806   2.455   7.101   3.506
20188WAT     H260807   2.340   7.004   3.568
20189WAT      O60808   7.091   2.292   1.145
20189WAT     H160809   7.003   2.333   1.122
20189WAT     H260810   7.163   2.330   1.086
20190WAT      O60811   3.019   2.987   6.749
20190WAT     H160812   3.084   2.916   6.725
20190WAT     H260813   2.992   3.037   6.667
20191WAT      O60814   7.294   0.839   5.711
20191WAT     H160815   7.331   0.792   5.791
20191WAT     H260816   7.342   0.926   5.699
20192WAT      O60817   7.396   2.203   8.487
20192WAT     H160818   7.376   2.283   8.431
20192WAT     H260819   7.394   2.121   8.430
20193WAT      O60820   3.678   2.856   3.722
20193WAT     H160821   3.750   2.919   3.693
20193WAT     H260822   3.691   2.832   3.818
20194WAT      O60823   6.274   7.125   3.705
20194WAT     H160824   6.259   7.180   3.623
20194WAT     H260825   6.201   7.057   3.713
20195WAT      O60826   7.595   2.495   6.623
20195WAT     H160827   7.667   2.479   6.557
20195WAT     H260828   7.538   2.572   6.593
20196WAT      O60829   7.913   5.294   0.878
20196WAT     H160830   7.964   5.342   0.950
20196WAT     H260831   7.841   5.238   0.920
20197WAT      O60832   7.292   4.017   0.086
20197WAT     H160833   7.338   4.088   0.032
20197WAT     H260834   7.318   3.927   0.052
20198WAT      O60835   3.253   2.501   3.151
20198WAT     H160836   3.168   2.484   3.102
20198WAT     H260837   3.239   2.575   3.217
20199WAT      O60838   5.065   4.698   1.824
20199WAT     H160839   4.998   4.760   1.784
20199WAT     H260840   5.086   4.728   1.918
20200WAT      O60841   5.337   0.526   9.280
20200WAT     H160842   5.434   0.516   9.258
20200WAT     H260843   5.305   0.445   9.328
20201WAT      O60844   8.848   5.239   2.337
20201WAT     H160845   8.771   5.290   2.298
20201WAT     H260846   8.932   5.260   2.286
20202WAT      O60847   4.675   0.306   9.758
20202WAT     H160848   4.607   0.365   9.714
20202WAT     H260849   4.630   0.246   9.824
20203WAT      O60850   6.125   3.578   2.833
20203WAT     H160851   6.106   3.482   2.813
20203WAT     H260852   6.043   3.621   2.871
20204WAT      O60853   8.454   8.998   5.405
20204WAT     H160854   8.444   8.953   5.494
20204WAT     H260855   8.363   9.019   5.369
20205WAT      O60856   0.187   3.315   1.377
20205WAT     H160857   0.195   3.322   1.278
20205WAT     H260858   0.094   3.288   1.401
20206WAT      O60859   1.708   7.056   9.761
20206WAT     H160860   1.619   7.022   9.789
20206WAT     H260861   1.780   7.005   9.807
20207WAT      O60862   7.469   7.019   4.974
20207WAT     H160863   7.418   7.054   4.896
20207WAT     H260864   7.470   6.919   4.971
20208WAT      O60865   9.122   8.699   0.562
20208WAT     H160866   9.170   8.784   0.538
20208WAT     H260867   9.024   8.714   0.557
20209WAT      O60868   8.654   8.284   5.923
20209WAT     H160869   8.687   8.303   6.015
20209WAT     H260870   8.660   8.186   5.905
20210WAT      O60871   4.463   6.688   8.434
20210WAT     H160872   4.366   6.708   8.451
20210WAT     H260873   4.519   6.746   8.494
20211WAT      O60874   3.221   1.494   3.852
20211WAT     H160875   3.276   1.478   3.934
20211WAT     H260876   3.277   1.538   3.782
20212WAT      O60877   0.441   2.485   2.992
20212WAT     H160878   0.414   2.503   2.898
20212WAT     H260879   0.541   2.481   2.998
20213WAT      O60880   9.437   0.673   0.434
20213WAT     H160881   9.344   0.679   0.396
20213WAT     H260882   9.496   0.739   0.388
20214WAT      O60883   9.551   4.748   0.938
20214WAT     H160884   9.650   4.760   0.943
20214WAT     H260885   9.510   4.829   0.898
20215WAT      O60886   2.009   4.372   8.413
20215WAT     H160887   1.970   4.462   8.429
20215WAT     H260888   2.044   4.334   8.499
20216WAT      O60889   8.793   3.228   1.151
20216WAT     H160890   8.812   3.252   1.055
20216WAT     H260891   8.778   3.312   1.204
20217WAT      O60892   1.132   4.463   4.255
20217WAT     H160893   1.092   4.554   4.254
20217WAT     H260894   1.059   4.395   4.266
20218WAT      O60895   8.531   3.507   0.393
20218WAT     H160896   8.516   3.411   0.415
20218WAT     H260897   8.558   3.556   0.476
20219WAT      O60898   6.350   7.100   2.376
20219WAT     H160899   6.428   7.075   2.319
20219WAT     H260900   6.357   7.196   2.403
20220WAT      O60901   8.660   4.986   6.981
20220WAT     H160902   8.749   5.011   7.019
20220WAT     H260903   8.588   5.031   7.034
20221WAT      O60904   0.140   9.344   1.316
20221WAT     H160905   0.225   9.299   1.288
20221WAT     H260906   0.120   9.420   1.255
20222WAT      O60907   0.129   0.705   4.041
20222WAT     H160908   0.226   0.682   4.043
20222WAT     H260909   0.079   0.635   3.990
20223WAT      O60910   5.436   6.785   4.849
20223WAT     H160911   5.477   6.787   4.940
20223WAT     H260912   5.485   6.848   4.789
20224WAT      O60913   8.890   2.368   8.964
20224WAT     H160914   8.851   2.289   9.011
20224WAT     H260915   8.958   2.337   8.898
20225WAT      O60916   1.366   5.924   9.138
20225WAT     H160917   1.420   5.938   9.222
20225WAT     H260918   1.307   6.003   9.124
20226WAT      O60919   6.523   5.455   1.292
20226WAT     H160920   6.586   5.529   1.268
20226WAT     H260921   6.478   5.421   1.210
20227WAT      O60922   3.499   2.278   7.834
20227WAT     H160923   3.575   2.343   7.824
20227WAT     H260924   3.533   2.193   7.873
20228WAT      O60925   2.989   2.688   3.119
20228WAT     H160926   3.003   2.787   3.123
20228WAT     H260927   2.968   2.654   3.210
20229WAT      O60928   5.936   0.982   9.471
20229WAT     H160929   5.971   1.056   9.529
20229WAT     H260930   5.921   0.900   9.527
20230WAT      O60931   6.877   1.716   4.503
20230WAT     H160932   6.861   1.708   4.601
20230WAT     H260933   6.810   1.660   4.454
20231WAT      O60934   8.471   0.627   0.501
20231WAT     H160935   8.405   0.624   0.575
20231WAT     H260936   8.481   0.536   0.460
20232WAT      O60937   0.253   0.801   7.313
20232WAT     H160938   0.238   0.887   7.264
20232WAT     H260939   0.347   0.769   7.297
20233WAT      O60940   6.764   7.537   4.288
20233WAT     H160941   6.780   7.632   4.261
20233WAT     H260942   6.743   7.482   4.206
20234WAT      O60943   5.097   7.104   7.645
20234WAT     H160944   5.075   7.150   7.731
20234WAT     H260945   5.067   7.008   7.649
20235WAT      O60946   5.625   5.557   7.897
20235WAT     H160947   5.686   5.617   7.845
20235WAT     H260948   5.680   5.493   7.951
20236WAT      O60949   0.788   7.714   9.385
20236WAT     H160950   0.813   7.781   9.316
20236WAT     H260951   0.870   7.687   9.436
20237WAT      O60952   1.007   5.761   6.116
20237WAT     H160953   0.957   5.844   6.141
20237WAT     H260954   1.089   5.786   6.064
20238WAT      O60955   1.601   7.174   6.980
20238WAT     H160956   1.504   7.173   6.953
20238WAT     H260957   1.647   7.250   6.933
20239WAT      O60958   5.437   3.936   9.436
20239WAT     H160959   5.424   4.021   9.384
20239WAT     H260960   5.505   3.952   9.508
20240WAT      O60961   2.477   7.850   7.157
20240WAT     H160962   2.519   7.779   7.100
20240WAT     H260963   2.516   7.939   7.133
20241WAT      O60964   7.382   0.455   8.609
20241WAT     H160965   7.420   0.373   8.566
20241WAT     H260966   7.440   0.481   8.686
20242WAT      O60967   1.694   3.940   3.172
20242WAT     H160968   1.665   4.015   3.113
20242WAT     H260969   1.660   3.955   3.265
20243WAT      O60970   0.213   0.640   5.285
20243WAT     H160971   0.303   0.618   5.249
20243WAT     H260972   0.209   0.616   5.383
20244WAT      O60973   5.902   3.194   7.235
20244WAT     H160974   5.814   3.174   7.277
20244WAT     H260975   5.941   3.277   7.277
20245WAT      O60976   7.929   4.477   5.084
20245WAT     H160977   8.026   4.473   5.062
20245WAT     H260978   7.902   4.571   5.104
20246WAT      O60979   0.762   6.149   4.517
20246WAT     H160980   0.767   6.237   4.564
20246WAT     H260981   0.792   6.161   4.422
20247WAT      O60982   3.793   4.473   3.898
20247WAT     H160983   3.706   4.440   3.937
20247WAT     H260984   3.860   4.398   3.901
20248WAT      O60985   4.521   6.398   0.618
20248WAT     H160986   4.598   6.416   0.557
20248WAT     H260987   4.451   6.468   0.605
20249WAT      O60988   8.212   1.275   2.601
20249WAT     H160989   8.182   1.183   2.573
20249WAT     H260990   8.172   1.343   2.540
20250WAT      O60991   8.022   9.080   3.700
20250WAT     H160992   8.050   9.176   3.712
20250WAT     H260993   8.083   9.021   3.753
20251WAT      O60994   5.755   0.417   4.580
20251WAT     H160995   5.852   0.427   4.604
20251WAT     H260996   5.724   0.325   4.605
20252WAT      O60997   3.577   1.539   9.381
20252WAT     H160998   3.661   1.588   9.357
20252WAT     H260999   3.597   1.469   9.449
20253WAT      O61000   4.483   7.841   7.317
20253WAT     H161001   4.430   7.756   7.316
20253WAT     H261002   4.575   7.822   7.352
20254WAT      O61003   2.818   4.196   0.872
20254WAT     H161004   2.820   4.100   0.843
20254WAT     H261005   2.904   4.219   0.918
20255WAT      O61006   6.859   5.688   7.790
20255WAT     H161007   6.817   5.751   7.724
20255WAT     H261008   6.869   5.598   7.748
20256WAT      O61009   8.177   1.329   9.853
20256WAT     H161010   8.174   1.303   9.757
20256WAT     H261011   8.163   1.248   9.910
20257WAT      O61012   8.756   9.307   2.723
20257WAT     H161013   8.793   9.214   2.724
20257WAT     H261014   8.662   9.306   2.688
20258WAT      O61015   4.754   9.321   3.268
20258WAT     H161016   4.782   9.415   3.250
20258WAT     H261017   4.834   9.262   3.274
20259WAT      O61018   8.899   7.595   1.488
20259WAT     H161019   8.952   7.531   1.431
20259WAT     H261020   8.962   7.653   1.539
20260WAT      O61021   8.721   3.417   5.726
20260WAT     H161022   8.630   3.387   5.696
20260WAT     H261023   8.717   3.514   5.749
20261WAT      O61024   2.485   0.196   1.957
20261WAT     H161025   2.556   0.265   1.944
20261WAT     H261026   2.527   0.111   1.988
20262WAT      O61027   3.334   2.004   2.103
20262WAT     H161028   3.309   1.976   2.196
20262WAT     H261029   3.272   2.076   2.072
20263WAT      O61030   7.605   4.463   5.760
20263WAT     H161031   7.564   4.397   5.823
20263WAT     H261032   7.560   4.551   5.768
20264WAT      O61033   1.320   1.561   3.613
20264WAT     H161034   1.292   1.653   3.642
20264WAT     H261035   1.364   1.514   3.690
20265WAT      O61036   7.810   8.398   9.309
20265WAT     H161037   7.777   8.476   9.256
20265WAT     H261038   7.815   8.317   9.250
20266WAT      O61039   5.057   2.728   5.401
20266WAT     H161040   4.976   2.784   5.383
20266WAT     H261041   5.112   2.720   5.318
20267WAT      O61042   3.375   3.872   7.606
20267WAT     H161043   3.281   3.890   7.638
20267WAT     H261044   3.388   3.913   7.516
20268WAT      O61045   4.521   1.755   9.434
20268WAT     H161046   4.469   1.824   9.484
20268WAT     H261047   4.488   1.664   9.459
20269WAT      O61048   5.670   7.562   3.317
20269WAT     H161049   5.740   7.608   3.262
20269WAT     H261050   5.642   7.622   3.391
20270WAT      O61051   2.139   0.465   7.138
20270WAT     H161052   2.120   0.432   7.230
20270WAT     H261053   2.235   0.494   7.132
20271WAT      O61054   0.769   1.782   5.646
20271WAT     H161055   0.685   1.800   5.697
20271WAT     H261056   0.771   1.686   5.618
20272WAT      O61057   1.581   5.708   0.304
20272WAT     H161058   1.489   5.745   0.313
20272WAT     H261059   1.607   5.662   0.389
20273WAT      O61060   7.774   6.387   9.697
20273WAT     H161061   7.715   6.306   9.688
20273WAT     H261062   7.867   6.363   9.671
20274WAT      O61063   8.134   6.392   2.144
20274WAT     H161064   8.042   6.359   2.122
20274WAT     H261065   8.134   6.492   2.146
20275WAT      O61066   6.898   5.204   6.329
20275WAT     H161067   6.956   5.139   6.280
20275WAT     H261068   6.805   5.199   6.293
20276WAT      O61069   0.141   2.598   5.022
20276WAT     H161070   0.090   2.635   5.100
20276WAT     H261071   0.098   2.513   4.991
20277WAT      O61072   2.402   5.815   0.655
20277WAT     H161073   2.324   5.875   0.672
20277WAT     H261074   2.402   5.740   0.721
20278WAT      O61075   6.271   3.548   1.671
20278WAT     H161076   6.301   3.515   1.581
20278WAT     H261077   6.175   3.523   1.685
20279WAT      O61078   3.279   5.074   3.031
20279WAT     H161079   3.260   4.979   3.007
20279WAT     H261080   3.296   5.127   2.948
20280WAT      O61081   6.437   8.642   7.706
20280WAT     H161082   6.521   8.698   7.702
20280WAT     H261083   6.391   8.658   7.793
20281WAT      O61084   4.276   1.463   4.769
20281WAT     H161085   4.263   1.562   4.761
20281WAT     H261086   4.189   1.419   4.792
20282WAT      O61087   2.001   8.802   3.372
20282WAT     H161088   1.997   8.736   3.297
20282WAT     H261089   1.910   8.838   3.390
20283WAT      O61090   3.875   6.817   7.184
20283WAT     H161091   3.848   6.731   7.227
20283WAT     H261092   3.946   6.861   7.240
20284WAT      O61093   7.782   6.639   0.959
20284WAT     H161094   7.739   6.676   0.876
20284WAT     H261095   7.750   6.690   1.039
20285WAT      O61096   8.448   8.738   6.499
20285WAT     H161097   8.523   8.709   6.440
20285WAT     H261098   8.416   8.828   6.471
20286WAT      O61099   6.178   6.825   5.583
20286WAT     H161100   6.175   6.727   5.604
20286WAT     H261101   6.091   6.853   5.541
20287WAT      O61102   0.674   9.665   5.293
20287WAT     H161103   0.770   9.683   5.268
20287WAT     H261104   0.667   9.576   5.337
20288WAT      O61105   4.249   8.897   9.363
20288WAT     H161106   4.197   8.817   9.392
20288WAT     H261107   4.332   8.904   9.418
20289WAT      O61108   5.213   4.499   0.340
20289WAT     H161109   5.264   4.413   0.349
20289WAT     H261110   5.115   4.480   0.339
20290WAT      O61111   4.744   3.913   1.773
20290WAT     H161112   4.792   3.931   1.687
20290WAT     H261113   4.695   3.995   1.801
20291WAT      O61114   6.422   3.722   6.574
20291WAT     H161115   6.409   3.636   6.623
20291WAT     H261116   6.469   3.787   6.633
20292WAT      O61117   1.675   9.139   5.988
20292WAT     H161118   1.603   9.206   5.967
20292WAT     H261119   1.659   9.102   6.079
20293WAT      O61120   2.281   5.328   9.770
20293WAT     H161121   2.288   5.340   9.671
20293WAT     H261122   2.295   5.416   9.816
20294WAT      O61123   6.729   6.634   5.342
20294WAT     H161124   6.676   6.550   5.356
20294WAT     H261125   6.791   6.646   5.420
20295WAT      O61126   3.685   0.717   0.915
20295WAT     H161127   3.660   0.807   0.949
20295WAT     H261128   3.745   0.727   0.835
20296WAT      O61129   0.490   1.285   2.363
20296WAT     H161130   0.504   1.374   2.319
20296WAT     H261131   0.536   1.214   2.311
20297WAT      O61132   8.752   0.498   3.744
20297WAT     H161133   8.759   0.487   3.645
20297WAT     H261134   8.811   0.573   3.773
20298WAT      O61135   2.252   4.170   3.736
20298WAT     H161136   2.296   4.158   3.825
20298WAT     H261137   2.267   4.088   3.680
20299WAT      O61138   8.705   5.043   7.862
20299WAT     H161139   8.650   5.005   7.937
20299WAT     H261140   8.647   5.101   7.805
20300WAT      O61141   8.952   5.082   0.083
20300WAT     H161142   8.900   5.166   0.068
20300WAT     H261143   8.916   5.009   0.025
20301WAT      O61144   7.868   5.983   5.896
20301WAT     H161145   7.954   6.023   5.862
20301WAT     H261146   7.792   6.041   5.868
20302WAT      O61147   1.609   8.694   0.516
20302WAT     H161148   1.632   8.639   0.596
20302WAT     H261149   1.535   8.757   0.539
20303WAT      O61150   7.570   9.699   8.394
20303WAT     H161151   7.664   9.706   8.360
20303WAT     H261152   7.522   9.627   8.344
20304WAT      O61153   8.540   6.561   0.431
20304WAT     H161154   8.505   6.524   0.345
20304WAT     H261155   8.463   6.588   0.489
20305WAT      O61156   2.631   8.066   1.071
20305WAT     H161157   2.602   8.023   0.985
20305WAT     H261158   2.697   8.006   1.117
20306WAT      O61159   0.340   3.615   4.447
20306WAT     H161160   0.286   3.608   4.364
20306WAT     H261161   0.280   3.628   4.526
20307WAT      O61162   2.587   0.595   4.998
20307WAT     H161163   2.513   0.532   4.974
20307WAT     H261164   2.664   0.580   4.937
20308WAT      O61165   9.205   6.032   8.957
20308WAT     H161166   9.179   5.946   8.913
20308WAT     H261167   9.171   6.032   9.051
20309WAT      O61168   2.855   4.561   1.137
20309WAT     H161169   2.767   4.557   1.184
20309WAT     H261170   2.876   4.655   1.113
20310WAT      O61171   5.002   9.379   9.056
20310WAT     H161172   4.911   9.337   9.049
20310WAT     H261173   5.002   9.447   9.129
20311WAT      O61174   7.400   2.952   8.311
20311WAT     H161175   7.471   2.981   8.246
20311WAT     H261176   7.326   3.019   8.310
20312WAT      O61177   2.932   2.434   4.582
20312WAT     H161178   2.969   2.410   4.672
20312WAT     H261179   2.905   2.530   4.582
20313WAT      O61180   1.848   6.384   6.583
20313WAT     H161181   1.921   6.446   6.555
20313WAT     H261182   1.869   6.347   6.674
20314WAT      O61183   8.980   9.493   4.696
20314WAT     H161184   9.045   9.435   4.745
20314WAT     H261185   9.025   9.579   4.672
20315WAT      O61186   1.441   2.968   2.065
20315WAT     H161187   1.369   2.961   2.134
20315WAT     H261188   1.440   2.886   2.008
20316WAT      O61189   4.563   6.301   7.929
20316WAT     H161190   4.463   6.293   7.923
20316WAT     H261191   4.592   6.287   8.024
20317WAT      O61192   2.077   0.482   2.904
20317WAT     H161193   2.023   0.560   2.875
20317WAT     H261194   2.080   0.414   2.831
20318WAT      O61195   2.672   0.498   8.845
20318WAT     H161196   2.597   0.557   8.817
20318WAT     H261197   2.657   0.406   8.809
20319WAT      O61198   7.131   2.326   2.785
20319WAT     H161199   7.178   2.406   2.750
20319WAT     H261200   7.138   2.251   2.719
20320WAT      O61201   2.964   1.746   1.765
20320WAT     H161202   3.035   1.804   1.806
20320WAT     H261203   3.001   1.654   1.752
20321WAT      O61204   8.477   9.712   3.507
20321WAT     H161205   8.425   9.684   3.426
20321WAT     H261206   8.493   9.810   3.504
20322WAT      O61207   6.857   9.001   6.507
20322WAT     H161208   6.937   8.945   6.484
20322WAT     H261209   6.880   9.061   6.584
20323WAT      O61210   8.928   4.189   1.476
20323WAT     H161211   8.921   4.154   1.569
20323WAT     H261212   8.999   4.260   1.473
20324WAT      O61213   1.070   1.531   6.524
20324WAT     H161214   1.141   1.460   6.520
20324WAT     H261215   0.997   1.508   6.460
20325WAT      O61216   5.977   4.368   2.560
20325WAT     H161217   5.925   4.375   2.475
20325WAT     H261218   6.011   4.275   2.571
20326WAT      O61219   5.549   4.972   7.500
20326WAT     H161220   5.596   4.934   7.420
20326WAT     H261221   5.504   5.057   7.475
20327WAT      O61222   6.001   8.536   7.315
20327WAT     H161223   6.022   8.439   7.308
20327WAT     H261224   5.924   8.549   7.377
20328WAT      O61225   1.142   5.053   8.821
20328WAT     H161226   1.221   5.099   8.861
20328WAT     H261227   1.148   4.955   8.839
20329WAT      O61228   6.352   7.277   1.298
20329WAT     H161229   6.441   7.296   1.256
20329WAT     H261230   6.345   7.325   1.385
20330WAT      O61231   1.182   6.790   4.151
20330WAT     H161232   1.241   6.728   4.203
20330WAT     H261233   1.092   6.749   4.139
20331WAT      O61234   4.860   6.900   2.418
20331WAT     H161235   4.813   6.818   2.450
20331WAT     H261236   4.847   6.909   2.319
20332WAT      O61237   1.761   6.073   1.449
20332WAT     H161238   1.704   6.122   1.384
20332WAT     H261239   1.708   6.000   1.492
20333WAT      O61240   0.666   2.984   7.228
20333WAT     H161241   0.675   2.938   7.139
20333WAT     H261242   0.569   2.997   7.249
20334WAT      O61243   1.288   5.404   6.210
20334WAT     H161244   1.284   5.482   6.273
20334WAT     H261245   1.285   5.437   6.116
20335WAT      O61246   0.099   3.954   0.024
20335WAT     H161247   0.147   4.033  -0.014
20335WAT     H261248   0.000   3.973   0.023
20336WAT      O61249   6.560   0.287   8.585
20336WAT     H161250   6.644   0.288   8.640
20336WAT     H261251   6.523   0.194   8.584
20337WAT      O61252   2.655   3.802   8.237
20337WAT     H161253   2.568   3.762   8.266
20337WAT     H261254   2.672   3.887   8.287
20338WAT      O61255   6.698   6.843   4.704
20338WAT     H161256   6.715   6.939   4.684
20338WAT     H261257   6.714   6.826   4.802
20339WAT      O61258   1.102   3.277   3.822
20339WAT     H161259   1.106   3.205   3.752
20339WAT     H261260   1.170   3.260   3.893
20340WAT      O61261   4.419   3.973   1.918
20340WAT     H161262   4.427   3.975   2.017
20340WAT     H261263   4.462   4.054   1.878
20341WAT      O61264   2.856   8.193   2.454
20341WAT     H161265   2.883   8.112   2.402
20341WAT     H261266   2.757   8.204   2.451
20342WAT      O61267   5.369   4.358   1.657
20342WAT     H161268   5.327   4.342   1.747
20342WAT     H261269   5.345   4.282   1.596
20343WAT      O61270   0.453   8.513   2.735
20343WAT     H161271   0.395   8.561   2.669
20343WAT     H261272   0.440   8.552   2.826
20344WAT      O61273   1.136   7.193   2.824
20344WAT     H161274   1.211   7.204   2.759
20344WAT     H261275   1.127   7.276   2.879
20345WAT      O61276   2.171   3.512   5.572
20345WAT     H161277   2.090   3.455   5.584
20345WAT     H261278   2.187   3.529   5.474
20346WAT      O61279   5.968   9.827   9.507
20346WAT     H161280   5.989   9.730   9.520
20346WAT     H261281   5.984   9.852   9.412
20347WAT      O61282   5.422   3.074   6.248
20347WAT     H161283   5.357   3.012   6.293
20347WAT     H261284   5.466   3.026   6.172
20348WAT      O61285   5.561   8.941   5.333
20348WAT     H161286   5.489   8.873   5.342
20348WAT     H261287   5.601   8.935   5.241
20349WAT      O61288   3.722   3.518   6.933
20349WAT     H161289   3.651   3.541   6.999
20349WAT     H261290   3.681   3.471   6.855
20350WAT      O61291   8.736   0.344   9.349
20350WAT     H161292   8.743   0.244   9.356
20350WAT     H261293   8.702   0.369   9.258
20351WAT      O61294   9.354   0.818   3.509
20351WAT     H161295   9.422   0.871   3.457
20351WAT     H261296   9.338   0.863   3.597
20352WAT      O61297   5.855   4.911   1.002
20352WAT     H161298   5.810   4.986   1.050
20352WAT     H261299   5.823   4.908   0.907
20353WAT      O61300   6.098   3.226   4.791
20353WAT     H161301   6.165   3.193   4.724
20353WAT     H261302   6.144   3.242   4.878
20354WAT      O61303   6.961   4.266   0.250
20354WAT     H161304   7.011   4.303   0.328
20354WAT     H261305   6.991   4.172   0.233
20355WAT      O61306   9.679   6.750   5.892
20355WAT     H161307   9.774   6.734   5.919
20355WAT     H261308   9.665   6.848   5.875
20356WAT      O61309   2.485   7.425   8.173
20356WAT     H161310   2.449   7.373   8.095
20356WAT     H261311   2.425   7.413   8.252
20357WAT      O61312   2.163   4.067   2.408
20357WAT     H161313   2.075   4.059   2.361
20357WAT     H261314   2.154   4.130   2.485
20358WAT      O61315   0.755   0.316   7.198
20358WAT     H161316   0.733   0.401   7.151
20358WAT     H261317   0.759   0.241   7.132
20359WAT      O61318   7.301   5.060   6.966
20359WAT     H161319   7.266   5.071   7.059
20359WAT     H261320   7.353   5.142   6.940
20360WAT      O61321   5.943   0.586   3.161
20360WAT     H161322   6.003   0.519   3.115
20360WAT     H261323   5.991   0.625   3.239
20361WAT      O61324   9.631   0.037   5.749
20361WAT     H161325   9.716   0.038   5.802
20361WAT     H261326   9.586  -0.051   5.760
20362WAT      O61327   6.504   8.302   2.733
20362WAT     H161328   6.496   8.208   2.698
20362WAT     H261329   6.460   8.308   2.823
20363WAT      O61330   1.479   1.060   2.631
20363WAT     H161331   1.490   1.093   2.725
20363WAT     H261332   1.430   1.129   2.577
20364WAT      O61333   0.470   9.689   1.235
20364WAT     H161334   0.460   9.617   1.303
20364WAT     H261335   0.520   9.654   1.156
20365WAT      O61336   7.715   1.068   3.382
20365WAT     H161337   7.660   1.044   3.302
20365WAT     H261338   7.721   0.988   3.442
20366WAT      O61339   7.242   6.142   1.944
20366WAT     H161340   7.208   6.226   1.900
20366WAT     H261341   7.264   6.075   1.873
20367WAT      O61342   5.044   4.726   2.249
20367WAT     H161343   5.052   4.673   2.334
20367WAT     H261344   4.949   4.750   2.234
20368WAT      O61345   4.824   1.306   6.528
20368WAT     H161346   4.884   1.262   6.595
20368WAT     H261347   4.809   1.245   6.451
20369WAT      O61348   5.718   8.344   8.309
20369WAT     H161349   5.677   8.276   8.249
20369WAT     H261350   5.805   8.309   8.345
20370WAT      O61351   5.398   1.966   3.611
20370WAT     H161352   5.491   1.995   3.590
20370WAT     H261353   5.334   2.040   3.588
20371WAT      O61354   3.736   3.362   7.932
20371WAT     H161355   3.693   3.281   7.892
20371WAT     H261356   3.686   3.389   8.014
20372WAT      O61357   6.158   6.330   0.664
20372WAT     H161358   6.147   6.231   0.654
20372WAT     H261359   6.091   6.377   0.607
20373WAT      O61360   7.968   9.520   1.711
20373WAT     H161361   8.049   9.572   1.687
20373WAT     H261362   7.969   9.431   1.665
20374WAT      O61363   5.428   8.096   2.949
20374WAT     H161364   5.488   8.082   2.871
20374WAT     H261365   5.341   8.049   2.933
20375WAT      O61366   3.940   9.707   1.674
20375WAT     H161367   3.878   9.731   1.599
20375WAT     H261368   3.947   9.607   1.681
20376WAT      O61369   1.602   9.411   8.847
20376WAT     H161370   1.580   9.313   8.853
20376WAT     H261371   1.685   9.423   8.792
20377WAT      O61372   4.773   0.890   1.060
20377WAT     H161373   4.800   0.906   1.154
20377WAT     H261374   4.793   0.795   1.035
20378WAT      O61375   0.143   2.401   4.149
20378WAT     H161376   0.155   2.450   4.236
20378WAT     H261377   0.089   2.319   4.165
20379WAT      O61378   4.719   5.672   3.210
20379WAT     H161379   4.649   5.733   3.249
20379WAT     H261380   4.744   5.704   3.119
20380WAT      O61381   1.953   8.281   7.100
20380WAT     H161382   1.905   8.211   7.153
20380WAT     H261383   2.005   8.237   7.027
20381WAT      O61384   4.297   1.953   9.004
20381WAT     H161385   4.291   1.912   9.095
20381WAT     H261386   4.267   1.888   8.935
20382WAT      O61387   7.151   6.352   1.174
20382WAT     H161388   7.114   6.337   1.266
20382WAT     H261389   7.248   6.327   1.173
20383WAT      O61390   7.958   4.669   3.343
20383WAT     H161391   7.944   4.585   3.292
20383WAT     H261392   7.870   4.711   3.364
20384WAT      O61393   1.633   8.344   6.889
20384WAT     H161394   1.720   8.308   6.856
20384WAT     H261395   1.584   8.387   6.813
20385WAT      O61396   5.082   6.186   8.667
20385WAT     H161397   5.066   6.263   8.605
20385WAT     H261398   5.149   6.123   8.625
20386WAT      O61399   3.534   9.098   7.393
20386WAT     H161400   3.435   9.096   7.411
20386WAT     H261401   3.580   9.033   7.453
20387WAT      O61402   6.119   1.420   2.722
20387WAT     H161403   6.072   1.465   2.798
20387WAT     H261404   6.061   1.346   2.686
20388WAT      O61405   8.079   2.413   4.081
20388WAT     H161406   8.119   2.325   4.055
20388WAT     H261407   8.075   2.473   4.002
20389WAT      O61408   2.259   5.249   4.141
20389WAT     H161409   2.165   5.217   4.133
20389WAT     H261410   2.317   5.177   4.178
20390WAT      O61411   7.487   8.389   2.371
20390WAT     H161412   7.425   8.321   2.408
20390WAT     H261413   7.436   8.473   2.351
20391WAT      O61414   5.930   0.892   6.700
20391WAT     H161415   5.836   0.924   6.693
20391WAT     H261416   5.939   0.833   6.781
20392WAT      O61417   1.771   7.365   5.694
20392WAT     H161418   1.844   7.388   5.759
20392WAT     H261419   1.785   7.416   5.610
20393WAT      O61420   8.016   1.144   0.561
20393WAT     H161421   8.100   1.158   0.508
20393WAT     H261422   8.027   1.186   0.651
20394WAT      O61423   0.488   4.016   4.415
20394WAT     H161424   0.480   3.962   4.499
20394WAT     H261425   0.421   3.984   4.348
20395WAT      O61426   7.015   8.146   6.857
20395WAT     H161427   7.105   8.168   6.894
20395WAT     H261428   7.025   8.121   6.760
20396WAT      O61429   7.036   7.096   8.124
20396WAT     H161430   6.980   7.038   8.065
20396WAT     H261431   7.130   7.062   8.125
20397WAT      O61432   0.421   7.204   4.206
20397WAT     H161433   0.436   7.199   4.305
20397WAT     H261434   0.396   7.114   4.171
20398WAT      O61435   6.797   2.628   5.744
20398WAT     H161436   6.697   2.621   5.751
20398WAT     H261437   6.827   2.585   5.659
20399WAT      O61438   0.154   7.193   9.237
20399WAT     H161439   0.155   7.155   9.330
20399WAT     H261440   0.060   7.208   9.208
20400WAT      O61441   6.483   5.036   7.532
20400WAT     H161442   6.486   5.025   7.432
20400WAT     H261443   6.482   4.946   7.575
20401WAT      O61444   2.007   8.903   3.674
20401WAT     H161445   1.956   8.989   3.667
20401WAT     H261446   1.984   8.844   3.597
20402WAT      O61447   3.793   9.125   7.995
20402WAT     H161448   3.866   9.060   8.014
20402WAT     H261449   3.792   9.147   7.898
20403WAT      O61450   3.520   0.063   0.290
20403WAT     H161451   3.613   0.031   0.305
20403WAT     H261452   3.466   0.051   0.373
20404WAT      O61453   5.810   0.022   7.671
20404WAT     H161454   5.741   0.053   7.737
20404WAT     H261455   5.794   0.067   7.583
20405WAT      O61456   4.551   3.006   9.263
20405WAT     H161457   4.600   3.042   9.342
20405WAT     H261458   4.588   2.916   9.239
20406WAT      O61459   8.967   9.161   8.706
20406WAT     H161460   8.888   9.217   8.685
20406WAT     H261461   8.981   9.094   8.633
20407WAT      O61462   5.447   1.409   4.734
20407WAT     H161463   5.462   1.499   4.693
20407WAT     H261464   5.376   1.417   4.805
20408WAT      O61465   8.386   7.733   3.257
20408WAT     H161466   8.473   7.765   3.294
20408WAT     H261467   8.395   7.638   3.228
20409WAT      O61468   4.367   9.108   7.380
20409WAT     H161469   4.465   9.098   7.398
20409WAT     H261470   4.344   9.205   7.373
20410WAT      O61471   6.368   6.754   9.080
20410WAT     H161472   6.460   6.715   9.071
20410WAT     H261473   6.324   6.755   8.991
20411WAT      O61474   1.137   1.097   3.819
20411WAT     H161475   1.097   1.175   3.866
20411WAT     H261476   1.196   1.130   3.745
20412WAT      O61477   6.532   0.396   6.859
20412WAT     H161478   6.577   0.451   6.788
20412WAT     H261479   6.589   0.395   6.941
20413WAT      O61480   8.467   0.166   3.476
20413WAT     H161481   8.558   0.208   3.478
20413WAT     H261482   8.398   0.234   3.503
20414WAT      O61483   9.612   9.811   3.668
20414WAT     H161484   9.520   9.782   3.694
20414WAT     H261485   9.670   9.811   3.749
20415WAT      O61486   9.665   5.402   9.530
20415WAT     H161487   9.741   5.464   9.550
20415WAT     H261488   9.627   5.426   9.440
20416WAT      O61489   3.887   7.214   7.201
20416WAT     H161490   3.843   7.295   7.162
20416WAT     H261491   3.818   7.145   7.219
20417WAT      O61492   6.380   8.155   8.044
20417WAT     H161493   6.417   8.092   7.976
20417WAT     H261494   6.352   8.240   7.999
20418WAT      O61495   6.919   9.499   6.419
20418WAT     H161496   6.889   9.441   6.494
20418WAT     H261497   6.879   9.468   6.334
20419WAT      O61498   1.191   7.136   3.176
20419WAT     H161499   1.190   7.140   3.276
20419WAT     H261500   1.129   7.205   3.139
20420WAT      O61501   2.946   4.411   9.746
20420WAT     H161502   2.846   4.412   9.739
20420WAT     H261503   2.975   4.334   9.803
20421WAT      O61504   3.613   8.156   8.286
20421WAT     H161505   3.596   8.058   8.273
20421WAT     H261506   3.567   8.187   8.369
20422WAT      O61507   5.324   6.720   5.958
20422WAT     H161508   5.224   6.711   5.950
20422WAT     H261509   5.358   6.658   6.028
20423WAT      O61510   2.354   3.133   5.100
20423WAT     H161511   2.270   3.140   5.046
20423WAT     H261512   2.389   3.224   5.119
20424WAT      O61513   6.767   2.525   0.163
20424WAT     H161514   6.673   2.518   0.129
20424WAT     H261515   6.805   2.614   0.138
20425WAT      O61516   5.534   0.236   3.475
20425WAT     H161517   5.480   0.200   3.400
20425WAT     H261518   5.473   0.267   3.548
20426WAT      O61519   0.831   6.206   8.397
20426WAT     H161520   0.807   6.158   8.312
20426WAT     H261521   0.747   6.232   8.444
20427WAT      O61522   4.317   1.541   0.300
20427WAT     H161523   4.317   1.635   0.267
20427WAT     H261524   4.385   1.531   0.373
20428WAT      O61525   2.666   3.459   0.629
20428WAT     H161526   2.619   3.429   0.547
20428WAT     H261527   2.643   3.399   0.705
20429WAT      O61528   7.653   9.117   8.003
20429WAT     H161529   7.741   9.072   7.987
20429WAT     H261530   7.580   9.064   7.962
20430WAT      O61531   0.066   6.735   0.729
20430WAT     H161532   0.104   6.715   0.639
20430WAT     H261533   0.067   6.652   0.785
20431WAT      O61534   5.581   6.827   8.675
20431WAT     H161535   5.492   6.854   8.636
20431WAT     H261536   5.570   6.808   8.772
20432WAT      O61537   3.992   5.626   5.376
20432WAT     H161538   4.038   5.579   5.451
20432WAT     H261539   4.044   5.708   5.352
20433WAT      O61540   9.161   2.898   2.115
20433WAT     H161541   9.085   2.960   2.098
20433WAT     H261542   9.211   2.928   2.196
20434WAT      O61543   4.186   4.213   4.936
20434WAT     H161544   4.194   4.293   4.996
20434WAT     H261545   4.234   4.231   4.850
20435WAT      O61546   3.035   9.787   7.490
20435WAT     H161547   2.985   9.767   7.575
20435WAT     H261548   3.129   9.757   7.500
20436WAT      O61549   0.292   8.551   7.087
20436WAT     H161550   0.264   8.538   7.182
20436WAT     H261551   0.248   8.633   7.049
20437WAT      O61552   1.236   0.778   8.726
20437WAT     H161553   1.243   0.679   8.735
20437WAT     H261554   1.321   0.814   8.687
20438WAT      O61555   2.758   3.653   5.997
20438WAT     H161556   2.794   3.591   5.927
20438WAT     H261557   2.831   3.716   6.026
20439WAT      O61558   3.859   8.636   2.645
20439WAT     H161559   3.941   8.600   2.600
20439WAT     H261560   3.795   8.561   2.662
20440WAT      O61561   6.562   3.739   2.320
20440WAT     H161562   6.624   3.818   2.317
20440WAT     H261563   6.484   3.756   2.261
20441WAT      O61564   1.928   8.919   8.476
20441WAT     H161565   1.834   8.890   8.461
20441WAT     H261566   1.951   8.994   8.414
20442WAT      O61567   4.606   4.992   2.705
20442WAT     H161568   4.685   5.040   2.745
20442WAT     H261569   4.629   4.896   2.694
20443WAT      O61570   3.712   3.868   7.433
20443WAT     H161571   3.691   3.824   7.520
20443WAT     H261572   3.688   3.807   7.357
20444WAT      O61573   7.565   8.609   5.976
20444WAT     H161574   7.593   8.523   6.019
20444WAT     H261575   7.523   8.590   5.887
20445WAT      O61576   2.281   2.995   5.335
20445WAT     H161577   2.345   3.060   5.293
20445WAT     H261578   2.190   3.036   5.341
20446WAT      O61579   8.188   0.530   6.579
20446WAT     H161580   8.174   0.443   6.626
20446WAT     H261581   8.106   0.555   6.528
20447WAT      O61582   6.198   8.227   9.077
20447WAT     H161583   6.214   8.307   9.018
20447WAT     H261584   6.286   8.196   9.114
20448WAT      O61585   6.012   7.019   9.392
20448WAT     H161586   6.109   7.014   9.370
20448WAT     H261587   5.966   7.082   9.330
20449WAT      O61588   2.291   1.409   5.458
20449WAT     H161589   2.293   1.459   5.371
20449WAT     H261590   2.262   1.315   5.440
20450WAT      O61591   6.116   8.154   7.847
20450WAT     H161592   6.054   8.116   7.916
20450WAT     H261593   6.106   8.253   7.845
20451WAT      O61594   7.990   1.656   2.823
20451WAT     H161595   7.903   1.690   2.788
20451WAT     H261596   8.017   1.710   2.903
20452WAT      O61597   3.341   6.749   0.798
20452WAT     H161598   3.390   6.718   0.717
20452WAT     H261599   3.270   6.815   0.772
20453WAT      O61600   1.752   2.009   7.466
20453WAT     H161601   1.806   2.080   7.421
20453WAT     H261602   1.740   1.932   7.403
20454WAT      O61603   3.604   4.909   8.836
20454WAT     H161604   3.589   4.956   8.749
20454WAT     H261605   3.517   4.875   8.871
20455WAT      O61606   7.415   0.559   8.064
20455WAT     H161607   7.351   0.549   7.988
20455WAT     H261608   7.414   0.654   8.096
20456WAT      O61609   3.826   1.389   7.148
20456WAT     H161610   3.794   1.456   7.080
20456WAT     H261611   3.895   1.329   7.105
20457WAT      O61612   3.827   3.637   0.239
20457WAT     H161613   3.847   3.733   0.259
20457WAT     H261614   3.877   3.610   0.156
20458WAT      O61615   0.765   8.343   4.696
20458WAT     H161616   0.778   8.250   4.660
20458WAT     H261617   0.675   8.350   4.739
20459WAT      O61618   4.691   3.538   1.156
20459WAT     H161619   4.751   3.585   1.221
20459WAT     H261620   4.669   3.599   1.081
20460WAT      O61621   3.949   7.685   3.943
20460WAT     H161622   4.020   7.615   3.957
20460WAT     H261623   3.950   7.714   3.848
20461WAT      O61624   6.845   3.659   4.990
20461WAT     H161625   6.924   3.644   4.930
20461WAT     H261626   6.872   3.718   5.066
20462WAT      O61627   2.005   2.299   1.715
20462WAT     H161628   1.990   2.291   1.617
20462WAT     H261629   1.964   2.220   1.762
20463WAT      O61630   9.745   3.387   6.265
20463WAT     H161631   9.653   3.421   6.247
20463WAT     H261632   9.741   3.304   6.319
20464WAT      O61633   9.111   5.279   2.994
20464WAT     H161634   9.106   5.367   2.947
20464WAT     H261635   9.083   5.206   2.931
20465WAT      O61636   4.650   1.101   0.986
20465WAT     H161637   4.703   1.185   1.000
20465WAT     H261638   4.704   1.022   1.013
20466WAT      O61639   1.931   9.475   7.618
20466WAT     H161640   1.867   9.507   7.549
20466WAT     H261641   2.017   9.450   7.574
20467WAT      O61642   0.811   6.448   3.323
20467WAT     H161643   0.840   6.462   3.418
20467WAT     H261644   0.863   6.374   3.282
20468WAT      O61645   2.061   6.050   2.801
20468WAT     H161646   2.109   6.098   2.874
20468WAT     H261647   2.033   5.960   2.832
20469WAT      O61648   1.015   0.297   1.367
20469WAT     H161649   0.986   0.201   1.358
20469WAT     H261650   0.937   0.352   1.397
20470WAT      O61651   7.513   7.725   7.592
20470WAT     H161652   7.420   7.713   7.557
20470WAT     H261653   7.515   7.700   7.689
20471WAT      O61654   3.319   4.761   5.779
20471WAT     H161655   3.278   4.805   5.700
20471WAT     H261656   3.251   4.702   5.824
20472WAT      O61657   8.888   2.514   3.660
20472WAT     H161658   8.853   2.485   3.572
20472WAT     H261659   8.814   2.516   3.727
20473WAT      O61660   7.648   4.913   7.629
20473WAT     H161661   7.710   4.981   7.591
20473WAT     H261662   7.695   4.826   7.639
20474WAT      O61663   9.339   5.789   5.797
20474WAT     H161664   9.414   5.732   5.763
20474WAT     H261665   9.311   5.757   5.887
20475WAT      O61666   7.662   3.800   6.643
20475WAT     H161667   7.733   3.849   6.693
20475WAT     H261668   7.588   3.775   6.706
20476WAT      O61669   6.929   1.571   4.013
20476WAT     H161670   6.967   1.645   4.068
20476WAT     H261671   6.893   1.499   4.073
20477WAT      O61672   1.951   3.723   0.898
20477WAT     H161673   2.043   3.698   0.866
20477WAT     H261674   1.953   3.815   0.936
20478WAT      O61675   2.648   0.581   7.648
20478WAT     H161676   2.560   0.533   7.637
20478WAT     H261677   2.722   0.519   7.623
20479WAT      O61678   4.728   0.896   5.344
20479WAT     H161679   4.794   0.971   5.336
20479WAT     H261680   4.724   0.866   5.439
20480WAT      O61681   0.891   2.441   7.104
20480WAT     H161682   0.923   2.360   7.153
20480WAT     H261683   0.852   2.412   7.016
20481WAT      O61684   5.473   8.021   1.759
20481WAT     H161685   5.448   7.930   1.792
20481WAT     H261686   5.459   8.088   1.832
20482WAT      O61687   5.139   5.798   2.702
20482WAT     H161688   5.188   5.816   2.617
20482WAT     H261689   5.048   5.762   2.682
20483WAT      O61690   8.844   2.669   6.436
20483WAT     H161691   8.820   2.644   6.342
20483WAT     H261692   8.932   2.628   6.460
20484WAT      O61693   8.252   2.217   2.715
20484WAT     H161694   8.237   2.214   2.814
20484WAT     H261695   8.303   2.137   2.686
20485WAT      O61696   7.335   4.356   4.434
20485WAT     H161697   7.282   4.417   4.493
20485WAT     H261698   7.431   4.385   4.433
20486WAT      O61699   8.289   1.685   3.328
20486WAT     H161700   8.382   1.652   3.310
20486WAT     H261701   8.293   1.779   3.362
20487WAT      O61702   4.953   4.256   2.389
20487WAT     H161703   4.992   4.282   2.301
20487WAT     H261704   4.947   4.157   2.395
20488WAT      O61705   2.797   1.469   8.605
20488WAT     H161706   2.821   1.374   8.625
20488WAT     H261707   2.702   1.486   8.634
20489WAT      O61708   1.900   4.647   7.142
20489WAT     H161709   1.823   4.612   7.195
20489WAT     H261710   1.866   4.698   7.063
20490WAT      O61711   3.728   6.689   5.134
20490WAT     H161712   3.728   6.737   5.047
20490WAT     H261713   3.821   6.685   5.170
20491WAT      O61714   8.991   7.465   3.101
20491WAT     H161715   8.915   7.517   3.140
20491WAT     H261716   9.074   7.519   3.105
20492WAT      O61717   2.594   6.995   0.449
20492WAT     H161718   2.556   6.905   0.427
20492WAT     H261719   2.578   7.057   0.372
20493WAT      O61720   7.820   5.538   1.118
20493WAT     H161721   7.911   5.504   1.095
20493WAT     H261722   7.791   5.499   1.206
20494WAT      O61723   5.106   9.323   5.586
20494WAT     H161724   5.095   9.360   5.493
20494WAT     H261725   5.202   9.306   5.604
20495WAT      O61726   9.132   4.265   5.982
20495WAT     H161727   9.183   4.350   5.966
20495WAT     H261728   9.051   4.285   6.037
20496WAT      O61729   3.038   6.456   5.307
20496WAT     H161730   3.103   6.424   5.376
20496WAT     H261731   3.078   6.447   5.216
20497WAT      O61732   4.591   3.524   8.370
20497WAT     H161733   4.601   3.503   8.467
20497WAT     H261734   4.658   3.594   8.344
20498WAT      O61735   3.548   1.709   6.617
20498WAT     H161736   3.644   1.737   6.613
20498WAT     H261737   3.490   1.784   6.588
20499WAT      O61738   5.319   0.552   4.176
20499WAT     H161739   5.359   0.583   4.262
20499WAT     H261740   5.302   0.630   4.116
20500WAT      O61741   8.032   7.158   2.476
20500WAT     H161742   8.048   7.214   2.557
20500WAT     H261743   8.043   7.214   2.394
20501WAT      O61744   4.322   9.512   7.162
20501WAT     H161745   4.316   9.578   7.087
20501WAT     H261746   4.344   9.422   7.125
20502WAT      O61747   7.007   4.420   7.083
20502WAT     H161748   6.959   4.358   7.020
20502WAT     H261749   6.941   4.458   7.148
20503WAT      O61750   3.569   6.047   8.616
20503WAT     H161751   3.529   6.009   8.699
20503WAT     H261752   3.658   6.006   8.599
20504WAT      O61753   4.384   7.598   8.538
20504WAT     H161754   4.394   7.695   8.514
20504WAT     H261755   4.295   7.584   8.581
20505WAT      O61756   5.993   3.472   4.085
20505WAT     H161757   5.926   3.520   4.141
20505WAT     H261758   5.970   3.375   4.080
20506WAT      O61759   4.316   8.798   6.529
20506WAT     H161760   4.339   8.883   6.576
20506WAT     H261761   4.384   8.778   6.459
20507WAT      O61762   9.281   0.278   8.415
20507WAT     H161763   9.265   0.377   8.417
20507WAT     H261764   9.231   0.235   8.491
20508WAT      O61765   9.239   3.093   2.991
20508WAT     H161766   9.205   3.164   3.053
20508WAT     H261767   9.325   3.056   3.027
20509WAT      O61768   0.875   6.835   2.026
20509WAT     H161769   0.807   6.801   2.091
20509WAT     H261770   0.921   6.915   2.066
20510WAT      O61771   7.107   1.302   0.021
20510WAT     H161772   7.017   1.290   0.063
20510WAT     H261773   7.159   1.371   0.072
20511WAT      O61774   4.721   2.065   8.267
20511WAT     H161775   4.758   2.091   8.356
20511WAT     H261776   4.707   1.965   8.264
20512WAT      O61777   4.215   2.785   9.062
20512WAT     H161778   4.133   2.836   9.087
20512WAT     H261779   4.214   2.696   9.107
20513WAT      O61780   9.106   3.098   1.232
20513WAT     H161781   9.205   3.107   1.221
20513WAT     H261782   9.065   3.071   1.145
20514WAT      O61783   7.510   0.842   9.201
20514WAT     H161784   7.482   0.937   9.185
20514WAT     H261785   7.587   0.841   9.265
20515WAT      O61786   9.042   5.760   8.594
20515WAT     H161787   9.077   5.793   8.681
20515WAT     H261788   9.072   5.666   8.580
20516WAT      O61789   1.336   8.370   4.685
20516WAT     H161790   1.265   8.439   4.701
20516WAT     H261791   1.360   8.326   4.771
20517WAT      O61792   3.897   6.798   1.869
20517WAT     H161793   3.948   6.719   1.903
20517WAT     H261794   3.881   6.789   1.771
20518WAT      O61795   5.157   3.060   6.133
20518WAT     H161796   5.132   2.965   6.151
20518WAT     H261797   5.248   3.063   6.092
20519WAT      O61798   3.410   2.871   5.908
20519WAT     H161799   3.359   2.956   5.892
20519WAT     H261800   3.354   2.793   5.879
20520WAT      O61801   5.885   7.909   6.604
20520WAT     H161802   5.804   7.962   6.631
20520WAT     H261803   5.940   7.962   6.540
20521WAT      O61804   8.855   8.163   0.710
20521WAT     H161805   8.953   8.180   0.706
20521WAT     H261806   8.838   8.065   0.702
20522WAT      O61807   7.260   2.211   4.535
20522WAT     H161808   7.207   2.266   4.470
20522WAT     H261809   7.204   2.193   4.616
20523WAT      O61810   0.531   4.257   3.998
20523WAT     H161811   0.498   4.167   3.967
20523WAT     H261812   0.600   4.291   3.935
20524WAT      O61813   8.323   9.742   2.210
20524WAT     H161814   8.371   9.703   2.289
20524WAT     H261815   8.369   9.827   2.183
20525WAT      O61816   2.672   5.217   7.022
20525WAT     H161817   2.651   5.301   7.071
20525WAT     H261818   2.588   5.166   7.003
20526WAT      O61819   5.973   2.450   3.651
20526WAT     H161820   6.071   2.445   3.631
20526WAT     H261821   5.958   2.432   3.748
20527WAT      O61822   1.417   2.615   1.040
20527WAT     H161823   1.512   2.625   1.069
20527WAT     H261824   1.359   2.679   1.090
20528WAT      O61825   3.919   3.918   0.750
20528WAT     H161826   4.001   3.861   0.759
20528WAT     H261827   3.841   3.861   0.724
20529WAT      O61828   4.239   0.955   7.256
20529WAT     H161829   4.153   0.915   7.226
20529WAT     H261830   4.257   1.038   7.203
20530WAT      O61831   0.842   7.318   7.532
20530WAT     H161832   0.754   7.364   7.521
20530WAT     H261833   0.833   7.222   7.506
20531WAT      O61834   6.460   6.629   9.836
20531WAT     H161835   6.458   6.676   9.748
20531WAT     H261836   6.531   6.670   9.894
20532WAT      O61837   4.873   4.823   0.345
20532WAT     H161838   4.906   4.779   0.262
20532WAT     H261839   4.885   4.922   0.337
20533WAT      O61840   7.419   5.065   1.514
20533WAT     H161841   7.379   5.157   1.504
20533WAT     H261842   7.346   4.997   1.520
20534WAT      O61843   4.143   1.724   5.896
20534WAT     H161844   4.190   1.806   5.865
20534WAT     H261845   4.172   1.703   5.990
20535WAT      O61846   8.460   1.567   3.936
20535WAT     H161847   8.437   1.524   3.848
20535WAT     H261848   8.550   1.609   3.930
20536WAT      O61849   1.106   2.575   7.079
20536WAT     H161850   1.018   2.529   7.076
20536WAT     H261851   1.103   2.657   7.021
20537WAT      O61852   7.116   2.040   3.418
20537WAT     H161853   7.090   2.129   3.379
20537WAT     H261854   7.192   2.002   3.365
20538WAT      O61855   8.365   7.208   1.267
20538WAT     H161856   8.435   7.236   1.333
20538WAT     H261857   8.349   7.109   1.276
20539WAT      O61858   2.511   5.827   2.362
20539WAT     H161859   2.602   5.792   2.385
20539WAT     H261860   2.462   5.849   2.446
20540WAT      O61861   8.550   5.564   0.948
20540WAT     H161862   8.619   5.517   0.893
20540WAT     H261863   8.464   5.512   0.945
20541WAT      O61864   1.804   9.223   6.976
20541WAT     H161865   1.870   9.162   6.932
20541WAT     H261866   1.832   9.240   7.070
20542WAT      O61867   2.394   0.624   8.527
20542WAT     H161868   2.313   0.676   8.499
20542WAT     H261869   2.368   0.530   8.547
20543WAT      O61870   0.721   8.560   8.329
20543WAT     H161871   0.628   8.525   8.315
20543WAT     H261872   0.768   8.502   8.396
20544WAT      O61873   4.206   2.844   3.478
20544WAT     H161874   4.189   2.799   3.566
20544WAT     H261875   4.258   2.782   3.419
20545WAT      O61876   5.489   3.894   2.237
20545WAT     H161877   5.477   3.847   2.325
20545WAT     H261878   5.479   3.992   2.250
20546WAT      O61879   6.120   7.455   2.277
20546WAT     H161880   6.065   7.394   2.335
20546WAT     H261881   6.180   7.399   2.219
20547WAT      O61882   1.285   0.864   4.241
20547WAT     H161883   1.187   0.866   4.223
20547WAT     H261884   1.304   0.805   4.319
20548WAT      O61885   3.008   5.674   1.773
20548WAT     H161886   2.995   5.591   1.718
20548WAT     H261887   2.964   5.751   1.727
20549WAT      O61888   9.533   6.173   9.887
20549WAT     H161889   9.574   6.188   9.977
20549WAT     H261890   9.465   6.244   9.868
20550WAT      O61891   8.884   2.518   9.182
20550WAT     H161892   8.881   2.461   9.100
20550WAT     H261893   8.914   2.610   9.157
20551WAT      O61894   8.343   3.250   4.875
20551WAT     H161895   8.303   3.176   4.930
20551WAT     H261896   8.432   3.222   4.841
20552WAT      O61897   6.275   5.431   8.344
20552WAT     H161898   6.307   5.464   8.255
20552WAT     H261899   6.354   5.411   8.402
20553WAT      O61900   1.346   0.634   3.448
20553WAT     H161901   1.301   0.718   3.418
20553WAT     H261902   1.361   0.575   3.369
20554WAT      O61903   0.171   4.263   1.038
20554WAT     H161904   0.079   4.294   1.060
20554WAT     H261905   0.221   4.335   0.990
20555WAT      O61906   8.980   4.818   6.924
20555WAT     H161907   8.938   4.766   6.850
20555WAT     H261908   8.956   4.777   7.012
20556WAT      O61909   5.126   9.554   2.240
20556WAT     H161910   5.202   9.615   2.260
20556WAT     H261911   5.082   9.582   2.155
20557WAT      O61912   5.670   1.501   8.557
20557WAT     H161913   5.580   1.469   8.585
20557WAT     H261914   5.673   1.512   8.458
20558WAT      O61915   0.130   8.505   6.592
20558WAT     H161916   0.139   8.452   6.508
20558WAT     H261917   0.114   8.601   6.568
20559WAT      O61918   1.329   5.421   0.160
20559WAT     H161919   1.402   5.433   0.093
20559WAT     H261920   1.249   5.474   0.133
20560WAT      O61921   1.786   9.553   6.348
20560WAT     H161922   1.748   9.563   6.440
20560WAT     H261923   1.877   9.513   6.353
20561WAT      O61924   0.756   3.886   9.110
20561WAT     H161925   0.852   3.869   9.088
20561WAT     H261926   0.729   3.975   9.072
20562WAT      O61927   1.863   7.869   8.961
20562WAT     H161928   1.807   7.928   9.018
20562WAT     H261929   1.806   7.827   8.890
20563WAT      O61930   6.058   5.390   6.588
20563WAT     H161931   6.137   5.337   6.618
20563WAT     H261932   5.983   5.328   6.567
20564WAT      O61933   4.489   1.724   3.787
20564WAT     H161934   4.465   1.660   3.859
20564WAT     H261935   4.421   1.798   3.784
20565WAT      O61936   2.009   8.679   0.596
20565WAT     H161937   1.984   8.682   0.499
20565WAT     H261938   2.004   8.584   0.629
20566WAT      O61939   6.289   6.966   5.383
20566WAT     H161940   6.384   6.937   5.376
20566WAT     H261941   6.252   6.940   5.472
20567WAT      O61942   2.058   7.179   2.056
20567WAT     H161943   2.049   7.080   2.051
20567WAT     H261944   2.001   7.222   1.986
20568WAT      O61945   2.095   8.873   5.743
20568WAT     H161946   2.146   8.789   5.725
20568WAT     H261947   2.036   8.894   5.665
20569WAT      O61948   6.365   2.917   4.699
20569WAT     H161949   6.327   2.898   4.789
20569WAT     H261950   6.307   2.983   4.651
20570WAT      O61951   5.876   0.343   9.134
20570WAT     H161952   5.842   0.422   9.084
20570WAT     H261953   5.889   0.368   9.230
20571WAT      O61954   2.400   3.903   6.678
20571WAT     H161955   2.448   3.900   6.590
20571WAT     H261956   2.464   3.879   6.752
20572WAT      O61957   2.067   6.968   1.634
20572WAT     H161958   2.133   7.043   1.629
20572WAT     H261959   2.109   6.889   1.679
20573WAT      O61960   5.906   7.446   1.602
20573WAT     H161961   5.861   7.475   1.518
20573WAT     H261962   6.004   7.462   1.595
20574WAT      O61963   7.682   5.859   9.359
20574WAT     H161964   7.627   5.808   9.425
20574WAT     H261965   7.661   5.956   9.366
20575WAT      O61966   2.577   2.632   6.467
20575WAT     H161967   2.669   2.632   6.508
20575WAT     H261968   2.513   2.586   6.528
20576WAT      O61969   2.641   4.271   0.076
20576WAT     H161970   2.589   4.355   0.091
20576WAT     H261971   2.579   4.192   0.078
20577WAT      O61972   3.154   1.502   4.464
20577WAT     H161973   3.214   1.435   4.509
20577WAT     H261974   3.193   1.593   4.475
20578WAT      O61975   9.346   5.892   4.046
20578WAT     H161976   9.294   5.810   4.024
20578WAT     H261977   9.426   5.868   4.100
20579WAT      O61978   6.719   6.288   2.293
20579WAT     H161979   6.672   6.202   2.309
20579WAT     H261980   6.805   6.270   2.245
20580WAT      O61981   7.527   2.884   5.073
20580WAT     H161982   7.520   2.853   5.168
20580WAT     H261983   7.553   2.980   5.072
20581WAT      O61984   6.086   8.161   8.673
20581WAT     H161985   6.154   8.234   8.685
20581WAT     H261986   6.045   8.139   8.761
20582WAT      O61987   7.623   6.240   7.331
20582WAT     H161988   7.709   6.228   7.280
20582WAT     H261989   7.558   6.170   7.303
20583WAT      O61990   0.216   7.640   4.668
20583WAT     H161991   0.310   7.669   4.681
20583WAT     H261992   0.211   7.575   4.593
20584WAT      O61993   8.084   6.066   1.451
20584WAT     H161994   8.022   6.132   1.493
20584WAT     H261995   8.178   6.099   1.459
20585WAT      O61996   1.174   4.003   3.692
20585WAT     H161997   1.105   3.932   3.704
20585WAT     H261998   1.170   4.066   3.769
20586WAT      O61999   4.988   7.382   1.504
20586WAT     H162000   5.041   7.321   1.444
20586WAT     H262001   4.894   7.387   1.470
20587WAT      O62002   7.546   9.347   1.069
20587WAT     H162003   7.640   9.378   1.058
20587WAT     H262004   7.490   9.423   1.102
20588WAT      O62005   9.058   2.714   1.628
20588WAT     H162006   9.045   2.781   1.554
20588WAT     H262007   9.156   2.706   1.648
20589WAT      O62008   2.932   9.526   8.710
20589WAT     H162009   2.975   9.535   8.800
20589WAT     H262010   2.913   9.430   8.693
20590WAT      O62011   2.567   7.164   6.325
20590WAT     H162012   2.468   7.153   6.329
20590WAT     H262013   2.609   7.075   6.306
20591WAT      O62014   1.754   0.958   4.088
20591WAT     H162015   1.700   1.016   4.026
20591WAT     H262016   1.692   0.901   4.142
20592WAT      O62017   6.023   4.348   7.642
20592WAT     H162018   5.944   4.382   7.693
20592WAT     H262019   6.002   4.347   7.545
20593WAT      O62020   0.522   7.728   5.041
20593WAT     H162021   0.481   7.660   5.101
20593WAT     H262022   0.567   7.799   5.095
20594WAT      O62023   0.931   0.068   9.283
20594WAT     H162024   0.944   0.168   9.283
20594WAT     H262025   0.844   0.046   9.328
20595WAT      O62026   6.535   2.510   0.053
20595WAT     H162027   6.539   2.526  -0.046
20595WAT     H262028   6.490   2.423   0.071
20596WAT      O62029   3.798   9.474   5.620
20596WAT     H162030   3.764   9.566   5.600
20596WAT     H262031   3.856   9.477   5.701
20597WAT      O62032   8.345   7.354   2.482
20597WAT     H162033   8.375   7.369   2.388
20597WAT     H262034   8.379   7.266   2.514
20598WAT      O62035   7.561   9.121   5.890
20598WAT     H162036   7.507   9.122   5.974
20598WAT     H262037   7.561   9.028   5.852
20599WAT      O62038   7.549   5.675   0.939
20599WAT     H162039   7.614   5.608   0.901
20599WAT     H262040   7.462   5.629   0.958
20600WAT      O62041   5.112   5.233   1.385
20600WAT     H162042   5.171   5.165   1.430
20600WAT     H262043   5.047   5.270   1.452
20601WAT      O62044   3.284   6.600   8.232
20601WAT     H162045   3.378   6.608   8.200
20601WAT     H262046   3.225   6.572   8.156
20602WAT      O62047   2.790   7.078   5.632
20602WAT     H162048   2.768   7.146   5.703
20602WAT     H262049   2.855   7.118   5.567
20603WAT      O62050   3.779   9.396   4.749
20603WAT     H162051   3.766   9.471   4.684
20603WAT     H262052   3.691   9.351   4.765
20604WAT      O62053   4.142   4.529   2.074
20604WAT     H162054   4.238   4.550   2.094
20604WAT     H262055   4.089   4.528   2.159
20605WAT      O62056   3.113   6.006   1.069
20605WAT     H162057   3.066   5.932   1.021
20605WAT     H262058   3.126   5.981   1.165
20606WAT      O62059   2.922   4.718   4.521
20606WAT     H162060   2.977   4.757   4.447
20606WAT     H262061   2.938   4.770   4.605
20607WAT      O62062   6.387   9.186   2.156
20607WAT     H162063   6.473   9.223   2.121
20607WAT     H262064   6.313   9.208   2.093
20608WAT      O62065   3.554   5.727   0.372
20608WAT     H162066   3.516   5.657   0.433
20608WAT     H262067   3.651   5.709   0.358
20609WAT      O62068   1.226   6.370   2.341
20609WAT     H162069   1.193   6.365   2.436
20609WAT     H262070   1.237   6.466   2.315
20610WAT      O62071   3.339   0.422   6.392
20610WAT     H162072   3.346   0.521   6.379
20610WAT     H262073   3.251   0.390   6.357
20611WAT      O62074   8.000   4.351   0.650
20611WAT     H162075   8.063   4.426   0.667
20611WAT     H262076   8.043   4.264   0.677
20612WAT      O62077   9.120   4.476   8.283
20612WAT     H162078   9.035   4.448   8.326
20612WAT     H262079   9.118   4.575   8.268
20613WAT      O62080   7.414   9.631   0.826
20613WAT     H162081   7.416   9.569   0.904
20613WAT     H262082   7.320   9.648   0.798
20614WAT      O62083   9.360   6.024   3.299
20614WAT     H162084   9.343   5.994   3.393
20614WAT     H262085   9.428   5.965   3.257
20615WAT      O62086   5.320   5.067   6.540
20615WAT     H162087   5.298   5.142   6.602
20615WAT     H262088   5.408   5.084   6.497
20616WAT      O62089   7.671   4.138   6.108
20616WAT     H162090   7.751   4.113   6.052
20616WAT     H262091   7.636   4.057   6.154
20617WAT      O62092   6.962   3.902   6.773
20617WAT     H162093   6.877   3.953   6.779
20617WAT     H262094   6.964   3.832   6.844
20618WAT      O62095   9.077   1.929   7.491
20618WAT     H162096   9.056   1.841   7.533
20618WAT     H262097   9.173   1.931   7.463
20619WAT      O62098   2.096   4.988   0.428
20619WAT     H162099   2.050   5.076   0.421
20619WAT     H262100   2.040   4.918   0.384
20620WAT      O62101   5.174   5.889   8.947
20620WAT     H162102   5.135   5.864   8.859
20620WAT     H262103   5.236   5.817   8.978
20621WAT      O62104   6.288   7.969   3.626
20621WAT     H162105   6.335   7.945   3.711
20621WAT     H262106   6.350   8.021   3.567
20622WAT      O62107   4.502   2.865   7.014
20622WAT     H162108   4.579   2.907   7.063
20622WAT     H262109   4.433   2.835   7.080
20623WAT      O62110   7.072   0.622   5.510
20623WAT     H162111   7.116   0.554   5.570
20623WAT     H262112   7.142   0.682   5.471
20624WAT      O62113   9.238   2.308   1.492
20624WAT     H162114   9.145   2.344   1.503
20624WAT     H262115   9.278   2.290   1.582
20625WAT      O62116   1.439   4.309   3.917
20625WAT     H162117   1.407   4.278   3.827
20625WAT     H262118   1.375   4.378   3.953
20626WAT      O62119   3.661   0.661   7.716
20626WAT     H162120   3.725   0.738   7.703
20626WAT     H262121   3.568   0.697   7.725
20627WAT      O62122   7.931   0.589   5.729
20627WAT     H162123   8.011   0.530   5.742
20627WAT     H262124   7.904   0.589   5.633
20628WAT      O62125   2.451   3.656   7.559
20628WAT     H162126   2.524   3.637   7.493
20628WAT     H262127   2.483   3.724   7.625
20629WAT      O62128   5.871   5.604   0.125
20629WAT     H162129   5.780   5.563   0.128
20629WAT     H262130   5.919   5.571   0.044
20630WAT      O62131   3.209   8.570   8.723
20630WAT     H162132   3.267   8.643   8.688
20630WAT     H262133   3.139   8.608   8.784
20631WAT      O62134   9.594   1.456   7.335
20631WAT     H162135   9.573   1.359   7.326
20631WAT     H262136   9.509   1.509   7.332
20632WAT      O62137   7.851   5.747   5.977
20632WAT     H162138   7.834   5.844   5.960
20632WAT     H262139   7.804   5.693   5.908
20633WAT      O62140   6.728   7.257   5.168
20633WAT     H162141   6.813   7.222   5.128
20633WAT     H262142   6.653   7.243   5.103
20634WAT      O62143   5.603   0.718   1.689
20634WAT     H162144   5.509   0.735   1.658
20634WAT     H262145   5.665   0.779   1.640
20635WAT      O62146   9.142   8.634   6.866
20635WAT     H162147   9.159   8.700   6.793
20635WAT     H262148   9.046   8.642   6.896
20636WAT      O62149   9.878   0.515   6.265
20636WAT     H162150   9.962   0.505   6.319
20636WAT     H262151   9.899   0.557   6.177
20637WAT      O62152   4.978   6.910   3.189
20637WAT     H162153   5.026   6.910   3.101
20637WAT     H262154   4.901   6.847   3.185
20638WAT      O62155   2.983   2.049   8.868
20638WAT     H162156   2.934   1.971   8.828
20638WAT     H262157   3.072   2.058   8.824
20639WAT      O62158   2.453   2.493   7.419
20639WAT     H162159   2.469   2.571   7.357
20639WAT     H262160   2.500   2.509   7.506
20640WAT      O62161   3.965   7.179   1.181
20640WAT     H162162   3.878   7.199   1.226
20640WAT     H262163   3.948   7.150   1.087
20641WAT      O62164   4.208   8.978   5.516
20641WAT     H162165   4.214   9.078   5.526
20641WAT     H262166   4.268   8.934   5.582
20642WAT      O62167   0.356   0.917   3.856
20642WAT     H162168   0.289   0.989   3.871
20642WAT     H262169   0.445   0.957   3.834
20643WAT      O62170   4.499   6.519   8.696
20643WAT     H162171   4.424   6.495   8.634
20643WAT     H262172   4.507   6.450   8.767
20644WAT      O62173   7.085   9.124   3.955
20644WAT     H162174   7.088   9.180   4.038
20644WAT     H262175   7.047   9.178   3.880
20645WAT      O62176   6.650   1.048   6.173
20645WAT     H162177   6.737   1.051   6.222
20645WAT     H262178   6.591   1.123   6.205
20646WAT      O62179   4.225   7.726   0.599
20646WAT     H162180   4.211   7.652   0.533
20646WAT     H262181   4.222   7.689   0.691
20647WAT      O62182   3.032   7.653   9.222
20647WAT     H162183   3.042   7.726   9.290
20647WAT     H262184   3.040   7.564   9.268
20648WAT      O62185   6.480   7.890   3.794
20648WAT     H162186   6.564   7.900   3.741
20648WAT     H262187   6.465   7.974   3.848
20649WAT      O62188   8.278   8.589   3.918
20649WAT     H162189   8.348   8.660   3.911
20649WAT     H262190   8.320   8.499   3.910
20650WAT      O62191   2.408   6.828   9.555
20650WAT     H162192   2.397   6.894   9.480
20650WAT     H262193   2.500   6.789   9.552
20651WAT      O62194   1.773   2.728   2.328
20651WAT     H162195   1.834   2.792   2.281
20651WAT     H262196   1.715   2.777   2.392
20652WAT      O62197   4.920   9.670   1.787
20652WAT     H162198   4.977   9.625   1.717
20652WAT     H262199   4.936   9.628   1.876
20653WAT      O62200   6.672   6.157   0.926
20653WAT     H162201   6.684   6.257   0.923
20653WAT     H262202   6.655   6.123   0.834
20654WAT      O62203   9.585   5.268   0.415
20654WAT     H162204   9.598   5.308   0.325
20654WAT     H262205   9.531   5.185   0.408
20655WAT      O62206   5.300   9.658   1.134
20655WAT     H162207   5.224   9.674   1.070
20655WAT     H262208   5.264   9.617   1.218
20656WAT      O62209   1.609   3.012   7.595
20656WAT     H162210   1.520   2.973   7.569
20656WAT     H262211   1.647   2.962   7.672
20657WAT      O62212   9.698   8.705   7.655
20657WAT     H162213   9.606   8.724   7.690
20657WAT     H262214   9.703   8.609   7.626
20658WAT      O62215   7.717   2.178   7.436
20658WAT     H162216   7.666   2.155   7.519
20658WAT     H262217   7.654   2.182   7.359
20659WAT      O62218   9.672   3.895   5.096
20659WAT     H162219   9.586   3.847   5.113
20659WAT     H262220   9.713   3.861   5.011
20660WAT      O62221   5.187   6.800   8.655
20660WAT     H162222   5.252   6.771   8.584
20660WAT     H262223   5.216   6.888   8.692
20661WAT      O62224   5.228   7.661   1.707
20661WAT     H162225   5.255   7.699   1.619
20661WAT     H262226   5.297   7.596   1.738
20662WAT      O62227   0.889   2.099   8.938
20662WAT     H162228   0.853   2.086   8.846
20662WAT     H262229   0.979   2.142   8.933
20663WAT      O62230   6.202   4.205   2.287
20663WAT     H162231   6.243   4.151   2.213
20663WAT     H262232   6.240   4.298   2.284
20664WAT      O62233   0.011   4.961   8.279
20664WAT     H162234   0.041   4.867   8.266
20664WAT     H262235   0.085   5.013   8.323
20665WAT      O62236   2.414   8.751   8.736
20665WAT     H162237   2.476   8.824   8.706
20665WAT     H262238   2.371   8.708   8.657
20666WAT      O62239   8.112   5.254   1.319
20666WAT     H162240   8.108   5.156   1.301
20666WAT     H262241   8.043   5.278   1.388
20667WAT      O62242   3.602   2.533   8.408
20667WAT     H162243   3.510   2.513   8.375
20667WAT     H262244   3.644   2.448   8.440
20668WAT      O62245   3.428   5.143   1.159
20668WAT     H162246   3.437   5.060   1.105
20668WAT     H262247   3.358   5.202   1.118
20669WAT      O62248   1.596   0.570   8.842
20669WAT     H162249   1.675   0.512   8.863
20669WAT     H262250   1.543   0.528   8.768
20670WAT      O62251   9.309   2.070   7.731
20670WAT     H162252   9.248   2.138   7.691
20670WAT     H262253   9.312   2.083   7.831
20671WAT      O62254   9.838   8.440   5.039
20671WAT     H162255   9.792   8.383   5.108
20671WAT     H262256   9.772   8.505   5.001
20672WAT      O62257   7.268   1.668   0.611
20672WAT     H162258   7.352   1.651   0.663
20672WAT     H262259   7.273   1.758   0.567
20673WAT      O62260   3.396   4.413   6.387
20673WAT     H162261   3.391   4.512   6.399
20673WAT     H262262   3.453   4.373   6.459
20674WAT      O62263   9.131   1.930   9.226
20674WAT     H162264   9.208   1.870   9.245
20674WAT     H262265   9.047   1.889   9.262
20675WAT      O62266   9.759   9.359   2.133
20675WAT     H162267   9.702   9.359   2.215
20675WAT     H262268   9.768   9.265   2.099
20676WAT      O62269   3.441   7.698   7.665
20676WAT     H162270   3.521   7.665   7.614
20676WAT     H262271   3.411   7.785   7.626
20677WAT      O62272   6.008   2.568   0.649
20677WAT     H162273   6.083   2.634   0.635
20677WAT     H262274   6.036   2.501   0.718
20678WAT      O62275   5.556   9.183   9.400
20678WAT     H162276   5.566   9.120   9.477
20678WAT     H262277   5.480   9.153   9.342
20679WAT      O62278   1.059   3.259   8.897
20679WAT     H162279   1.029   3.281   8.990
20679WAT     H262280   1.099   3.341   8.855
20680WAT      O62281   2.241   7.927   7.011
20680WAT     H162282   2.194   8.001   7.059
20680WAT     H262283   2.319   7.897   7.066
20681WAT      O62284   5.592   9.695   3.844
20681WAT     H162285   5.634   9.709   3.754
20681WAT     H262286   5.583   9.597   3.861
20682WAT      O62287   4.455   0.449   2.080
20682WAT     H162288   4.482   0.397   1.998
20682WAT     H262289   4.521   0.433   2.153
20683WAT      O62290   2.668   3.007   0.330
20683WAT     H162291   2.745   2.948   0.352
20683WAT     H262292   2.701   3.092   0.289
20684WAT      O62293   8.641   8.720   9.580
20684WAT     H162294   8.653   8.729   9.481
20684WAT     H262295   8.584   8.641   9.600
20685WAT      O62296   5.279   0.045   6.770
20685WAT     H162297   5.359   0.046   6.831
20685WAT     H262298   5.288   0.119   6.703
20686WAT      O62299   3.955   0.542   9.723
20686WAT     H162300   3.935   0.569   9.818
20686WAT     H262301   3.987   0.622   9.672
20687WAT      O62302   7.767   8.525   2.147
20687WAT     H162303   7.756   8.433   2.108
20687WAT     H262304   7.688   8.581   2.122
20688WAT      O62305   3.750   8.547   4.555
20688WAT     H162306   3.828   8.484   4.554
20688WAT     H262307   3.668   8.499   4.585
20689WAT      O62308   9.770   7.842   1.206
20689WAT     H162309   9.809   7.890   1.128
20689WAT     H262310   9.842   7.820   1.272
20690WAT      O62311   4.146   7.670   7.937
20690WAT     H162312   4.097   7.684   8.023
20690WAT     H262313   4.213   7.743   7.925
20691WAT      O62314   2.284   2.694   6.033
20691WAT     H162315   2.363   2.646   6.072
20691WAT     H262316   2.296   2.792   6.044
20692WAT      O62317   7.495   7.117   2.325
20692WAT     H162318   7.453   7.057   2.257
20692WAT     H262319   7.500   7.071   2.413
20693WAT      O62320   7.411   8.454   3.038
20693WAT     H162321   7.465   8.382   2.992
20693WAT     H262322   7.382   8.522   2.970
20694WAT      O62323   3.263   6.189   7.760
20694WAT     H162324   3.165   6.209   7.755
20694WAT     H262325   3.310   6.230   7.682
20695WAT      O62326   4.245   5.195   6.745
20695WAT     H162327   4.280   5.286   6.769
20695WAT     H262328   4.300   5.158   6.670
20696WAT      O62329   0.042   1.985   3.617
20696WAT     H162330   0.066   1.928   3.696
20696WAT     H262331   0.056   1.933   3.533
20697WAT      O62332   3.489   1.905   5.471
20697WAT     H162333   3.552   1.837   5.509
20697WAT     H262334   3.396   1.885   5.501
20698WAT      O62335   1.341   8.674   3.701
20698WAT     H162336   1.368   8.767   3.677
20698WAT     H262337   1.366   8.655   3.796
20699WAT      O62338   9.719   3.464   7.292
20699WAT     H162339   9.721   3.379   7.344
20699WAT     H262340   9.774   3.533   7.339
20700WAT      O62341   6.623   4.920   9.263
20700WAT     H162342   6.606   4.823   9.279
20700WAT     H262343   6.625   4.969   9.350
20701WAT      O62344   0.996   6.247   5.144
20701WAT     H162345   0.990   6.314   5.070
20701WAT     H262346   0.949   6.282   5.224
20702WAT      O62347   2.672   7.336   6.555
20702WAT     H162348   2.593   7.282   6.528
20702WAT     H262349   2.756   7.285   6.536
20703WAT      O62350   2.941   1.299   4.826
20703WAT     H162351   3.036   1.329   4.829
20703WAT     H262352   2.926   1.228   4.895
20704WAT      O62353   1.987   3.836   0.153
20704WAT     H162354   2.031   3.752   0.122
20704WAT     H262355   1.991   3.905   0.081
20705WAT      O62356   1.361   5.447   8.351
20705WAT     H162357   1.406   5.497   8.277
20705WAT     H262358   1.427   5.386   8.394
20706WAT      O62359   2.428   8.637   8.968
20706WAT     H162360   2.431   8.692   8.884
20706WAT     H262361   2.425   8.698   9.047
20707WAT      O62362   7.773   4.436   0.479
20707WAT     H162363   7.821   4.442   0.392
20707WAT     H262364   7.834   4.398   0.548
20708WAT      O62365   6.945   9.110   6.755
20708WAT     H162366   7.032   9.146   6.790
20708WAT     H262367   6.875   9.181   6.760
20709WAT      O62368   9.154   5.194   0.557
20709WAT     H162369   9.118   5.161   0.469
20709WAT     H262370   9.145   5.294   0.560
20710WAT      O62371   2.469   5.169   8.183
20710WAT     H162372   2.464   5.206   8.090
20710WAT     H262373   2.376   5.153   8.217
20711WAT      O62374   6.183   0.513   7.527
20711WAT     H162375   6.096   0.547   7.563
20711WAT     H262376   6.256   0.532   7.593
20712WAT      O62377   3.730   2.775   0.204
20712WAT     H162378   3.644   2.728   0.185
20712WAT     H262379   3.742   2.785   0.302
20713WAT      O62380   6.861   5.338   5.172
20713WAT     H162381   6.896   5.245   5.164
20713WAT     H262382   6.814   5.363   5.088
20714WAT      O62383   9.086   3.291   2.188
20714WAT     H162384   9.087   3.230   2.109
20714WAT     H262385   9.094   3.386   2.157
20715WAT      O62386   7.602   0.700   1.469
20715WAT     H162387   7.609   0.722   1.371
20715WAT     H262388   7.693   0.694   1.508
20716WAT      O62389   2.739   9.271   3.005
20716WAT     H162390   2.745   9.200   3.075
20716WAT     H262391   2.831   9.293   2.972
20717WAT      O62392   0.806   3.330   4.062
20717WAT     H162393   0.824   3.395   4.136
20717WAT     H262394   0.709   3.333   4.038
20718WAT      O62395   3.405   7.606   8.946
20718WAT     H162396   3.310   7.618   8.976
20718WAT     H262397   3.457   7.689   8.966
20719WAT      O62398   1.305   3.215   6.134
20719WAT     H162399   1.297   3.310   6.104
20719WAT     H262400   1.401   3.196   6.156
20720WAT      O62401   5.302   8.436   8.941
20720WAT     H162402   5.229   8.502   8.961
20720WAT     H262403   5.390   8.484   8.941
20721WAT      O62404   9.496   7.539   3.075
20721WAT     H162405   9.510   7.559   3.172
20721WAT     H262406   9.584   7.517   3.033
20722WAT      O62407   8.552   7.983   9.594
20722WAT     H162408   8.643   7.974   9.554
20722WAT     H262409   8.484   7.943   9.532
20723WAT      O62410   1.705   5.748   7.128
20723WAT     H162411   1.690   5.796   7.041
20723WAT     H262412   1.767   5.672   7.113
20724WAT      O62413   0.538   1.621   7.773
20724WAT     H162414   0.550   1.706   7.721
20724WAT     H262415   0.539   1.641   7.871
20725WAT      O62416   6.498   9.102   7.034
20725WAT     H162417   6.577   9.160   7.048
20725WAT     H262418   6.503   9.057   6.945
20726WAT      O62419   2.737   0.598   5.308
20726WAT     H162420   2.805   0.601   5.235
20726WAT     H262421   2.689   0.685   5.313
20727WAT      O62422   6.973   2.269   6.694
20727WAT     H162423   6.894   2.330   6.694
20727WAT     H262424   7.041   2.304   6.758
20728WAT      O62425   1.519   6.887   1.011
20728WAT     H162426   1.581   6.964   1.026
20728WAT     H262427   1.431   6.906   1.055
20729WAT      O62428   8.826   2.702   6.730
20729WAT     H162429   8.892   2.752   6.785
20729WAT     H262430   8.844   2.718   6.633
20730WAT      O62431   6.512   7.754   8.625
20730WAT     H162432   6.560   7.783   8.542
20730WAT     H262433   6.426   7.709   8.600
20731WAT      O62434   4.031   1.218   7.093
20731WAT     H162435   4.002   1.123   7.103
20731WAT     H262436   4.130   1.222   7.080
20732WAT      O62437   8.551   9.707   8.258
20732WAT     H162438   8.544   9.615   8.299
20732WAT     H262439   8.645   9.723   8.230
20733WAT      O62440   9.292   9.574   9.009
20733WAT     H162441   9.379   9.607   9.047
20733WAT     H262442   9.301   9.478   8.986
20734WAT      O62443   3.861   3.050   4.516
20734WAT     H162444   3.925   3.121   4.545
20734WAT     H262445   3.886   3.017   4.425
20735WAT      O62446   0.449   3.986   5.136
20735WAT     H162447   0.459   4.047   5.057
20735WAT     H262448   0.480   4.034   5.219
20736WAT      O62449   9.697   2.813   4.924
20736WAT     H162450   9.649   2.762   4.994
20736WAT     H262451   9.702   2.759   4.840
20737WAT      O62452   3.738   8.691   4.298
20737WAT     H162453   3.720   8.641   4.383
20737WAT     H262454   3.662   8.678   4.234
20738WAT      O62455   0.572   1.818   3.938
20738WAT     H162456   0.648   1.797   4.000
20738WAT     H262457   0.558   1.741   3.876
20739WAT      O62458   8.750   6.696   2.684
20739WAT     H162459   8.785   6.762   2.751
20739WAT     H262460   8.672   6.647   2.724
20740WAT      O62461   4.917   2.630   9.447
20740WAT     H162462   4.875   2.540   9.433
20740WAT     H262463   4.937   2.643   9.544
20741WAT      O62464   3.512   2.491   7.402
20741WAT     H162465   3.444   2.417   7.402
20741WAT     H262466   3.537   2.513   7.495
20742WAT      O62467   6.118   2.786   6.338
20742WAT     H162468   6.134   2.693   6.373
20742WAT     H262469   6.031   2.789   6.289
20743WAT      O62470   6.419   0.947   0.767
20743WAT     H162471   6.433   0.907   0.858
20743WAT     H262472   6.339   0.905   0.724
20744WAT      O62473   6.651   3.213   9.332
20744WAT     H162474   6.671   3.123   9.292
20744WAT     H262475   6.680   3.214   9.427
20745WAT      O62476   4.840   0.383   4.290
20745WAT     H162477   4.890   0.337   4.217
20745WAT     H262478   4.743   0.389   4.265
20746WAT      O62479   1.284   0.046   8.780
20746WAT     H162480   1.316  -0.037   8.825
20746WAT     H262481   1.325   0.053   8.689
20747WAT      O62482   3.259   2.559   7.645
20747WAT     H162483   3.210   2.487   7.693
20747WAT     H262484   3.235   2.558   7.548
20748WAT      O62485   9.191   3.980   8.365
20748WAT     H162486   9.118   4.043   8.336
20748WAT     H262487   9.151   3.891   8.385
20749WAT      O62488   5.254   4.845   4.005
20749WAT     H162489   5.241   4.916   4.074
20749WAT     H262490   5.166   4.817   3.968
20750WAT      O62491   4.777   8.046   3.982
20750WAT     H162492   4.844   8.113   3.952
20750WAT     H262493   4.807   7.954   3.954
20751WAT      O62494   9.362   8.406   2.763
20751WAT     H162495   9.290   8.472   2.783
20751WAT     H262496   9.412   8.386   2.847
20752WAT      O62497   3.155   1.567   6.565
20752WAT     H162498   3.246   1.550   6.526
20752WAT     H262499   3.093   1.594   6.492
20753WAT      O62500   8.513   8.241   6.423
20753WAT     H162501   8.584   8.232   6.493
20753WAT     H262502   8.426   8.264   6.467
20754WAT      O62503   7.946   8.725   0.112
20754WAT     H162504   7.998   8.771   0.040
20754WAT     H262505   7.850   8.718   0.084
20755WAT      O62506   4.438   5.083   5.626
20755WAT     H162507   4.351   5.063   5.581
20755WAT     H262508   4.420   5.122   5.716
20756WAT      O62509   0.800   8.113   7.266
20756WAT     H162510   0.747   8.140   7.187
20756WAT     H262511   0.880   8.173   7.275
20757WAT      O62512   2.143   5.820   2.416
20757WAT     H162513   2.133   5.784   2.509
20757WAT     H262514   2.240   5.827   2.394
20758WAT      O62515   8.375   9.492   2.492
20758WAT     H162516   8.420   9.472   2.405
20758WAT     H262517   8.373   9.591   2.506
20759WAT      O62518   3.591   4.251   7.730
20759WAT     H162519   3.639   4.332   7.763
20759WAT     H262520   3.512   4.279   7.676
20760WAT      O62521   3.512   4.190   5.475
20760WAT     H162522   3.425   4.229   5.503
20760WAT     H262523   3.585   4.227   5.532
20761WAT      O62524   3.185   2.799   6.669
20761WAT     H162525   3.212   2.704   6.689
20761WAT     H262526   3.227   2.827   6.582
20762WAT      O62527   0.399   3.161   4.396
20762WAT     H162528   0.393   3.073   4.443
20762WAT     H262529   0.493   3.176   4.366
20763WAT      O62530   7.564   4.703   8.791
20763WAT     H162531   7.647   4.652   8.769
20763WAT     H262532   7.532   4.752   8.710
20764WAT      O62533   2.332   1.816   6.892
20764WAT     H162534   2.267   1.825   6.816
20764WAT     H262535   2.334   1.902   6.944
20765WAT      O62536   3.991   7.858   3.237
20765WAT     H162537   3.936   7.895   3.162
20765WAT     H262538   3.955   7.893   3.324
20766WAT      O62539   6.932   0.606   2.300
20766WAT     H162540   6.863   0.573   2.365
20766WAT     H262541   6.896   0.684   2.249
20767WAT      O62542   0.317   0.070   1.228
20767WAT     H162543   0.296   0.105   1.137
20767WAT     H262544   0.383  -0.005   1.220
20768WAT      O62545   2.144   2.266   9.840
20768WAT     H162546   2.235   2.257   9.799
20768WAT     H262547   2.149   2.326   9.919
20769WAT      O62548   6.354   7.899   2.182
20769WAT     H162549   6.341   7.993   2.150
20769WAT     H262550   6.421   7.853   2.123
20770WAT      O62551   5.237   6.542   1.443
20770WAT     H162552   5.301   6.511   1.372
20770WAT     H262553   5.224   6.641   1.435
20771WAT      O62554   4.532   3.932   3.884
20771WAT     H162555   4.619   3.906   3.926
20771WAT     H262556   4.469   3.964   3.954
20772WAT      O62557   1.599   6.763   0.267
20772WAT     H162558   1.688   6.775   0.310
20772WAT     H262559   1.609   6.707   0.185
20773WAT      O62560   6.112   3.181   4.212
20773WAT     H162561   6.062   3.160   4.128
20773WAT     H262562   6.051   3.228   4.275
20774WAT      O62563   4.541   5.358   1.459
20774WAT     H162564   4.577   5.320   1.544
20774WAT     H262565   4.579   5.449   1.445
20775WAT      O62566   2.498   5.494   1.210
20775WAT     H162567   2.552   5.578   1.210
20775WAT     H262568   2.406   5.513   1.177
20776WAT      O62569   4.352   5.905   5.979
20776WAT     H162570   4.325   5.960   5.900
20776WAT     H262571   4.276   5.900   6.044
20777WAT      O62572   1.694   9.513   2.416
20777WAT     H162573   1.619   9.470   2.366
20777WAT     H262574   1.679   9.501   2.514
20778WAT      O62575   4.685   8.211   9.030
20778WAT     H162576   4.734   8.290   9.067
20778WAT     H262577   4.672   8.143   9.102
20779WAT      O62578   2.481   3.282   9.795
20779WAT     H162579   2.434   3.359   9.753
20779WAT     H262580   2.580   3.296   9.790
20780WAT      O62581   8.281   6.682   0.126
20780WAT     H162582   8.183   6.677   0.147
20780WAT     H262583   8.328   6.604   0.167
20781WAT      O62584   1.540   2.385   7.954
20781WAT     H162585   1.451   2.370   7.911
20781WAT     H262586   1.537   2.468   8.009
20782WAT      O62587   7.033   1.948   8.521
20782WAT     H162588   6.998   2.038   8.545
20782WAT     H262589   7.124   1.936   8.561
20783WAT      O62590   4.616   6.548   7.804
20783WAT     H162591   4.664   6.627   7.844
20783WAT     H262592   4.609   6.476   7.873
20784WAT      O62593   1.808   4.300   6.495
20784WAT     H162594   1.814   4.377   6.558
20784WAT     H262595   1.818   4.215   6.546
20785WAT      O62596   8.306   4.531   3.916
20785WAT     H162597   8.317   4.437   3.883
20785WAT     H262598   8.338   4.538   4.010
20786WAT      O62599   0.798   5.998   5.040
20786WAT     H162600   0.842   6.064   4.979
20786WAT     H262601   0.707   5.975   5.004
20787WAT      O62602   2.930   1.021   6.482
20787WAT     H162603   2.942   0.964   6.563
20787WAT     H262604   2.833   1.043   6.471
20788WAT      O62605   5.609   5.596   4.670
20788WAT     H162606   5.573   5.689   4.675
20788WAT     H262607   5.576   5.543   4.748
20789WAT      O62608   8.654   4.005   4.964
20789WAT     H162609   8.735   3.954   4.937
20789WAT     H262610   8.588   3.943   5.006
20790WAT      O62611   8.970   2.410   0.032
20790WAT     H162612   9.025   2.480  -0.014
20790WAT     H262613   8.897   2.454   0.084
20791WAT      O62614   6.743   8.708   2.726
20791WAT     H162615   6.697   8.795   2.744
20791WAT     H262616   6.677   8.642   2.689
20792WAT      O62617   2.313   4.272   5.943
20792WAT     H162618   2.251   4.344   5.914
20792WAT     H262619   2.275   4.224   6.022
20793WAT      O62620   8.902   7.984   6.209
20793WAT     H162621   8.824   8.037   6.244
20793WAT     H262622   8.967   7.968   6.283
20794WAT      O62623   9.180   8.721   7.478
20794WAT     H162624   9.248   8.659   7.520
20794WAT     H262625   9.210   8.816   7.492
20795WAT      O62626   8.136   3.313   4.255
20795WAT     H162627   8.142   3.389   4.319
20795WAT     H262628   8.040   3.293   4.234
20796WAT      O62629   5.260   2.095   3.056
20796WAT     H162630   5.317   2.061   3.132
20796WAT     H262631   5.166   2.106   3.088
20797WAT      O62632   2.981   6.264   7.827
20797WAT     H162633   2.913   6.199   7.792
20797WAT     H262634   2.962   6.283   7.924
20798WAT      O62635   6.423   9.647   9.374
20798WAT     H162636   6.452   9.567   9.322
20798WAT     H262637   6.365   9.705   9.317
20799WAT      O62638   2.295   3.938   1.304
20799WAT     H162639   2.265   3.867   1.240
20799WAT     H262640   2.392   3.959   1.288
20800WAT      O62641   4.948   1.799   3.953
20800WAT     H162642   5.008   1.863   3.906
20800WAT     H262643   4.983   1.706   3.942
20801WAT      O62644   7.177   4.627   5.142
20801WAT     H162645   7.078   4.618   5.151
20801WAT     H262646   7.199   4.711   5.093
20802WAT      O62647   3.779   5.609   9.008
20802WAT     H162648   3.787   5.512   9.031
20802WAT     H262649   3.868   5.653   9.021
20803WAT      O62650   6.873   4.193   5.265
20803WAT     H162651   6.803   4.261   5.283
20803WAT     H262652   6.845   4.105   5.302
20804WAT      O62653   0.902   8.377   8.883
20804WAT     H162654   0.839   8.330   8.945
20804WAT     H262655   0.849   8.431   8.817
20805WAT      O62656   0.146   0.890   6.568
20805WAT     H162657   0.209   0.962   6.539
20805WAT     H262658   0.194   0.824   6.625
20806WAT      O62659   2.522   3.357   4.501
20806WAT     H162660   2.487   3.447   4.524
20806WAT     H262661   2.571   3.318   4.579
20807WAT      O62662   6.943   1.301   9.539
20807WAT     H162663   6.963   1.398   9.547
20807WAT     H262664   6.843   1.287   9.536
20808WAT      O62665   6.451   8.018   0.137
20808WAT     H162666   6.390   8.096   0.128
20808WAT     H262667   6.407   7.947   0.191
20809WAT      O62668   4.644   3.755   8.645
20809WAT     H162669   4.633   3.656   8.633
20809WAT     H262670   4.733   3.774   8.687
20810WAT      O62671   5.393   3.634   6.598
20810WAT     H162672   5.354   3.588   6.519
20810WAT     H262673   5.450   3.710   6.568
20811WAT      O62674   3.497   6.350   8.360
20811WAT     H162675   3.568   6.294   8.317
20811WAT     H262676   3.487   6.435   8.309
20812WAT      O62677   9.789   0.769   1.816
20812WAT     H162678   9.873   0.740   1.862
20812WAT     H262679   9.723   0.694   1.820
20813WAT      O62680   6.332   6.741   5.857
20813WAT     H162681   6.393   6.671   5.893
20813WAT     H262682   6.361   6.831   5.890
20814WAT      O62683   7.565   0.979   3.178
20814WAT     H162684   7.517   1.042   3.116
20814WAT     H262685   7.531   0.886   3.165
20815WAT      O62686   8.664   4.290   6.666
20815WAT     H162687   8.617   4.370   6.629
20815WAT     H262688   8.728   4.319   6.738
20816WAT      O62689   6.021   0.126   5.732
20816WAT     H162690   6.072   0.043   5.708
20816WAT     H262691   6.079   0.206   5.717
20817WAT      O62692   8.695   1.253   0.577
20817WAT     H162693   8.700   1.285   0.482
20817WAT     H262694   8.742   1.318   0.637
20818WAT      O62695   4.870   1.138   4.738
20818WAT     H162696   4.828   1.049   4.753
20818WAT     H262697   4.803   1.200   4.697
20819WAT      O62698   7.841   2.033   1.302
20819WAT     H162699   7.782   1.968   1.254
20819WAT     H262700   7.866   2.107   1.240
20820WAT      O62701   7.095   0.282   4.399
20820WAT     H162702   7.041   0.210   4.443
20820WAT     H262703   7.044   0.319   4.322
20821WAT      O62704   1.667   7.137   7.873
20821WAT     H162705   1.709   7.077   7.941
20821WAT     H262706   1.731   7.209   7.847
20822WAT      O62707   1.250   2.404   5.403
20822WAT     H162708   1.230   2.469   5.330
20822WAT     H262709   1.255   2.452   5.491
20823WAT      O62710   3.002   3.032   5.780
20823WAT     H162711   3.051   3.105   5.732
20823WAT     H262712   2.909   3.062   5.800
20824WAT      O62713   6.836   8.002   1.660
20824WAT     H162714   6.778   7.946   1.600
20824WAT     H262715   6.784   8.082   1.691
20825WAT      O62716   1.879   8.601   4.372
20825WAT     H162717   1.820   8.661   4.427
20825WAT     H262718   1.973   8.607   4.407
20826WAT      O62719   4.106   9.833   8.017
20826WAT     H162720   4.130   9.811   8.112
20826WAT     H262721   4.008   9.820   8.004
20827WAT      O62722   5.881   0.351   5.078
20827WAT     H162723   5.882   0.357   4.979
20827WAT     H262724   5.937   0.273   5.107
20828WAT      O62725   8.525   8.256   3.110
20828WAT     H162726   8.520   8.232   3.013
20828WAT     H262727   8.615   8.293   3.131
20829WAT      O62728   2.041   9.318   0.771
20829WAT     H162729   2.122   9.359   0.814
20829WAT     H262730   1.988   9.268   0.841
20830WAT      O62731   5.473   8.954   8.743
20830WAT     H162732   5.491   8.898   8.662
20830WAT     H262733   5.559   8.990   8.779
20831WAT      O62734   4.108   7.663   2.009
20831WAT     H162735   4.027   7.705   2.050
20831WAT     H262736   4.172   7.637   2.081
20832WAT      O62737   6.300   5.358   4.191
20832WAT     H162738   6.245   5.285   4.232
20832WAT     H262739   6.301   5.346   4.091
20833WAT      O62740   3.490   6.155   9.017
20833WAT     H162741   3.493   6.240   8.965
20833WAT     H262742   3.415   6.098   8.984
20834WAT      O62743   5.275   7.860   8.037
20834WAT     H162744   5.240   7.940   8.087
20834WAT     H262745   5.356   7.887   7.985
20835WAT      O62746   6.767   1.635   9.174
20835WAT     H162747   6.780   1.720   9.225
20835WAT     H262748   6.752   1.656   9.077
20836WAT      O62749   7.377   4.112   3.161
20836WAT     H162750   7.467   4.150   3.182
20836WAT     H262751   7.340   4.157   3.079
20837WAT      O62752   3.813   8.121   1.235
20837WAT     H162753   3.808   8.221   1.241
20837WAT     H262754   3.841   8.095   1.142
20838WAT      O62755   2.262   7.079   8.159
20838WAT     H162756   2.312   7.065   8.244
20838WAT     H262757   2.170   7.038   8.168
20839WAT      O62758   6.626   2.507   2.377
20839WAT     H162759   6.573   2.544   2.300
20839WAT     H262760   6.704   2.567   2.395
20840WAT      O62761   1.004   4.605   7.992
20840WAT     H162762   0.960   4.557   7.916
20840WAT     H262763   1.054   4.539   8.047
20841WAT      O62764   0.930   1.519   8.585
20841WAT     H162765   0.855   1.533   8.649
20841WAT     H262766   0.912   1.439   8.528
20842WAT      O62767   9.331   8.963   8.855
20842WAT     H162768   9.427   8.962   8.884
20842WAT     H262769   9.291   9.052   8.876
20843WAT      O62770   7.377   5.927   2.735
20843WAT     H162771   7.437   5.927   2.815
20843WAT     H262772   7.382   6.017   2.690
20844WAT      O62773   7.080   8.752   1.550
20844WAT     H162774   7.090   8.722   1.644
20844WAT     H262775   7.107   8.678   1.488
20845WAT      O62776   8.763   0.544   1.086
20845WAT     H162777   8.717   0.560   1.173
20845WAT     H262778   8.695   0.547   1.012
20846WAT      O62779   9.810   1.099   5.769
20846WAT     H162780   9.721   1.136   5.798
20846WAT     H262781   9.810   1.086   5.670
20847WAT      O62782   6.512   7.106   4.066
20847WAT     H162783   6.585   7.061   4.117
20847WAT     H262784   6.423   7.080   4.105
20848WAT      O62785   1.152   3.312   4.672
20848WAT     H162786   1.136   3.373   4.595
20848WAT     H262787   1.198   3.363   4.745
20849WAT      O62788   3.505   5.415   8.621
20849WAT     H162789   3.586   5.473   8.613
20849WAT     H262790   3.466   5.400   8.530
20850WAT      O62791   5.587   0.341   5.134
20850WAT     H162792   5.678   0.346   5.175
20850WAT     H262793   5.531   0.417   5.169
20851WAT      O62794   3.780   2.831   1.004
20851WAT     H162795   3.790   2.923   0.965
20851WAT     H262796   3.865   2.806   1.051
20852WAT      O62797   3.380   7.408   2.378
20852WAT     H162798   3.370   7.480   2.309
20852WAT     H262799   3.321   7.331   2.354
20853WAT      O62800   5.108   4.996   8.053
20853WAT     H162801   5.108   4.995   7.953
20853WAT     H262802   5.016   4.973   8.086
20854WAT      O62803   3.142   9.392   8.235
20854WAT     H162804   3.211   9.465   8.227
20854WAT     H262805   3.185   9.304   8.218
20855WAT      O62806   8.339   1.286   4.942
20855WAT     H162807   8.375   1.222   5.009
20855WAT     H262808   8.341   1.379   4.979
20856WAT      O62809   0.998   4.595   6.332
20856WAT     H162810   0.998   4.694   6.324
20856WAT     H262811   1.023   4.554   6.244
20857WAT      O62812   6.760   0.502   5.129
20857WAT     H162813   6.752   0.561   5.210
20857WAT     H262814   6.675   0.507   5.076
20858WAT      O62815   7.590   9.824   0.785
20858WAT     H162816   7.575   9.857   0.691
20858WAT     H262817   7.520   9.756   0.808
20859WAT      O62818   1.104   5.655   1.651
20859WAT     H162819   1.108   5.750   1.622
20859WAT     H262820   1.122   5.650   1.750
20860WAT      O62821   6.191   0.059   8.818
20860WAT     H162822   6.125   0.083   8.890
20860WAT     H262823   6.183  -0.038   8.798
20861WAT      O62824   9.742   8.261   6.204
20861WAT     H162825   9.686   8.298   6.278
20861WAT     H262826   9.693   8.268   6.117
20862WAT      O62827   3.664   9.750   5.171
20862WAT     H162828   3.569   9.756   5.140
20862WAT     H262829   3.715   9.692   5.108
20863WAT      O62830   9.230   8.516   5.506
20863WAT     H162831   9.198   8.540   5.415
20863WAT     H262832   9.187   8.577   5.574
20864WAT      O62833   3.535   9.487   9.348
20864WAT     H162834   3.499   9.487   9.441
20864WAT     H262835   3.577   9.398   9.328
20865WAT      O62836   9.135   3.832   7.301
20865WAT     H162837   9.133   3.736   7.331
20865WAT     H262838   9.058   3.882   7.341
20866WAT      O62839   5.311   8.212   4.460
20866WAT     H162840   5.292   8.237   4.555
20866WAT     H262841   5.225   8.197   4.412
20867WAT      O62842   2.153   9.663   6.558
20867WAT     H162843   2.154   9.763   6.564
20867WAT     H262844   2.156   9.624   6.651
20868WAT      O62845   3.545   3.135   7.085
20868WAT     H162846   3.516   3.084   7.004
20868WAT     H262847   3.602   3.076   7.142
20869WAT      O62848   5.821   9.017   1.062
20869WAT     H162849   5.772   9.101   1.085
20869WAT     H262850   5.872   8.985   1.142
20870WAT      O62851   5.753   0.255   3.175
20870WAT     H162852   5.673   0.216   3.222
20870WAT     H262853   5.829   0.262   3.239
20871WAT      O62854   3.262   1.740   4.565
20871WAT     H162855   3.351   1.780   4.589
20871WAT     H262856   3.233   1.776   4.477
20872WAT      O62857   0.255   3.632   8.832
20872WAT     H162858   0.245   3.686   8.749
20872WAT     H262859   0.285   3.692   8.907
20873WAT      O62860   4.943   7.698   2.322
20873WAT     H162861   5.043   7.702   2.315
20873WAT     H262862   4.903   7.762   2.257
20874WAT      O62863   9.136   8.236   0.665
20874WAT     H162864   9.137   8.235   0.565
20874WAT     H262865   9.176   8.322   0.697
20875WAT      O62866   7.742   1.235   8.799
20875WAT     H162867   7.728   1.173   8.877
20875WAT     H262868   7.690   1.319   8.814
20876WAT      O62869   4.633   6.336   5.379
20876WAT     H162870   4.591   6.390   5.453
20876WAT     H262871   4.686   6.397   5.321
20877WAT      O62872   8.307   8.889   1.871
20877WAT     H162873   8.268   8.961   1.814
20877WAT     H262874   8.355   8.930   1.948
20878WAT      O62875   9.792   3.983   6.001
20878WAT     H162876   9.723   3.978   5.928
20878WAT     H262877   9.803   4.078   6.029
20879WAT      O62878   9.742   7.666   4.579
20879WAT     H162879   9.728   7.764   4.591
20879WAT     H262880   9.835   7.649   4.546
20880WAT      O62881   1.759   7.706   9.872
20880WAT     H162882   1.832   7.638   9.872
20880WAT     H262883   1.670   7.660   9.870
20881WAT      O62884   0.645   4.753   5.250
20881WAT     H162885   0.622   4.662   5.284
20881WAT     H262886   0.733   4.782   5.288
20882WAT      O62887   2.022   6.119   8.518
20882WAT     H162888   1.969   6.203   8.535
20882WAT     H262889   2.010   6.056   8.594
20883WAT      O62890   1.015   8.233   6.476
20883WAT     H162891   1.018   8.181   6.561
20883WAT     H262892   1.004   8.171   6.398
20884WAT      O62893   8.684   2.891   2.056
20884WAT     H162894   8.711   2.807   2.103
20884WAT     H262895   8.687   2.876   1.957
20885WAT      O62896   4.636   7.610   3.574
20885WAT     H162897   4.662   7.654   3.660
20885WAT     H262898   4.544   7.571   3.583
20886WAT      O62899   5.047   0.906   1.235
20886WAT     H162900   5.051   0.824   1.178
20886WAT     H262901   4.970   0.899   1.298
20887WAT      O62902   3.333   6.751   2.997
20887WAT     H162903   3.364   6.771   2.904
20887WAT     H262904   3.275   6.669   2.995
20888WAT      O62905   1.309   4.149   7.507
20888WAT     H162906   1.246   4.082   7.467
20888WAT     H262907   1.382   4.102   7.555
20889WAT      O62908   8.049   1.311   1.644
20889WAT     H162909   8.018   1.272   1.730
20889WAT     H262910   7.980   1.374   1.609
20890WAT      O62911   8.842   5.992   0.724
20890WAT     H162912   8.924   6.044   0.746
20890WAT     H262913   8.868   5.899   0.697
20891WAT      O62914   6.209   9.820   3.680
20891WAT     H162915   6.281   9.888   3.671
20891WAT     H262916   6.246   9.736   3.720
20892WAT      O62917   3.653   1.406   2.022
20892WAT     H162918   3.652   1.337   2.094
20892WAT     H262919   3.724   1.473   2.040
20893WAT      O62920   3.975   1.360   5.599
20893WAT     H162921   3.969   1.265   5.630
20893WAT     H262922   4.039   1.410   5.657
20894WAT      O62923   2.736   6.939   8.334
20894WAT     H162924   2.766   6.964   8.426
20894WAT     H262925   2.643   6.902   8.339
20895WAT      O62926   7.726   9.296   5.746
20895WAT     H162927   7.775   9.364   5.800
20895WAT     H262928   7.670   9.240   5.807
20896WAT      O62929   6.239   0.487   9.759
20896WAT     H162930   6.304   0.444   9.822
20896WAT     H262931   6.150   0.444   9.770
20897WAT      O62932   2.098   7.158   3.675
20897WAT     H162933   2.137   7.068   3.695
20897WAT     H262934   2.010   7.146   3.628
20898WAT      O62935   3.863   5.474   3.344
20898WAT     H162936   3.925   5.458   3.421
20898WAT     H262937   3.821   5.564   3.353
20899WAT      O62938   8.459   9.026   0.709
20899WAT     H162939   8.363   9.034   0.735
20899WAT     H262940   8.467   8.963   0.631
20900WAT      O62941   3.779   8.738   7.729
20900WAT     H162942   3.828   8.664   7.683
20900WAT     H262943   3.696   8.760   7.678
20901WAT      O62944   5.195   9.065   2.791
20901WAT     H162945   5.155   9.088   2.880
20901WAT     H262946   5.270   9.129   2.771
20902WAT      O62947   2.345   6.176   4.420
20902WAT     H162948   2.350   6.183   4.520
20902WAT     H262949   2.434   6.199   4.381
20903WAT      O62950   5.473   7.005   1.013
20903WAT     H162951   5.494   7.102   0.998
20903WAT     H262952   5.540   6.949   0.964
20904WAT      O62953   3.636   6.031   9.247
20904WAT     H162954   3.651   5.934   9.231
20904WAT     H262955   3.601   6.074   9.163
20905WAT      O62956   1.272   3.715   4.625
20905WAT     H162957   1.244   3.626   4.589
20905WAT     H262958   1.193   3.761   4.666
20906WAT      O62959   7.703   7.495   1.768
20906WAT     H162960   7.603   7.498   1.761
20906WAT     H262961   7.729   7.420   1.828
20907WAT      O62962   9.709   8.547   0.008
20907WAT     H162963   9.733   8.452  -0.013
20907WAT     H262964   9.614   8.551   0.038
20908WAT      O62965   0.679   5.831   0.785
20908WAT     H162966   0.690   5.732   0.784
20908WAT     H262967   0.672   5.864   0.691
20909WAT      O62968   6.746   1.701   6.996
20909WAT     H162969   6.773   1.752   7.077
20909WAT     H262970   6.703   1.615   7.024
20910WAT      O62971   2.429   9.169   1.499
20910WAT     H162972   2.455   9.111   1.421
20910WAT     H262973   2.512   9.212   1.536
20911WAT      O62974   3.359   3.404   3.783
20911WAT     H162975   3.339   3.462   3.861
20911WAT     H262976   3.291   3.419   3.711
20912WAT      O62977   1.948   1.733   3.089
20912WAT     H162978   1.901   1.672   3.025
20912WAT     H262979   2.033   1.690   3.118
20913WAT      O62980   5.537   4.313   0.589
20913WAT     H162981   5.453   4.263   0.570
20913WAT     H262982   5.520   4.384   0.657
20914WAT      O62983   6.016   9.359   8.906
20914WAT     H162984   5.942   9.426   8.918
20914WAT     H262985   6.049   9.362   8.812
20915WAT      O62986   7.602   6.797   4.728
20915WAT     H162987   7.640   6.884   4.760
20915WAT     H262988   7.523   6.814   4.670
20916WAT      O62989   7.760   4.850   5.311
20916WAT     H162990   7.730   4.944   5.292
20916WAT     H262991   7.692   4.786   5.275
20917WAT      O62992   9.534   0.207   2.719
20917WAT     H162993   9.592   0.175   2.644
20917WAT     H262994   9.487   0.128   2.759
20918WAT      O62995   7.435   5.196   7.217
20918WAT     H162996   7.505   5.256   7.178
20918WAT     H262997   7.472   5.104   7.226
20919WAT      O62998   9.777   2.112   3.210
20919WAT     H162999   9.756   2.111   3.308
20919WAT     H263000   9.770   2.206   3.176
20920WAT      O63001   3.715   4.165   3.298
20920WAT     H163002   3.670   4.113   3.226
20920WAT     H263003   3.709   4.263   3.277
20921WAT      O63004   1.525   4.418   5.779
20921WAT     H163005   1.448   4.415   5.842
20921WAT     H263006   1.574   4.504   5.789
20922WAT      O63007   4.914   2.059   1.123
20922WAT     H163008   4.987   1.997   1.095
20922WAT     H263009   4.860   2.016   1.196
20923WAT      O63010   4.385   5.863   9.579
20923WAT     H163011   4.315   5.831   9.642
20923WAT     H263012   4.474   5.862   9.624
20924WAT      O63013   4.033   0.972   7.643
20924WAT     H163014   3.966   0.997   7.712
20924WAT     H263015   4.118   0.941   7.687
20925WAT      O63016   0.415   8.595   9.548
20925WAT     H163017   0.353   8.603   9.469
20925WAT     H263018   0.509   8.608   9.517
20926WAT      O63019   2.133   6.143   3.914
20926WAT     H163020   2.044   6.156   3.957
20926WAT     H263021   2.196   6.100   3.980
20927WAT      O63022   6.614   4.259   0.027
20927WAT     H163023   6.561   4.312   0.093
20927WAT     H263024   6.552   4.206  -0.030
20928WAT      O63025   2.137   2.188   6.007
20928WAT     H163026   2.068   2.124   6.039
20928WAT     H263027   2.117   2.279   6.043
20929WAT      O63028   5.858   8.445   1.609
20929WAT     H163029   5.881   8.393   1.691
20929WAT     H263030   5.937   8.498   1.579
20930WAT      O63031   5.448   8.316   3.114
20930WAT     H163032   5.394   8.389   3.071
20930WAT     H263033   5.420   8.228   3.077
20931WAT      O63034   7.703   3.845   2.599
20931WAT     H163035   7.768   3.854   2.524
20931WAT     H263036   7.627   3.909   2.586
20932WAT      O63037   5.890   3.142   0.410
20932WAT     H163038   5.859   3.227   0.367
20932WAT     H263039   5.874   3.065   0.348
20933WAT      O63040   5.088   8.523   9.662
20933WAT     H163041   5.010   8.483   9.614
20933WAT     H263042   5.173   8.495   9.618
20934WAT      O63043   4.586   8.155   2.316
20934WAT     H163044   4.678   8.187   2.339
20934WAT     H263045   4.560   8.081   2.378
20935WAT      O63046   2.445   4.796   9.799
20935WAT     H163047   2.416   4.717   9.746
20935WAT     H263048   2.394   4.799   9.885
20936WAT      O63049   7.565   8.494   0.314
20936WAT     H163050   7.642   8.442   0.277
20936WAT     H263051   7.493   8.430   0.344
20937WAT      O63052   3.459   3.573   9.472
20937WAT     H163053   3.453   3.666   9.437
20937WAT     H263054   3.555   3.547   9.481
20938WAT      O63055   6.897   6.929   6.983
20938WAT     H163056   6.849   7.004   7.029
20938WAT     H263057   6.862   6.842   7.017
20939WAT      O63058   8.889   7.161   8.282
20939WAT     H163059   8.974   7.147   8.232
20939WAT     H263060   8.833   7.229   8.235
20940WAT      O63061   2.762   0.900   9.694
20940WAT     H163062   2.845   0.852   9.664
20940WAT     H263063   2.695   0.900   9.620
20941WAT      O63064   1.206   8.891   8.454
20941WAT     H163065   1.240   8.869   8.545
20941WAT     H263066   1.160   8.811   8.416
20942WAT      O63067   8.024   8.489   1.710
20942WAT     H163068   8.036   8.484   1.809
20942WAT     H263069   8.051   8.580   1.677
20943WAT      O63070   4.995   5.497   4.975
20943WAT     H163071   4.899   5.523   4.985
20943WAT     H263072   5.053   5.562   5.023
20944WAT      O63073   7.353   5.868   8.466
20944WAT     H163074   7.358   5.902   8.559
20944WAT     H263075   7.300   5.783   8.463
20945WAT      O63076   7.329   8.632   2.853
20945WAT     H163077   7.378   8.708   2.811
20945WAT     H263078   7.321   8.557   2.786
20946WAT      O63079   4.689   5.506   2.774
20946WAT     H163080   4.721   5.454   2.853
20946WAT     H263081   4.590   5.502   2.769
20947WAT      O63082   1.297   2.778   6.193
20947WAT     H163083   1.260   2.784   6.286
20947WAT     H263084   1.366   2.850   6.180
20948WAT      O63085   4.121   1.525   8.856
20948WAT     H163086   4.025   1.499   8.853
20948WAT     H263087   4.177   1.444   8.873
20949WAT      O63088   5.324   1.275   2.210
20949WAT     H163089   5.326   1.192   2.154
20949WAT     H263090   5.240   1.278   2.263
20950WAT      O63091   9.691   5.843   8.847
20950WAT     H163092   9.779   5.875   8.880
20950WAT     H263093   9.661   5.901   8.770
20951WAT      O63094   2.343   0.438   1.868
20951WAT     H163095   2.246   0.461   1.862
20951WAT     H263096   2.360   0.385   1.951
20952WAT      O63097   3.426   8.941   6.114
20952WAT     H163098   3.396   9.031   6.083
20952WAT     H263099   3.356   8.873   6.093
20953WAT      O63100   4.575   8.433   2.156
20953WAT     H163101   4.510   8.376   2.105
20953WAT     H263102   4.526   8.485   2.226
20954WAT      O63103   2.243   0.100   1.820
20954WAT     H163104   2.331   0.143   1.841
20954WAT     H263105   2.179   0.170   1.788
20955WAT      O63106   0.218   5.395   8.387
20955WAT     H163107   0.141   5.459   8.385
20955WAT     H263108   0.273   5.413   8.468
20956WAT      O63109   2.997   0.938   2.646
20956WAT     H163110   3.036   0.863   2.698
20956WAT     H263111   2.966   0.904   2.557
20957WAT      O63112   9.743   8.309   6.976
20957WAT     H163113   9.796   8.342   6.899
20957WAT     H263114   9.803   8.262   7.041
20958WAT      O63115   6.084   1.201   6.904
20958WAT     H163116   5.985   1.187   6.902
20958WAT     H263117   6.114   1.242   6.818
20959WAT      O63118   1.569   4.921   7.206
20959WAT     H163119   1.540   4.827   7.193
20959WAT     H263120   1.513   4.982   7.149
20960WAT      O63121   9.853   0.231   8.584
20960WAT     H163122   9.889   0.197   8.497
20960WAT     H263123   9.927   0.268   8.639
20961WAT      O63124   8.264   6.877   5.402
20961WAT     H163125   8.217   6.853   5.487
20961WAT     H263126   8.209   6.943   5.351
20962WAT      O63127   2.982   5.178   2.860
20962WAT     H163128   3.031   5.101   2.901
20962WAT     H263129   2.935   5.148   2.777
20963WAT      O63130   9.379   2.971   4.186
20963WAT     H163131   9.350   3.058   4.145
20963WAT     H263132   9.299   2.919   4.215
20964WAT      O63133   0.598   3.465   8.298
20964WAT     H163134   0.515   3.411   8.311
20964WAT     H263135   0.663   3.445   8.372
20965WAT      O63136   6.781   7.564   1.675
20965WAT     H163137   6.709   7.623   1.638
20965WAT     H263138   6.803   7.492   1.609
20966WAT      O63139   2.914   0.658   5.121
20966WAT     H163140   2.932   0.695   5.030
20966WAT     H263141   2.925   0.730   5.189
20967WAT      O63142   2.339   1.197   9.714
20967WAT     H163143   2.278   1.256   9.767
20967WAT     H263144   2.399   1.254   9.657
20968WAT      O63145   7.958   9.132   6.551
20968WAT     H163146   8.056   9.122   6.571
20968WAT     H263147   7.910   9.049   6.579
20969WAT      O63148   9.441   1.965   6.362
20969WAT     H163149   9.495   1.994   6.283
20969WAT     H263150   9.472   1.875   6.391
20970WAT      O63151   3.471   3.989   7.379
20970WAT     H163152   3.552   3.942   7.413
20970WAT     H263153   3.454   3.962   7.284
20971WAT      O63154   5.725   6.895   3.340
20971WAT     H163155   5.738   6.881   3.241
20971WAT     H263156   5.693   6.988   3.356
20972WAT      O63157   0.194   5.999   1.416
20972WAT     H163158   0.174   5.909   1.377
20972WAT     H263159   0.184   6.069   1.345
20973WAT      O63160   5.666   6.927   5.412
20973WAT     H163161   5.615   7.013   5.412
20973WAT     H263162   5.712   6.916   5.323
20974WAT      O63163   4.127   3.718   0.746
20974WAT     H163164   4.219   3.688   0.771
20974WAT     H263165   4.091   3.661   0.673
20975WAT      O63166   4.406   9.397   1.386
20975WAT     H163167   4.357   9.434   1.465
20975WAT     H263168   4.363   9.429   1.302
20976WAT      O63169   6.775   6.112   8.244
20976WAT     H163170   6.700   6.058   8.207
20976WAT     H263171   6.845   6.051   8.281
20977WAT      O63172   7.615   5.799   9.079
20977WAT     H163173   7.644   5.865   9.010
20977WAT     H263174   7.643   5.832   9.169
20978WAT      O63175   8.023   0.890   8.931
20978WAT     H163176   8.015   0.791   8.943
20978WAT     H263177   7.983   0.937   9.010
20979WAT      O63178   0.988   1.949   8.623
20979WAT     H163179   1.013   1.876   8.559
20979WAT     H263180   0.903   1.924   8.669
20980WAT      O63181   4.614   3.509   5.965
20980WAT     H163182   4.617   3.429   6.024
20980WAT     H263183   4.598   3.591   6.020
20981WAT      O63184   6.139   5.266   1.117
20981WAT     H163185   6.087   5.339   1.074
20981WAT     H263186   6.130   5.272   1.217
20982WAT      O63187   2.110   3.801   5.232
20982WAT     H163188   2.046   3.830   5.304
20982WAT     H263189   2.080   3.838   5.144
20983WAT      O63190   5.912   0.727   2.051
20983WAT     H163191   5.934   0.646   1.995
20983WAT     H263192   5.813   0.736   2.059
20984WAT      O63193   0.103   8.337   4.574
20984WAT     H163194   0.197   8.311   4.597
20984WAT     H263195   0.068   8.399   4.644
20985WAT      O63196   3.644   0.593   8.887
20985WAT     H163197   3.550   0.564   8.902
20985WAT     H263198   3.651   0.640   8.800
20986WAT      O63199   4.334   0.026   2.277
20986WAT     H163200   4.243  -0.012   2.297
20986WAT     H263201   4.387  -0.040   2.223
20987WAT      O63202   3.052   3.325   0.006
20987WAT     H163203   3.072   3.408   0.057
20987WAT     H263204   3.041   3.248   0.070
20988WAT      O63205   1.490   3.299   5.334
20988WAT     H163206   1.453   3.237   5.403
20988WAT     H263207   1.428   3.377   5.323
20989WAT      O63208   7.752   5.776   4.594
20989WAT     H163209   7.810   5.857   4.599
20989WAT     H263210   7.693   5.773   4.675
20990WAT      O63211   8.790   3.042   5.755
20990WAT     H163212   8.753   3.038   5.847
20990WAT     H263213   8.728   3.094   5.696
20991WAT      O63214   9.851   4.365   8.298
20991WAT     H163215   9.863   4.455   8.339
20991WAT     H263216   9.930   4.307   8.320
20992WAT      O63217   7.390   1.761   4.770
20992WAT     H163218   7.437   1.788   4.854
20992WAT     H263219   7.299   1.726   4.792
20993WAT      O63220   0.359   1.038   9.229
20993WAT     H163221   0.304   1.084   9.159
20993WAT     H263222   0.325   0.945   9.242
20994WAT      O63223   1.322   2.682   0.338
20994WAT     H163224   1.398   2.719   0.391
20994WAT     H263225   1.346   2.682   0.241
20995WAT      O63226   0.905   0.711   7.149
20995WAT     H163227   0.994   0.754   7.163
20995WAT     H263228   0.833   0.769   7.186
20996WAT      O63229   3.945   5.134   6.460
20996WAT     H163230   3.996   5.208   6.503
20996WAT     H263231   3.941   5.055   6.521
20997WAT      O63232   5.924   8.525   7.982
20997WAT     H163233   5.880   8.443   8.019
20997WAT     H263234   5.857   8.599   7.976
20998WAT      O63235   3.712   1.964   5.905
20998WAT     H163236   3.798   2.003   5.871
20998WAT     H263237   3.636   2.005   5.855
20999WAT      O63238   5.204   8.768   1.363
20999WAT     H163239   5.172   8.857   1.396
20999WAT     H263240   5.185   8.759   1.265
21000WAT      O63241   6.837   5.728   7.005
21000WAT     H163242   6.863   5.823   6.988
21000WAT     H263243   6.792   5.691   6.925
21001WAT      O63244   3.659   1.108   4.618
21001WAT     H163245   3.653   1.038   4.546
21001WAT     H263246   3.717   1.183   4.586
21002WAT      O63247   4.179   8.539   7.163
21002WAT     H163248   4.124   8.621   7.184
21002WAT     H263249   4.249   8.527   7.233
21003WAT      O63250   1.983   0.140   6.324
21003WAT     H163251   2.021   0.134   6.232
21003WAT     H263252   1.889   0.108   6.324
21004WAT      O63253   2.983   9.071   2.618
21004WAT     H163254   2.991   8.997   2.684
21004WAT     H263255   3.071   9.083   2.571
21005WAT      O63256   6.852   3.764   8.135
21005WAT     H163257   6.925   3.714   8.183
21005WAT     H263258   6.777   3.782   8.198
21006WAT      O63259   6.075   9.391   2.482
21006WAT     H163260   6.102   9.311   2.429
21006WAT     H263261   5.979   9.412   2.466
21007WAT      O63262   2.141   5.663   4.085
21007WAT     H163263   2.058   5.607   4.083
21007WAT     H263264   2.203   5.634   4.013
21008WAT      O63265   2.150   3.578   2.878
21008WAT     H163266   2.062   3.541   2.909
21008WAT     H263267   2.184   3.643   2.946
21009WAT      O63268   2.059   4.734   7.348
21009WAT     H163269   2.019   4.686   7.270
21009WAT     H263270   2.007   4.818   7.364
21010WAT      O63271   9.167   2.572   9.475
21010WAT     H163272   9.250   2.529   9.510
21010WAT     H263273   9.106   2.502   9.439
21011WAT      O63274   6.822   4.289   6.570
21011WAT     H163275   6.796   4.325   6.659
21011WAT     H263276   6.835   4.365   6.506
21012WAT      O63277   4.943   1.153   0.098
21012WAT     H163278   4.965   1.250   0.093
21012WAT     H263279   4.894   1.125   0.015
21013WAT      O63280   4.423   5.359   1.889
21013WAT     H163281   4.327   5.355   1.861
21013WAT     H263282   4.432   5.422   1.966
21014WAT      O63283   6.848   7.440   1.043
21014WAT     H163284   6.846   7.392   0.956
21014WAT     H263285   6.780   7.514   1.042
21015WAT      O63286   1.240   7.624   6.430
21015WAT     H163287   1.195   7.637   6.342
21015WAT     H263288   1.173   7.592   6.497
21016WAT      O63289   4.855   3.619   1.609
21016WAT     H163290   4.763   3.630   1.647
21016WAT     H263291   4.885   3.524   1.623
21017WAT      O63292   0.562   2.333   6.035
21017WAT     H163293   0.602   2.370   6.119
21017WAT     H263294   0.635   2.317   5.968
21018WAT      O63295   4.090   9.777   3.259
21018WAT     H163296   4.117   9.723   3.179
21018WAT     H263297   4.021   9.844   3.232
21019WAT      O63298   9.689   7.465   3.641
21019WAT     H163299   9.646   7.553   3.658
21019WAT     H263300   9.759   7.448   3.711
21020WAT      O63301   7.889   5.161   1.636
21020WAT     H163302   7.936   5.073   1.638
21020WAT     H263303   7.791   5.147   1.648
21021WAT      O63304   7.884   5.279   6.105
21021WAT     H163305   7.874   5.181   6.117
21021WAT     H263306   7.904   5.299   6.009
21022WAT      O63307   1.238   5.355   2.069
21022WAT     H163308   1.167   5.419   2.095
21022WAT     H263309   1.199   5.282   2.014
21023WAT      O63310   7.331   8.490   9.601
21023WAT     H163311   7.270   8.568   9.591
21023WAT     H263312   7.342   8.468   9.698
21024WAT      O63313   4.922   2.517   7.915
21024WAT     H163314   4.950   2.541   8.008
21024WAT     H263315   4.826   2.490   7.916
21025WAT      O63316   1.471   5.385   9.224
21025WAT     H163317   1.408   5.391   9.147
21025WAT     H263318   1.428   5.425   9.305
21026WAT      O63319   7.533   0.271   6.924
21026WAT     H163320   7.582   0.271   6.837
21026WAT     H263321   7.566   0.195   6.981
21027WAT      O63322   9.011   9.570   6.910
21027WAT     H163323   9.025   9.649   6.852
21027WAT     H263324   8.914   9.563   6.935
21028WAT      O63325   8.099   3.976   0.130
21028WAT     H163326   8.025   3.910   0.140
21028WAT     H263327   8.062   4.069   0.126
21029WAT      O63328   6.043   4.537   4.546
21029WAT     H163329   5.966   4.572   4.599
21029WAT     H263330   6.128   4.560   4.594
21030WAT      O63331   5.710   8.814   7.737
21030WAT     H163332   5.636   8.827   7.671
21030WAT     H263333   5.739   8.719   7.737
21031WAT      O63334   3.133   1.711   5.422
21031WAT     H163335   3.103   1.731   5.329
21031WAT     H263336   3.060   1.662   5.470
21032WAT      O63337   6.235   0.821   8.164
21032WAT     H163338   6.183   0.801   8.247
21032WAT     H263339   6.313   0.759   8.158
21033WAT      O63340   9.859   6.043   8.053
21033WAT     H163341   9.876   6.036   7.955
21033WAT     H263342   9.868   6.139   8.081
21034WAT      O63343   0.301   6.875   8.249
21034WAT     H163344   0.322   6.805   8.317
21034WAT     H263345   0.385   6.905   8.204
21035WAT      O63346   4.572   1.622   6.126
21035WAT     H163347   4.630   1.663   6.057
21035WAT     H263348   4.627   1.598   6.206
21036WAT      O63349   5.048   6.095   1.126
21036WAT     H163350   4.963   6.130   1.085
21036WAT     H263351   5.118   6.166   1.121
21037WAT      O63352   7.068   7.487   3.957
21037WAT     H163353   7.051   7.586   3.959
21037WAT     H263354   7.006   7.444   3.891
21038WAT      O63355   1.960   4.209   7.000
21038WAT     H163356   1.862   4.225   6.990
21038WAT     H263357   2.003   4.289   7.042
21039WAT      O63358   8.250   8.085   2.946
21039WAT     H163359   8.323   8.020   2.965
21039WAT     H263360   8.242   8.149   3.023
21040WAT      O63361   0.505   0.874   9.581
21040WAT     H163362   0.549   0.918   9.659
21040WAT     H263363   0.556   0.792   9.556
21041WAT      O63364   5.340   3.178   9.136
21041WAT     H163365   5.375   3.131   9.216
21041WAT     H263366   5.310   3.270   9.162
21042WAT      O63367   5.554   8.589   3.763
21042WAT     H163368   5.595   8.609   3.851
21042WAT     H263369   5.486   8.658   3.741
21043WAT      O63370   6.196   6.868   7.054
21043WAT     H163371   6.257   6.877   6.975
21043WAT     H263372   6.209   6.946   7.115
21044WAT      O63373   0.537   0.465   3.943
21044WAT     H163374   0.558   0.406   3.865
21044WAT     H263375   0.620   0.514   3.971
21045WAT      O63376   1.739   1.568   0.722
21045WAT     H163377   1.832   1.586   0.754
21045WAT     H263378   1.696   1.655   0.696
21046WAT      O63379   3.926   8.634   6.431
21046WAT     H163380   3.950   8.729   6.412
21046WAT     H263381   4.008   8.582   6.453
21047WAT      O63382   2.677   3.886   3.289
21047WAT     H163383   2.714   3.797   3.263
21047WAT     H263384   2.750   3.954   3.292
21048WAT      O63385   6.034   0.535   5.229
21048WAT     H163386   6.073   0.447   5.204
21048WAT     H263387   6.047   0.551   5.327
21049WAT      O63388   8.527   6.360   4.357
21049WAT     H163389   8.533   6.450   4.312
21049WAT     H263390   8.520   6.289   4.288
21050WAT      O63391   6.572   0.552   6.212
21050WAT     H163392   6.566   0.649   6.190
21050WAT     H263393   6.646   0.510   6.161
21051WAT      O63394   2.935   6.952   8.887
21051WAT     H163395   2.941   6.852   8.892
21051WAT     H263396   2.841   6.980   8.909
21052WAT      O63397   8.944   3.173   6.710
21052WAT     H163398   9.012   3.142   6.776
21052WAT     H263399   8.894   3.251   6.748
21053WAT      O63400   5.353   2.339   8.886
21053WAT     H163401   5.336   2.287   8.803
21053WAT     H263402   5.451   2.346   8.902
21054WAT      O63403   9.405   6.491   7.766
21054WAT     H163404   9.422   6.513   7.670
21054WAT     H263405   9.336   6.419   7.771
21055WAT      O63406   4.229   8.780   2.825
21055WAT     H163407   4.296   8.722   2.871
21055WAT     H263408   4.137   8.744   2.840
21056WAT      O63409   2.389   4.183   3.959
21056WAT     H163410   2.482   4.205   3.988
21056WAT     H263411   2.331   4.169   4.039
21057WAT      O63412   6.718   0.642   4.822
21057WAT     H163413   6.644   0.688   4.773
21057WAT     H263414   6.789   0.708   4.844
21058WAT      O63415   1.354   3.269   0.554
21058WAT     H163416   1.394   3.361   0.549
21058WAT     H263417   1.412   3.212   0.613
21059WAT      O63418   9.247   6.620   2.746
21059WAT     H163419   9.345   6.636   2.757
21059WAT     H263420   9.232   6.557   2.670
21060WAT      O63421   9.572   6.118   6.451
21060WAT     H163422   9.525   6.134   6.364
21060WAT     H263423   9.613   6.204   6.483
21061WAT      O63424   4.988   8.309   3.412
21061WAT     H163425   5.030   8.220   3.431
21061WAT     H263426   4.900   8.295   3.367
21062WAT      O63427   8.987   2.206   2.711
21062WAT     H163428   9.004   2.253   2.625
21062WAT     H263429   9.068   2.151   2.735
21063WAT      O63430   1.788   4.077   4.147
21063WAT     H163431   1.714   4.028   4.192
21063WAT     H263432   1.872   4.068   4.201
21064WAT      O63433   8.007   1.308   4.609
21064WAT     H163434   8.076   1.370   4.572
21064WAT     H263435   8.050   1.246   4.675
21065WAT      O63436   5.118   5.355   1.147
21065WAT     H163437   5.035   5.337   1.095
21065WAT     H263438   5.109   5.315   1.238
21066WAT      O63439   0.037   8.651   3.281
21066WAT     H163440   0.018   8.743   3.245
21066WAT     H263441   0.055   8.589   3.205
21067WAT      O63442   6.892   4.550   4.450
21067WAT     H163443   6.907   4.646   4.472
21067WAT     H263444   6.808   4.519   4.494
21068WAT      O63445   6.831   8.042   7.956
21068WAT     H163446   6.906   8.048   7.890
21068WAT     H263447   6.749   8.009   7.909
21069WAT      O63448   1.336   6.939   7.576
21069WAT     H163449   1.378   6.970   7.662
21069WAT     H263450   1.306   7.018   7.523
21070WAT      O63451   5.317   7.771   9.622
21070WAT     H163452   5.290   7.709   9.549
21070WAT     H263453   5.247   7.770   9.694
21071WAT      O63454   7.236   5.733   2.260
21071WAT     H163455   7.143   5.768   2.272
21071WAT     H263456   7.299   5.788   2.314
21072WAT      O63457   2.435   8.388   4.396
21072WAT     H163458   2.487   8.389   4.311
21072WAT     H263459   2.416   8.482   4.425
21073WAT      O63460   5.834   3.250   4.715
21073WAT     H163461   5.785   3.209   4.792
21073WAT     H263462   5.932   3.234   4.726
21074WAT      O63463   1.099   1.197   3.299
21074WAT     H163464   1.152   1.250   3.366
21074WAT     H263465   1.093   1.247   3.213
21075WAT      O63466   2.858   8.749   1.159
21075WAT     H163467   2.788   8.679   1.167
21075WAT     H263468   2.836   8.809   1.081
21076WAT      O63469   6.570   1.469   1.960
21076WAT     H163470   6.586   1.376   1.928
21076WAT     H263471   6.627   1.533   1.908
21077WAT      O63472   3.567   9.208   2.734
21077WAT     H163473   3.561   9.134   2.801
21077WAT     H263474   3.521   9.289   2.770
21078WAT      O63475   9.336   0.142   1.865
21078WAT     H163476   9.307   0.237   1.878
21078WAT     H263477   9.419   0.139   1.809
21079WAT      O63478   5.213   4.486   6.318
21079WAT     H163479   5.187   4.389   6.320
21079WAT     H263480   5.303   4.496   6.277
21080WAT      O63481   5.303   2.259   4.827
21080WAT     H163482   5.310   2.352   4.790
21080WAT     H263483   5.224   2.213   4.785
21081WAT      O63484   2.663   4.989   7.620
21081WAT     H163485   2.622   4.978   7.530
21081WAT     H263486   2.601   5.039   7.680
21082WAT      O63487   0.131   2.141   1.300
21082WAT     H163488   0.191   2.162   1.377
21082WAT     H263489   0.153   2.201   1.224
21083WAT      O63490   7.183   3.473   9.003
21083WAT     H163491   7.132   3.424   8.932
21083WAT     H263492   7.134   3.556   9.029
21084WAT      O63493   9.303   1.661   1.265
21084WAT     H163494   9.231   1.690   1.328
21084WAT     H263495   9.290   1.706   1.177
21085WAT      O63496   1.910   1.129   3.348
21085WAT     H163497   1.940   1.195   3.279
21085WAT     H263498   1.988   1.073   3.378
21086WAT      O63499   2.796   7.060   9.283
21086WAT     H163500   2.877   7.104   9.244
21086WAT     H263501   2.718   7.121   9.276
21087WAT      O63502   6.469   0.676   9.013
21087WAT     H163503   6.535   0.619   9.062
21087WAT     H263504   6.379   0.666   9.053
21088WAT      O63505   6.303   1.272   0.435
21088WAT     H163506   6.339   1.293   0.526
21088WAT     H263507   6.373   1.290   0.366
21089WAT      O63508   7.738   5.520   7.291
21089WAT     H163509   7.710   5.459   7.365
21089WAT     H263510   7.701   5.611   7.307
21090WAT      O63511   4.381   7.958   8.804
21090WAT     H163512   4.441   7.955   8.724
21090WAT     H263513   4.289   7.927   8.778
21091WAT      O63514   7.739   8.513   1.071
21091WAT     H163515   7.764   8.450   0.998
21091WAT     H263516   7.724   8.462   1.156
21092WAT      O63517   6.436   0.584   0.586
21092WAT     H163518   6.368   0.548   0.650
21092WAT     H263519   6.470   0.510   0.528
21093WAT      O63520   5.422   4.310   5.990
21093WAT     H163521   5.365   4.255   6.049
21093WAT     H263522   5.408   4.283   5.894
21094WAT      O63523   6.248   5.161   4.671
21094WAT     H163524   6.237   5.065   4.697
21094WAT     H263525   6.173   5.188   4.610
21095WAT      O63526   9.671   9.668   3.952
21095WAT     H163527   9.674   9.657   4.052
21095WAT     H263528   9.759   9.705   3.921
21096WAT      O63529   4.125   0.695   4.362
21096WAT     H163530   4.113   0.604   4.402
21096WAT     H263531   4.038   0.744   4.363
21097WAT      O63532   0.490   2.980   3.628
21097WAT     H163533   0.514   2.993   3.724
21097WAT     H263534   0.393   2.957   3.620
21098WAT      O63535   1.145   6.075   6.185
21098WAT     H163536   1.203   6.051   6.107
21098WAT     H263537   1.204   6.100   6.262
21099WAT      O63538   9.188   4.357   3.939
21099WAT     H163539   9.153   4.264   3.932
21099WAT     H263540   9.131   4.419   3.885
21100WAT      O63541   5.157   9.252   4.678
21100WAT     H163542   5.220   9.316   4.636
21100WAT     H263543   5.182   9.158   4.653
21101WAT      O63544   3.778   2.127   9.768
21101WAT     H163545   3.758   2.197   9.699
21101WAT     H263546   3.695   2.075   9.787
21102WAT      O63547   3.522   3.541   4.557
21102WAT     H163548   3.601   3.489   4.523
21102WAT     H263549   3.553   3.609   4.623
21103WAT      O63550   9.049   6.497   4.783
21103WAT     H163551   8.958   6.457   4.793
21103WAT     H263552   9.092   6.463   4.699
21104WAT      O63553   5.566   8.116   8.993
21104WAT     H163554   5.578   8.158   8.903
21104WAT     H263555   5.616   8.169   9.061
21105WAT      O63556   2.990   4.332   5.022
21105WAT     H163557   3.056   4.372   4.958
21105WAT     H263558   2.960   4.403   5.086
21106WAT      O63559   2.093   7.583   2.808
21106WAT     H163560   1.997   7.570   2.783
21106WAT     H263561   2.099   7.628   2.898
21107WAT      O63562   9.545   3.062   5.027
21107WAT     H163563   9.449   3.037   5.041
21107WAT     H263564   9.591   2.990   4.976
21108WAT      O63565   7.286   0.918   2.409
21108WAT     H163566   7.243   0.854   2.345
21108WAT     H263567   7.384   0.901   2.412
21109WAT      O63568   5.599   8.584   2.695
21109WAT     H163569   5.647   8.503   2.662
21109WAT     H263570   5.504   8.582   2.663
21110WAT      O63571   9.394   8.011   6.682
21110WAT     H163572   9.299   7.985   6.664
21110WAT     H263573   9.397   8.078   6.757
21111WAT      O63574   3.573   1.771   2.281
21111WAT     H163575   3.668   1.765   2.249
21111WAT     H263576   3.565   1.725   2.369
21112WAT      O63577   3.840   3.014   6.971
21112WAT     H163578   3.834   3.114   6.960
21112WAT     H263579   3.879   2.993   7.061
21113WAT      O63580   4.611   7.914   9.624
21113WAT     H163581   4.591   7.867   9.710
21113WAT     H263582   4.708   7.908   9.604
21114WAT      O63583   1.966   2.168   5.732
21114WAT     H163584   1.989   2.071   5.726
21114WAT     H263585   2.015   2.210   5.809
21115WAT      O63586   5.990   7.918   1.142
21115WAT     H163587   5.896   7.906   1.111
21115WAT     H263588   6.034   7.828   1.152
21116WAT      O63589   2.311   4.811   3.988
21116WAT     H163590   2.212   4.810   4.001
21116WAT     H263591   2.351   4.887   4.039
21117WAT      O63592   9.813   4.959   3.603
21117WAT     H163593   9.817   5.038   3.665
21117WAT     H263594   9.897   4.955   3.549
21118WAT      O63595   4.847   3.354   1.924
21118WAT     H163596   4.912   3.301   1.979
21118WAT     H263597   4.819   3.435   1.976
21119WAT      O63598   6.276   7.831   6.708
21119WAT     H163599   6.244   7.843   6.614
21119WAT     H263600   6.235   7.748   6.746
21120WAT      O63601   4.206   2.467   3.426
21120WAT     H163602   4.111   2.481   3.455
21120WAT     H263603   4.208   2.400   3.352
21121WAT      O63604   8.886   3.210   0.178
21121WAT     H163605   8.812   3.274   0.159
21121WAT     H263606   8.917   3.222   0.272
21122WAT      O63607   2.296   9.773   3.980
21122WAT     H163608   2.261   9.702   3.919
21122WAT     H263609   2.356   9.834   3.929
21123WAT      O63610   4.809   3.322   5.313
21123WAT     H163611   4.864   3.308   5.395
21123WAT     H263612   4.712   3.314   5.336
21124WAT      O63613   2.875   0.371   0.193
21124WAT     H163614   2.862   0.376   0.292
21124WAT     H263615   2.787   0.383   0.147
21125WAT      O63616   4.480   4.707   7.136
21125WAT     H163617   4.451   4.803   7.144
21125WAT     H263618   4.461   4.660   7.222
21126WAT      O63619   6.988   0.651   7.382
21126WAT     H163620   6.979   0.748   7.358
21126WAT     H263621   6.897   0.609   7.387
21127WAT      O63622   1.278   0.827   6.350
21127WAT     H163623   1.326   0.741   6.371
21127WAT     H263624   1.267   0.880   6.435
21128WAT      O63625   4.167   7.079   3.891
21128WAT     H163626   4.131   7.132   3.967
21128WAT     H263627   4.263   7.057   3.909
21129WAT      O63628   0.288   7.362   6.895
21129WAT     H163629   0.270   7.457   6.870
21129WAT     H263630   0.321   7.358   6.989
21130WAT      O63631   6.268   2.123   8.828
21130WAT     H163632   6.262   2.024   8.837
21130WAT     H263633   6.299   2.163   8.915
21131WAT      O63634   5.619   2.127   4.300
21131WAT     H163635   5.531   2.119   4.347
21131WAT     H263636   5.689   2.081   4.354
21132WAT      O63637   3.370   5.408   8.852
21132WAT     H163638   3.398   5.378   8.761
21132WAT     H263639   3.283   5.457   8.846
21133WAT      O63640   1.392   8.202   2.350
21133WAT     H163641   1.425   8.297   2.347
21133WAT     H263642   1.304   8.199   2.398
21134WAT      O63643   6.778   0.431   8.311
21134WAT     H163644   6.785   0.527   8.339
21134WAT     H263645   6.709   0.386   8.368
21135WAT      O63646   7.261   9.356   8.667
21135WAT     H163647   7.185   9.321   8.722
21135WAT     H263648   7.265   9.455   8.676
21136WAT      O63649   1.004   8.631   5.789
21136WAT     H163650   1.022   8.620   5.691
21136WAT     H263651   1.033   8.722   5.818
21137WAT      O63652   9.859   3.837   0.820
21137WAT     H163653   9.868   3.837   0.721
21137WAT     H263654   9.869   3.744   0.855
21138WAT      O63655   8.525   7.383   2.218
21138WAT     H163656   8.449   7.348   2.163
21138WAT     H263657   8.611   7.347   2.182
21139WAT      O63658   0.633   5.284   4.042
21139WAT     H163659   0.570   5.231   3.986
21139WAT     H263660   0.649   5.237   4.129
21140WAT      O63661   5.620   0.478   8.015
21140WAT     H163662   5.689   0.453   7.948
21140WAT     H263663   5.618   0.578   8.025
21141WAT      O63664   6.875   9.821   2.396
21141WAT     H163665   6.945   9.827   2.325
21141WAT     H263666   6.913   9.855   2.483
21142WAT      O63667   3.390   1.685   5.877
21142WAT     H163668   3.340   1.623   5.936
21142WAT     H263669   3.372   1.662   5.781
21143WAT      O63670   0.311   0.762   9.207
21143WAT     H163671   0.300   0.673   9.251
21143WAT     H263672   0.301   0.753   9.108
21144WAT      O63673   0.733   2.983   5.728
21144WAT     H163674   0.726   2.918   5.652
21144WAT     H263675   0.642   3.021   5.748
21145WAT      O63676   8.211   1.884   4.558
21145WAT     H163677   8.192   1.972   4.516
21145WAT     H263678   8.310   1.867   4.558
21146WAT      O63679   3.891   9.787   3.544
21146WAT     H163680   3.835   9.775   3.461
21146WAT     H263681   3.983   9.752   3.527
21147WAT      O63682   5.953   1.925   5.329
21147WAT     H163683   5.863   1.916   5.372
21147WAT     H263684   5.942   1.966   5.238
21148WAT      O63685   1.456   3.650   5.101
21148WAT     H163686   1.497   3.564   5.070
21148WAT     H263687   1.414   3.696   5.023
21149WAT      O63688   2.318   9.269   8.545
21149WAT     H163689   2.235   9.310   8.506
21149WAT     H263690   2.366   9.337   8.601
21150WAT      O63691   8.525   7.353   4.176
21150WAT     H163692   8.455   7.419   4.202
21150WAT     H263693   8.613   7.382   4.213
21151WAT      O63694   1.007   3.828   9.016
21151WAT     H163695   1.065   3.811   9.096
21151WAT     H263696   1.047   3.899   8.959
21152WAT      O63697   2.635   9.832   5.427
21152WAT     H163698   2.538   9.853   5.412
21152WAT     H263699   2.651   9.816   5.524
21153WAT      O63700   2.549   2.985   9.225
21153WAT     H163701   2.569   2.983   9.323
21153WAT     H263702   2.596   2.908   9.180
21154WAT      O63703   8.924   4.111   4.282
21154WAT     H163704   8.835   4.077   4.255
21154WAT     H263705   8.988   4.105   4.205
21155WAT      O63706   6.529   4.962   8.814
21155WAT     H163707   6.434   4.969   8.842
21155WAT     H263708   6.538   4.893   8.742
21156WAT      O63709   8.449   4.515   8.052
21156WAT     H163710   8.512   4.570   7.998
21156WAT     H263711   8.431   4.428   8.004
21157WAT      O63712   3.678   5.470   0.201
21157WAT     H163713   3.619   5.415   0.260
21157WAT     H263714   3.622   5.525   0.139
21158WAT      O63715   4.850   4.120   9.122
21158WAT     H163716   4.753   4.139   9.130
21158WAT     H263717   4.893   4.190   9.065
21159WAT      O63718   7.754   1.133   7.281
21159WAT     H163719   7.724   1.179   7.365
21159WAT     H263720   7.813   1.194   7.229
21160WAT      O63721   7.889   0.916   5.027
21160WAT     H163722   7.814   0.871   5.076
21160WAT     H263723   7.881   1.015   5.038
21161WAT      O63724   7.509   1.154   1.272
21161WAT     H163725   7.595   1.126   1.228
21161WAT     H263726   7.517   1.140   1.371
21162WAT      O63727   4.176   7.584   1.536
21162WAT     H163728   4.231   7.549   1.460
21162WAT     H263729   4.223   7.565   1.622
21163WAT      O63730   0.162   3.182   0.486
21163WAT     H163731   0.153   3.210   0.390
21163WAT     H263732   0.093   3.114   0.508
21164WAT      O63733   7.283   8.007   7.557
21164WAT     H163734   7.265   7.914   7.587
21164WAT     H263735   7.315   8.006   7.462
21165WAT      O63736   9.520   8.428   3.350
21165WAT     H163737   9.577   8.363   3.301
21165WAT     H263738   9.432   8.438   3.302
21166WAT      O63739   7.595   2.087   2.128
21166WAT     H163740   7.585   2.184   2.149
21166WAT     H263741   7.507   2.041   2.142
21167WAT      O63742   4.617   5.837   3.582
21167WAT     H163743   4.709   5.805   3.607
21167WAT     H263744   4.581   5.894   3.656
21168WAT      O63745   5.985   8.069   8.059
21168WAT     H163746   6.036   8.077   8.144
21168WAT     H263747   5.890   8.096   8.074
21169WAT      O63748   5.880   4.742   6.263
21169WAT     H163749   5.849   4.656   6.304
21169WAT     H263750   5.827   4.761   6.181
21170WAT      O63751   0.180   5.854   6.109
21170WAT     H163752   0.206   5.807   6.194
21170WAT     H263753   0.211   5.801   6.030
21171WAT      O63754   1.316   3.510   6.103
21171WAT     H163755   1.409   3.495   6.068
21171WAT     H263756   1.315   3.492   6.202
21172WAT      O63757   4.056   1.852   8.677
21172WAT     H163758   4.147   1.820   8.702
21172WAT     H263759   4.007   1.779   8.630
21173WAT      O63760   7.648   3.389   8.562
21173WAT     H163761   7.669   3.370   8.658
21173WAT     H263762   7.696   3.471   8.533
21174WAT      O63763   3.876   3.914   7.869
21174WAT     H163764   3.877   3.969   7.785
21174WAT     H263765   3.784   3.914   7.908
21175WAT      O63766   7.699   9.444   6.543
21175WAT     H163767   7.679   9.462   6.639
21175WAT     H263768   7.797   9.449   6.527
21176WAT      O63769   3.328   3.367   4.599
21176WAT     H163770   3.399   3.436   4.589
21176WAT     H263771   3.349   3.289   4.541
21177WAT      O63772   0.595   1.630   4.807
21177WAT     H163773   0.629   1.724   4.804
21177WAT     H263774   0.499   1.630   4.836
21178WAT      O63775   7.997   6.621   7.741
21178WAT     H163776   7.972   6.630   7.837
21178WAT     H263777   8.050   6.538   7.727
21179WAT      O63778   6.253   2.758   8.266
21179WAT     H163779   6.292   2.822   8.333
21179WAT     H263780   6.163   2.728   8.297
21180WAT      O63781   5.599   6.319   1.596
21180WAT     H163782   5.686   6.331   1.643
21180WAT     H263783   5.524   6.338   1.659
21181WAT      O63784   8.724   2.397   6.553
21181WAT     H163785   8.719   2.495   6.533
21181WAT     H263786   8.758   2.384   6.646
21182WAT      O63787   5.330   1.371   1.169
21182WAT     H163788   5.360   1.461   1.135
21182WAT     H263789   5.410   1.316   1.191
21183WAT      O63790   5.539   2.034   2.210
21183WAT     H163791   5.513   2.001   2.119
21183WAT     H263792   5.638   2.022   2.222
21184WAT      O63793   0.938   7.272   1.661
21184WAT     H163794   1.031   7.307   1.669
21184WAT     H263795   0.935   7.178   1.693
21185WAT      O63796   9.769   2.908   2.764
21185WAT     H163797   9.687   2.948   2.724
21185WAT     H263798   9.766   2.919   2.863
21186WAT      O63799   8.143   5.459   3.698
21186WAT     H163800   8.243   5.456   3.700
21186WAT     H263801   8.107   5.456   3.792
21187WAT      O63802   1.393   6.036   2.085
21187WAT     H163803   1.455   5.958   2.093
21187WAT     H263804   1.427   6.111   2.141
21188WAT      O63805   6.611   8.081   5.142
21188WAT     H163806   6.545   8.023   5.191
21188WAT     H263807   6.696   8.030   5.128
21189WAT      O63808   7.016   0.629   7.662
21189WAT     H163809   7.042   0.609   7.568
21189WAT     H263810   6.956   0.709   7.664
21190WAT      O63811   7.926   3.962   3.492
21190WAT     H163812   7.989   3.998   3.424
21190WAT     H263813   7.977   3.937   3.574
21191WAT      O63814   7.263   6.660   6.346
21191WAT     H163815   7.181   6.605   6.364
21191WAT     H263816   7.315   6.670   6.431
21192WAT      O63817   5.940   9.088   8.895
21192WAT     H163818   5.992   9.031   8.831
21192WAT     H263819   5.973   9.182   8.890
21193WAT      O63820   6.737   0.992   7.175
21193WAT     H163821   6.729   0.897   7.146
21193WAT     H263822   6.685   1.006   7.259
21194WAT      O63823   5.925   9.634   1.977
21194WAT     H163824   5.911   9.593   1.887
21194WAT     H263825   6.019   9.667   1.985
21195WAT      O63826   9.365   5.225   3.343
21195WAT     H163827   9.457   5.186   3.353
21195WAT     H263828   9.368   5.322   3.366
21196WAT      O63829   7.476   5.289   1.182
21196WAT     H163830   7.509   5.206   1.226
21196WAT     H263831   7.376   5.284   1.171
21197WAT      O63832   3.044   8.106   8.344
21197WAT     H163833   2.973   8.042   8.315
21197WAT     H263834   3.016   8.199   8.320
21198WAT      O63835   5.450   1.923   0.480
21198WAT     H163836   5.515   1.997   0.464
21198WAT     H263837   5.441   1.907   0.579
21199WAT      O63838   7.326   0.272   0.737
21199WAT     H163839   7.291   0.264   0.644
21199WAT     H263840   7.425   0.284   0.734
21200WAT      O63841   0.131   8.256   4.942
21200WAT     H163842   0.092   8.221   4.857
21200WAT     H263843   0.061   8.303   4.994
21201WAT      O63844   0.668   5.061   7.532
21201WAT     H163845   0.625   5.146   7.500
21201WAT     H263846   0.765   5.061   7.509
21202WAT      O63847   3.430   9.696   7.793
21202WAT     H163848   3.530   9.709   7.789
21202WAT     H263849   3.392   9.758   7.862
21203WAT      O63850   3.152   3.289   4.039
21203WAT     H163851   3.145   3.200   3.994
21203WAT     H263852   3.120   3.282   4.133
21204WAT      O63853   3.055   3.485   1.517
21204WAT     H163854   3.126   3.552   1.539
21204WAT     H263855   3.091   3.393   1.529
21205WAT      O63856   8.875   6.782   6.939
21205WAT     H163857   8.871   6.772   6.840
21205WAT     H263858   8.805   6.724   6.981
21206WAT      O63859   4.499   5.723   3.369
21206WAT     H163860   4.496   5.629   3.401
21206WAT     H263861   4.566   5.775   3.422
21207WAT      O63862   4.000   1.389   7.954
21207WAT     H163863   3.942   1.358   7.879
21207WAT     H263864   3.943   1.416   8.031
21208WAT      O63865   5.884   3.377   6.724
21208WAT     H163866   5.975   3.419   6.726
21208WAT     H263867   5.886   3.291   6.775
21209WAT      O63868   5.947   2.620   4.902
21209WAT     H163869   5.930   2.598   4.806
21209WAT     H263870   5.862   2.651   4.944
21210WAT      O63871   9.375   1.524   0.641
21210WAT     H163872   9.301   1.460   0.621
21210WAT     H263873   9.347   1.617   0.615
21211WAT      O63874   0.464   2.265   9.812
21211WAT     H163875   0.386   2.252   9.751
21211WAT     H263876   0.509   2.352   9.791
21212WAT      O63877   2.955   3.105   8.151
21212WAT     H163878   3.050   3.076   8.156
21212WAT     H263879   2.910   3.057   8.075
21213WAT      O63880   9.883   7.238   4.497
21213WAT     H163881   9.837   7.301   4.434
21213WAT     H263882   9.939   7.174   4.445
21214WAT      O63883   0.498   8.927   1.547
21214WAT     H163884   0.591   8.895   1.530
21214WAT     H263885   0.486   8.943   1.645
21215WAT      O63886   2.672   6.151   7.580
21215WAT     H163887   2.735   6.088   7.624
21215WAT     H263888   2.652   6.118   7.487
21216WAT      O63889   1.210   5.871   0.097
21216WAT     H163890   1.124   5.899   0.054
21216WAT     H263891   1.284   5.874   0.030
21217WAT      O63892   4.642   3.095   9.499
21217WAT     H163893   4.685   3.093   9.590
21217WAT     H263894   4.621   3.189   9.474
21218WAT      O63895   8.995   3.383   5.785
21218WAT     H163896   8.897   3.398   5.766
21218WAT     H263897   9.017   3.418   5.876
21219WAT      O63898   1.529   4.857   4.909
21219WAT     H163899   1.512   4.889   5.002
21219WAT     H263900   1.626   4.837   4.898
21220WAT      O63901   3.605   7.133   3.288
21220WAT     H163902   3.683   7.099   3.339
21220WAT     H263903   3.618   7.114   3.190
21221WAT      O63904   7.053   6.527   5.216
21221WAT     H163905   6.976   6.571   5.261
21221WAT     H263906   7.110   6.596   5.172
21222WAT      O63907   2.409   2.081   1.883
21222WAT     H163908   2.393   2.172   1.921
21222WAT     H263909   2.507   2.061   1.883
21223WAT      O63910   7.770   1.333   6.563
21223WAT     H163911   7.752   1.341   6.661
21223WAT     H263912   7.775   1.425   6.523
21224WAT      O63913   7.489   4.581   7.520
21224WAT     H163914   7.446   4.496   7.492
21224WAT     H263915   7.588   4.568   7.527
21225WAT      O63916   4.146   4.327   0.089
21225WAT     H163917   4.101   4.329   0.179
21225WAT     H263918   4.231   4.380   0.094
21226WAT      O63919   0.016   1.351   1.858
21226WAT     H163920  -0.004   1.293   1.779
21226WAT     H263921  -0.061   1.349   1.922
21227WAT      O63922   3.715   5.675   2.426
21227WAT     H163923   3.792   5.739   2.436
21227WAT     H263924   3.664   5.696   2.343
21228WAT      O63925   7.197   4.868   5.030
21228WAT     H163926   7.132   4.928   4.984
21228WAT     H263927   7.290   4.901   5.015
21229WAT      O63928   4.039   6.479   7.619
21229WAT     H163929   4.024   6.466   7.717
21229WAT     H263930   4.061   6.391   7.577
21230WAT      O63931   5.514   2.458   6.452
21230WAT     H163932   5.594   2.453   6.392
21230WAT     H263933   5.515   2.380   6.515
21231WAT      O63934   0.698   5.627   3.432
21231WAT     H163935   0.693   5.553   3.499
21231WAT     H263936   0.605   5.648   3.399
21232WAT      O63937   2.519   5.077   3.778
21232WAT     H163938   2.585   5.111   3.711
21232WAT     H263939   2.541   5.116   3.868
21233WAT      O63940   8.229   9.506   0.325
21233WAT     H163941   8.153   9.567   0.348
21233WAT     H263942   8.297   9.508   0.398
21234WAT      O63943   1.211   4.546   1.353
21234WAT     H163944   1.175   4.598   1.276
21234WAT     H263945   1.305   4.518   1.333
21235WAT      O63946   0.599   4.248   7.654
21235WAT     H163947   0.508   4.246   7.696
21235WAT     H263948   0.668   4.225   7.723
21236WAT      O63949   7.826   9.711   8.378
21236WAT     H163950   7.894   9.782   8.398
21236WAT     H263951   7.858   9.624   8.416
21237WAT      O63952   0.811   6.709   9.181
21237WAT     H163953   0.814   6.637   9.250
21237WAT     H263954   0.794   6.669   9.091
21238WAT      O63955   6.616   8.950   6.014
21238WAT     H163956   6.667   8.881   5.962
21238WAT     H263957   6.643   8.946   6.110
21239WAT      O63958   1.614   5.204   7.844
21239WAT     H163959   1.561   5.165   7.920
21239WAT     H263960   1.555   5.214   7.764
21240WAT      O63961   7.433   8.657   7.499
21240WAT     H163962   7.406   8.753   7.512
21240WAT     H263963   7.513   8.637   7.555
21241WAT      O63964   0.354   4.623   3.773
21241WAT     H163965   0.451   4.602   3.759
21241WAT     H263966   0.344   4.682   3.853
21242WAT      O63967   4.460   4.632   1.608
21242WAT     H163968   4.551   4.639   1.567
21242WAT     H263969   4.391   4.634   1.536
21243WAT      O63970   2.778   5.539   0.284
21243WAT     H163971   2.859   5.575   0.238
21243WAT     H263972   2.791   5.544   0.383
21244WAT      O63973   3.094   8.991   6.967
21244WAT     H163974   3.114   9.059   7.037
21244WAT     H263975   3.059   9.038   6.885
21245WAT      O63976   4.702   7.843   6.949
21245WAT     H163977   4.639   7.767   6.964
21245WAT     H263978   4.685   7.883   6.859
21246WAT      O63979   0.491   3.133   5.824
21246WAT     H163980   0.395   3.134   5.852
21246WAT     H263981   0.506   3.201   5.753
21247WAT      O63982   0.903   2.551   9.644
21247WAT     H163983   0.871   2.637   9.685
21247WAT     H263984   1.002   2.557   9.628
21248WAT      O63985   1.861   5.321   5.801
21248WAT     H163986   1.780   5.352   5.752
21248WAT     H263987   1.937   5.309   5.737
21249WAT      O63988   0.041   4.230   4.643
21249WAT     H163989   0.093   4.262   4.564
21249WAT     H263990   0.103   4.222   4.722
21250WAT      O63991   8.087   6.806   4.337
21250WAT     H163992   8.009   6.856   4.301
21250WAT     H263993   8.059   6.755   4.418
21251WAT      O63994   3.448   6.973   9.456
21251WAT     H163995   3.453   6.926   9.368
21251WAT     H263996   3.524   6.945   9.514
21252WAT      O63997   0.986   7.966   2.145
21252WAT     H163998   0.989   7.869   2.122
21252WAT     H263999   0.982   8.020   2.060
21253WAT      O64000   0.093   9.613   1.750
21253WAT     H164001   0.144   9.648   1.672
21253WAT     H264002   0.037   9.535   1.720
21254WAT      O64003   6.032   6.628   2.488
21254WAT     H164004   6.131   6.620   2.474
21254WAT     H264005   5.996   6.700   2.429
21255WAT      O64006   5.042   0.485   0.238
21255WAT     H164007   5.077   0.579   0.231
21255WAT     H264008   4.950   0.481   0.199
21256WAT      O64009   0.115   5.635   0.474
21256WAT     H164010   0.068   5.723   0.472
21256WAT     H264011   0.099   5.590   0.562
21257WAT      O64012   3.452   7.498   5.560
21257WAT     H164013   3.420   7.516   5.653
21257WAT     H264014   3.507   7.415   5.559
21258WAT      O64015   9.548   0.139   8.891
21258WAT     H164016   9.620   0.208   8.883
21258WAT     H264017   9.503   0.149   8.980
21259WAT      O64018   0.366   2.060   7.849
21259WAT     H164019   0.380   1.983   7.912
21259WAT     H264020   0.347   2.143   7.901
21260WAT      O64021   2.466   5.051   6.965
21260WAT     H164022   2.429   5.115   6.898
21260WAT     H264023   2.394   5.023   7.028
21261WAT      O64024   8.289   2.046   7.971
21261WAT     H164025   8.274   2.120   8.035
21261WAT     H264026   8.221   1.974   7.985
21262WAT      O64027   9.394   2.620   4.708
21262WAT     H164028   9.367   2.651   4.799
21262WAT     H264029   9.333   2.546   4.679
21263WAT      O64030   8.465   7.047   3.402
21263WAT     H164031   8.371   7.014   3.413
21263WAT     H264032   8.498   7.024   3.311
21264WAT      O64033   9.681   5.323   2.762
21264WAT     H164034   9.639   5.246   2.810
21264WAT     H264035   9.648   5.409   2.803
21265WAT      O64036   5.305   6.748   5.253
21265WAT     H164037   5.212   6.733   5.287
21265WAT     H264038   5.369   6.749   5.331
21266WAT      O64039   6.546   6.451   5.256
21266WAT     H164040   6.470   6.476   5.197
21266WAT     H264041   6.554   6.351   5.259
21267WAT      O64042   7.051   0.932   7.314
21267WAT     H164043   7.115   0.916   7.239
21267WAT     H264044   7.037   1.031   7.325
21268WAT      O64045   2.028   0.394   6.409
21268WAT     H164046   2.046   0.465   6.341
21268WAT     H264047   2.044   0.304   6.367
21269WAT      O64048   2.301   3.430   4.843
21269WAT     H164049   2.266   3.378   4.765
21269WAT     H264050   2.275   3.526   4.833
21270WAT      O64051   5.672   1.197   5.201
21270WAT     H164052   5.757   1.238   5.167
21270WAT     H264053   5.598   1.265   5.195
21271WAT      O64054   9.594   9.429   2.339
21271WAT     H164055   9.527   9.361   2.368
21271WAT     H264056   9.547   9.506   2.296
21272WAT      O64057   7.611   8.935   1.903
21272WAT     H164058   7.587   8.886   1.820
21272WAT     H264059   7.554   9.017   1.911
21273WAT      O64060   4.639   0.394   6.703
21273WAT     H164061   4.661   0.319   6.642
21273WAT     H264062   4.635   0.360   6.797
21274WAT      O64063   6.163   4.239   8.477
21274WAT     H164064   6.159   4.208   8.572
21274WAT     H264065   6.075   4.278   8.451
21275WAT      O64066   2.057   6.880   8.226
21275WAT     H164067   2.115   6.896   8.307
21275WAT     H264068   1.997   6.802   8.243
21276WAT      O64069   3.344   6.613   9.365
21276WAT     H164070   3.255   6.579   9.397
21276WAT     H264071   3.417   6.562   9.410
21277WAT      O64072   5.162   0.175   0.573
21277WAT     H164073   5.214   0.197   0.655
21277WAT     H264074   5.108   0.092   0.588
21278WAT      O64075   9.632   2.757   1.611
21278WAT     H164076   9.576   2.696   1.668
21278WAT     H264077   9.635   2.848   1.653
21279WAT      O64078   4.909   3.025   4.534
21279WAT     H164079   4.898   2.930   4.504
21279WAT     H264080   5.004   3.042   4.557
21280WAT      O64081   3.861   3.297   5.759
21280WAT     H164082   3.802   3.335   5.688
21280WAT     H264083   3.903   3.213   5.726
21281WAT      O64084   0.441   6.335   7.058
21281WAT     H164085   0.380   6.400   7.013
21281WAT     H264086   0.412   6.322   7.152
21282WAT      O64087   1.012   0.840   1.307
21282WAT     H164088   0.976   0.770   1.369
21282WAT     H264089   1.091   0.884   1.349
21283WAT      O64090   2.844   5.598   3.608
21283WAT     H164091   2.879   5.690   3.627
21283WAT     H264092   2.919   5.532   3.617
21284WAT      O64093   1.232   1.584   9.760
21284WAT     H164094   1.146   1.624   9.794
21284WAT     H264095   1.305   1.600   9.826
21285WAT      O64096   4.068   2.479   1.935
21285WAT     H164097   4.121   2.397   1.912
21285WAT     H264098   4.090   2.507   2.029
21286WAT      O64099   9.801   9.112   2.038
21286WAT     H164100   9.843   9.133   1.950
21286WAT     H264101   9.723   9.051   2.024
21287WAT      O64102   7.303   5.234   6.444
21287WAT     H164103   7.369   5.243   6.369
21287WAT     H264104   7.222   5.288   6.424
21288WAT      O64105   1.716   8.459   0.320
21288WAT     H164106   1.738   8.557   0.314
21288WAT     H264107   1.619   8.449   0.339
21289WAT      O64108   8.484   9.412   7.680
21289WAT     H164109   8.572   9.398   7.727
21289WAT     H264110   8.474   9.343   7.609
21290WAT      O64111   2.697   3.363   1.854
21290WAT     H164112   2.748   3.427   1.796
21290WAT     H264113   2.615   3.333   1.806
21291WAT      O64114   5.227   8.366   0.778
21291WAT     H164115   5.204   8.290   0.718
21291WAT     H264116   5.283   8.333   0.854
21292WAT      O64117   3.865   4.681   0.816
21292WAT     H164118   3.928   4.758   0.810
21292WAT     H264119   3.798   4.686   0.741
21293WAT      O64120   1.440   7.795   3.149
21293WAT     H164121   1.395   7.834   3.068
21293WAT     H264122   1.487   7.867   3.199
21294WAT      O64123   7.619   9.138   1.246
21294WAT     H164124   7.578   9.193   1.174
21294WAT     H264125   7.697   9.087   1.210
21295WAT      O64126   2.349   6.338   4.012
21295WAT     H164127   2.293   6.282   3.951
21295WAT     H264128   2.444   6.338   3.980
21296WAT      O64129   0.337   3.938   0.625
21296WAT     H164130   0.257   3.893   0.588
21296WAT     H264131   0.312   4.029   0.658
21297WAT      O64132   8.001   2.628   2.062
21297WAT     H164133   8.076   2.593   2.117
21297WAT     H264134   8.035   2.657   1.973
21298WAT      O64135   5.377   9.526   5.421
21298WAT     H164136   5.371   9.447   5.482
21298WAT     H264137   5.449   9.510   5.354
21299WAT      O64138   6.480   2.347   0.819
21299WAT     H164139   6.498   2.250   0.838
21299WAT     H264140   6.502   2.366   0.723
21300WAT      O64141   8.473   2.549   0.444
21300WAT     H164142   8.532   2.596   0.379
21300WAT     H264143   8.378   2.576   0.427
21301WAT      O64144   7.096   2.105   0.162
21301WAT     H164145   7.118   2.182   0.102
21301WAT     H264146   7.044   2.037   0.111
21302WAT      O64147   2.369   3.463   7.733
21302WAT     H164148   2.398   3.546   7.687
21302WAT     H264149   2.299   3.417   7.679
21303WAT      O64150   5.484   7.857   7.386
21303WAT     H164151   5.423   7.791   7.341
21303WAT     H264152   5.571   7.812   7.406
21304WAT      O64153   7.883   4.382   5.835
21304WAT     H164154   7.950   4.442   5.879
21304WAT     H264155   7.791   4.413   5.857
21305WAT      O64156   3.552   7.926   8.090
21305WAT     H164157   3.539   7.838   8.045
21305WAT     H264158   3.483   7.991   8.058
21306WAT      O64159   4.025   2.729   1.130
21306WAT     H164160   4.117   2.767   1.122
21306WAT     H264161   4.022   2.640   1.085
21307WAT      O64162   0.658   1.630   5.236
21307WAT     H164163   0.593   1.642   5.311
21307WAT     H264164   0.697   1.718   5.211
21308WAT      O64165   3.040   6.185   8.105
21308WAT     H164166   3.133   6.181   8.140
21308WAT     H264167   3.008   6.092   8.085
21309WAT      O64168   4.230   0.999   1.621
21309WAT     H164169   4.133   1.022   1.614
21309WAT     H264170   4.246   0.909   1.583
21310WAT      O64171   9.797   4.576   7.924
21310WAT     H164172   9.859   4.651   7.900
21310WAT     H264173   9.703   4.608   7.919
21311WAT      O64174   4.963   2.464   5.929
21311WAT     H164175   4.863   2.460   5.922
21311WAT     H264176   4.991   2.558   5.947
21312WAT      O64177   8.542   6.870   4.161
21312WAT     H164178   8.474   6.879   4.233
21312WAT     H264179   8.497   6.866   4.072
21313WAT      O64180   4.480   9.461   7.389
21313WAT     H164181   4.567   9.501   7.361
21313WAT     H264182   4.408   9.490   7.327
21314WAT      O64183   8.047   1.058   3.382
21314WAT     H164184   8.084   1.145   3.349
21314WAT     H264185   7.947   1.060   3.378
21315WAT      O64186   9.763   2.252   1.044
21315WAT     H164187   9.846   2.196   1.041
21315WAT     H264188   9.735   2.276   0.952
21316WAT      O64189   4.165   3.351   6.377
21316WAT     H164190   4.108   3.288   6.324
21316WAT     H264191   4.119   3.439   6.383
21317WAT      O64192   8.154   8.074   9.152
21317WAT     H164193   8.243   8.117   9.168
21317WAT     H264194   8.149   8.042   9.057
21318WAT      O64195   8.147   9.827   9.417
21318WAT     H164196   8.195   9.742   9.394
21318WAT     H264197   8.168   9.896   9.348
21319WAT      O64198   0.402   9.095   7.450
21319WAT     H164199   0.399   9.156   7.372
21319WAT     H264200   0.489   9.106   7.499
21320WAT      O64201   2.061   3.991   4.621
21320WAT     H164202   2.070   4.010   4.719
21320WAT     H264203   2.150   4.003   4.577
21321WAT      O64204   2.197   4.795   7.775
21321WAT     H164205   2.196   4.748   7.687
21321WAT     H264206   2.221   4.730   7.847
21322WAT      O64207   5.776   2.296   9.669
21322WAT     H164208   5.738   2.381   9.632
21322WAT     H264209   5.753   2.289   9.766
21323WAT      O64210   3.941   2.045   0.201
21323WAT     H164211   3.851   2.080   0.175
21323WAT     H264212   3.930   1.963   0.257
21324WAT      O64213   6.956   1.164   8.108
21324WAT     H164214   6.981   1.163   8.205
21324WAT     H264215   6.996   1.085   8.062
21325WAT      O64216   2.942   3.433   6.696
21325WAT     H164217   2.890   3.410   6.614
21325WAT     H264218   2.889   3.409   6.777
21326WAT      O64219   0.795   0.086   2.885
21326WAT     H164220   0.858   0.094   2.961
21326WAT     H264221   0.743   0.001   2.893
21327WAT      O64222   8.767   2.986   7.032
21327WAT     H164223   8.698   2.958   6.965
21327WAT     H264224   8.858   2.962   6.998
21328WAT      O64225   8.515   8.983   4.000
21328WAT     H164226   8.526   8.960   4.096
21328WAT     H264227   8.470   9.072   3.991
21329WAT      O64228   2.163   3.241   0.418
21329WAT     H164229   2.179   3.148   0.383
21329WAT     H264230   2.196   3.247   0.512
21330WAT      O64231   8.795   3.661   4.661
21330WAT     H164232   8.856   3.606   4.717
21330WAT     H264233   8.848   3.717   4.597
21331WAT      O64234   7.383   3.181   5.790
21331WAT     H164235   7.431   3.099   5.821
21331WAT     H264236   7.315   3.155   5.721
21332WAT      O64237   4.165   6.648   5.128
21332WAT     H164238   4.158   6.551   5.102
21332WAT     H264239   4.259   6.680   5.111
21333WAT      O64240   6.035   1.271   2.995
21333WAT     H164241   6.119   1.275   3.049
21333WAT     H264242   6.001   1.363   2.979
21334WAT      O64243   9.048   2.514   8.373
21334WAT     H164244   9.044   2.582   8.300
21334WAT     H264245   9.131   2.459   8.364
21335WAT      O64246   2.085   2.114   9.493
21335WAT     H164247   2.054   2.149   9.582
21335WAT     H264248   2.139   2.031   9.507
21336WAT      O64249   3.015   1.847   7.929
21336WAT     H164250   2.918   1.850   7.955
21336WAT     H264251   3.027   1.782   7.854
21337WAT      O64252   4.188   8.666   6.753
21337WAT     H164253   4.233   8.728   6.689
21337WAT     H264254   4.256   8.613   6.803
21338WAT      O64255   6.001   3.989   5.097
21338WAT     H164256   5.943   3.998   5.016
21338WAT     H264257   6.005   3.893   5.125
21339WAT      O64258   2.061   8.478   3.484
21339WAT     H164259   2.021   8.388   3.501
21339WAT     H264260   2.047   8.503   3.388
21340WAT      O64261   6.137   3.823   1.494
21340WAT     H164262   6.146   3.827   1.394
21340WAT     H264263   6.127   3.916   1.530
21341WAT      O64264   2.082   3.375   3.173
21341WAT     H164265   2.044   3.302   3.116
21341WAT     H264266   2.011   3.443   3.191
21342WAT      O64267   0.758   0.019   0.095
21342WAT     H164268   0.742  -0.044   0.019
21342WAT     H264269   0.673   0.066   0.118
21343WAT      O64270   0.959   3.130   5.766
21343WAT     H164271   0.946   3.212   5.822
21343WAT     H264272   0.871   3.086   5.750
21344WAT      O64273   7.557   5.764   0.230
21344WAT     H164274   7.653   5.776   0.256
21344WAT     H264275   7.512   5.853   0.230
21345WAT      O64276   5.532   1.538   0.618
21345WAT     H164277   5.554   1.589   0.535
21345WAT     H264278   5.524   1.440   0.597
21346WAT      O64279   0.873   6.131   7.887
21346WAT     H164280   0.781   6.132   7.847
21346WAT     H264281   0.878   6.199   7.960
21347WAT      O64282   9.834   5.625   9.621
21347WAT     H164283   9.876   5.714   9.601
21347WAT     H264284   9.905   5.555   9.624
21348WAT      O64285   1.771   3.617   0.056
21348WAT     H164286   1.790   3.711   0.027
21348WAT     H264287   1.747   3.617   0.153
21349WAT      O64288   0.789   0.413   1.501
21349WAT     H164289   0.708   0.461   1.467
21349WAT     H264290   0.762   0.348   1.572
21350WAT      O64291   8.336   6.503   6.330
21350WAT     H164292   8.263   6.436   6.342
21350WAT     H264293   8.402   6.494   6.404
21351WAT      O64294   6.560   9.583   5.880
21351WAT     H164295   6.586   9.516   5.949
21351WAT     H264296   6.642   9.627   5.843
21352WAT      O64297   4.084   3.706   5.274
21352WAT     H164298   4.116   3.787   5.323
21352WAT     H264299   4.110   3.624   5.326
21353WAT      O64300   5.440   1.297   6.401
21353WAT     H164301   5.352   1.251   6.389
21353WAT     H264302   5.478   1.321   6.312
21354WAT      O64303   0.365   8.325   4.144
21354WAT     H164304   0.322   8.391   4.083
21354WAT     H264305   0.301   8.251   4.165
21355WAT      O64306   7.177   0.644   8.562
21355WAT     H164307   7.241   0.568   8.564
21355WAT     H264308   7.224   0.726   8.529
21356WAT      O64309   3.436   5.546   6.341
21356WAT     H164310   3.390   5.634   6.331
21356WAT     H264311   3.530   5.553   6.307
21357WAT      O64312   0.602   7.062   9.641
21357WAT     H164313   0.537   7.017   9.702
21357WAT     H264314   0.558   7.140   9.596
21358WAT      O64315   8.683   3.886   5.918
21358WAT     H164316   8.603   3.924   5.965
21358WAT     H264317   8.657   3.859   5.825
21359WAT      O64318   2.906   4.336   5.746
21359WAT     H164319   2.962   4.267   5.790
21359WAT     H264320   2.822   4.294   5.710
21360WAT      O64321   8.681   0.069   7.549
21360WAT     H164322   8.603   0.123   7.580
21360WAT     H264323   8.728   0.028   7.627
21361WAT      O64324   8.096   5.557   3.218
21361WAT     H164325   8.082   5.621   3.142
21361WAT     H264326   8.095   5.464   3.184
21362WAT      O64327   0.040   9.193   6.534
21362WAT     H164328   0.008   9.098   6.526
21362WAT     H264329   0.026   9.240   6.448
21363WAT      O64330   5.575   5.612   0.342
21363WAT     H164331   5.559   5.576   0.250
21363WAT     H264332   5.536   5.549   0.409
21364WAT      O64333   8.164   1.575   6.710
21364WAT     H164334   8.141   1.478   6.717
21364WAT     H264335   8.135   1.609   6.620
21365WAT      O64336   8.501   8.734   3.879
21365WAT     H164337   8.519   8.828   3.908
21365WAT     H264338   8.582   8.678   3.895
21366WAT      O64339   6.768   8.268   5.461
21366WAT     H164340   6.865   8.243   5.464
21366WAT     H264341   6.748   8.311   5.373
21367WAT      O64342   7.176   5.764   6.613
21367WAT     H164343   7.167   5.666   6.599
21367WAT     H264344   7.086   5.805   6.624
21368WAT      O64345   2.292   3.058   9.171
21368WAT     H164346   2.387   3.037   9.195
21368WAT     H264347   2.286   3.082   9.075
21369WAT      O64348   4.236   9.181   8.536
21369WAT     H164349   4.229   9.093   8.584
21369WAT     H264350   4.176   9.248   8.578
21370WAT      O64351   4.846   0.979   8.619
21370WAT     H164352   4.878   1.073   8.607
21370WAT     H264353   4.854   0.953   8.715
21371WAT      O64354   1.695   7.956   0.506
21371WAT     H164355   1.632   8.027   0.475
21371WAT     H264356   1.779   7.960   0.452
21372WAT      O64357   0.107   9.006   5.665
21372WAT     H164358   0.082   9.086   5.609
21372WAT     H264359   0.104   8.924   5.609
21373WAT      O64360   4.598   9.442   2.912
21373WAT     H164361   4.526   9.439   2.843
21373WAT     H264362   4.568   9.394   2.994
21374WAT      O64363   3.539   4.985   8.447
21374WAT     H164364   3.442   4.979   8.470
21374WAT     H264365   3.576   4.892   8.437
21375WAT      O64366   6.104   0.687   3.957
21375WAT     H164367   6.081   0.592   3.939
21375WAT     H264368   6.069   0.745   3.883
21376WAT      O64369   8.702   2.722   8.115
21376WAT     H164370   8.696   2.645   8.178
21376WAT     H264371   8.784   2.776   8.136
21377WAT      O64372   4.559   5.537   9.797
21377WAT     H164373   4.578   5.442   9.771
21377WAT     H264374   4.640   5.593   9.778
21378WAT      O64375   8.519   4.839   2.925
21378WAT     H164376   8.492   4.836   2.829
21378WAT     H264377   8.612   4.803   2.934
21379WAT      O64378   3.093   4.583   3.639
21379WAT     H164379   3.059   4.649   3.706
21379WAT     H264380   3.037   4.500   3.642
21380WAT      O64381   0.610   0.684   2.414
21380WAT     H164382   0.544   0.751   2.381
21380WAT     H264383   0.635   0.623   2.339
21381WAT      O64384   5.448   8.591   7.122
21381WAT     H164385   5.367   8.646   7.141
21381WAT     H264386   5.435   8.541   7.036
21382WAT      O64387   4.951   0.348   7.133
21382WAT     H164388   4.962   0.249   7.149
21382WAT     H264389   4.855   0.368   7.117
21383WAT      O64390   6.703   0.367   0.917
21383WAT     H164391   6.791   0.410   0.897
21383WAT     H264392   6.682   0.299   0.847
21384WAT      O64393   0.618   7.189   0.324
21384WAT     H164394   0.564   7.222   0.402
21384WAT     H264395   0.571   7.212   0.239
21385WAT      O64396   7.565   3.769   9.675
21385WAT     H164397   7.468   3.761   9.649
21385WAT     H264398   7.579   3.731   9.766
21386WAT      O64399   4.187   1.258   2.682
21386WAT     H164400   4.270   1.251   2.739
21386WAT     H264401   4.128   1.180   2.701
21387WAT      O64402   6.963   2.968   9.107
21387WAT     H164403   6.910   2.972   9.191
21387WAT     H264404   6.910   3.008   9.032
21388WAT      O64405   5.093   4.642   3.123
21388WAT     H164406   5.109   4.566   3.059
21388WAT     H264407   5.170   4.705   3.120
21389WAT      O64408   5.684   1.583   2.383
21389WAT     H164409   5.638   1.514   2.326
21389WAT     H264410   5.735   1.536   2.455
21390WAT      O64411   7.553   3.032   7.454
21390WAT     H164412   7.511   2.972   7.522
21390WAT     H264413   7.523   3.004   7.362
21391WAT      O64414   9.765   5.004   9.170
21391WAT     H164415   9.778   5.101   9.148
21391WAT     H264416   9.692   4.966   9.112
21392WAT      O64417   3.427   7.106   2.753
21392WAT     H164418   3.423   7.176   2.825
21392WAT     H264419   3.463   7.147   2.669
21393WAT      O64420   7.790   8.993   5.571
21393WAT     H164421   7.848   9.073   5.555
21393WAT     H264422   7.750   8.963   5.484
21394WAT      O64423   7.161   6.742   5.502
21394WAT     H164424   7.188   6.788   5.587
21394WAT     H264425   7.197   6.649   5.502
21395WAT      O64426   6.926   4.291   4.411
21395WAT     H164427   6.935   4.236   4.328
21395WAT     H264428   6.914   4.387   4.386
21396WAT      O64429   9.147   0.472   3.161
21396WAT     H164430   9.049   0.457   3.145
21396WAT     H264431   9.171   0.437   3.252
21397WAT      O64432   3.691   4.552   1.601
21397WAT     H164433   3.728   4.579   1.512
21397WAT     H264434   3.647   4.631   1.644
21398WAT      O64435   6.445   7.556   8.276
21398WAT     H164436   6.456   7.609   8.360
21398WAT     H264437   6.436   7.618   8.198
21399WAT      O64438   9.072   8.165   7.035
21399WAT     H164439   9.097   8.221   6.957
21399WAT     H264440   9.074   8.220   7.119
21400WAT      O64441   7.692   5.079   9.860
21400WAT     H164442   7.776   5.054   9.811
21400WAT     H264443   7.679   5.016   9.936
21401WAT      O64444   9.302   2.688   9.275
21401WAT     H164445   9.250   2.659   9.355
21401WAT     H264446   9.246   2.679   9.193
21402WAT      O64447   4.753   7.652   8.571
21402WAT     H164448   4.714   7.564   8.595
21402WAT     H264449   4.851   7.641   8.554
21403WAT      O64450   2.610   0.338   4.429
21403WAT     H164451   2.526   0.392   4.425
21403WAT     H264452   2.670   0.364   4.354
21404WAT      O64453   6.706   2.094   0.529
21404WAT     H164454   6.703   2.017   0.592
21404WAT     H264455   6.790   2.090   0.475
21405WAT      O64456   3.556   0.066   1.709
21405WAT     H164457   3.644   0.037   1.670
21405WAT     H264458   3.552   0.038   1.805
21406WAT      O64459   8.782   8.101   7.874
21406WAT     H164460   8.857   8.164   7.892
21406WAT     H264461   8.745   8.120   7.783
21407WAT      O64462   4.186   7.482   6.430
21407WAT     H164463   4.121   7.476   6.354
21407WAT     H264464   4.225   7.392   6.448
21408WAT      O64465   0.459   4.103   3.257
21408WAT     H164466   0.455   4.190   3.208
21408WAT     H264467   0.379   4.095   3.318
21409WAT      O64468   0.463   8.534   3.647
21409WAT     H164469   0.407   8.464   3.603
21409WAT     H264470   0.450   8.531   3.746
21410WAT      O64471   8.537   1.258   5.190
21410WAT     H164472   8.605   1.187   5.170
21410WAT     H264473   8.576   1.348   5.171
21411WAT      O64474   0.572   2.613   1.821
21411WAT     H164475   0.658   2.660   1.844
21411WAT     H264476   0.569   2.524   1.867
21412WAT      O64477   4.050   3.651   6.300
21412WAT     H164478   3.981   3.723   6.292
21412WAT     H264479   4.048   3.593   6.219
21413WAT      O64480   1.267   1.501   3.919
21413WAT     H164481   1.291   1.548   4.004
21413WAT     H264482   1.171   1.517   3.898
21414WAT      O64483   9.773   2.234   8.911
21414WAT     H164484   9.695   2.287   8.942
21414WAT     H264485   9.857   2.286   8.925
21415WAT      O64486   7.439   5.913   7.817
21415WAT     H164487   7.516   5.850   7.830
21415WAT     H264488   7.353   5.861   7.821
21416WAT      O64489   7.015   3.512   0.984
21416WAT     H164490   7.089   3.447   0.967
21416WAT     H264491   6.936   3.489   0.928
21417WAT      O64492   5.040   6.177   7.426
21417WAT     H164493   5.066   6.270   7.400
21417WAT     H264494   4.948   6.157   7.391
21418WAT      O64495   0.516   6.997   7.482
21418WAT     H164496   0.470   6.996   7.571
21418WAT     H264497   0.562   6.909   7.467
21419WAT      O64498   1.105   0.382   3.437
21419WAT     H164499   1.181   0.319   3.419
21419WAT     H264500   1.062   0.409   3.351
21420WAT      O64501   2.707   4.063   1.912
21420WAT     H164502   2.733   3.967   1.908
21420WAT     H264503   2.775   4.118   1.864
21421WAT      O64504   0.503   1.437   6.955
21421WAT     H164505   0.533   1.518   7.005
21421WAT     H264506   0.408   1.417   6.979
21422WAT      O64507   3.494   2.666   2.405
21422WAT     H164508   3.572   2.694   2.349
21422WAT     H264509   3.431   2.742   2.416
21423WAT      O64510   1.087   8.478   1.648
21423WAT     H164511   1.113   8.531   1.729
21423WAT     H264512   1.163   8.420   1.619
21424WAT      O64513   6.237   4.335   6.190
21424WAT     H164514   6.259   4.391   6.110
21424WAT     H264515   6.315   4.278   6.215
21425WAT      O64516   3.086   8.699   7.520
21425WAT     H164517   3.150   8.728   7.449
21425WAT     H264518   3.108   8.745   7.606
21426WAT      O64519   6.164   8.892   1.995
21426WAT     H164520   6.191   8.870   1.901
21426WAT     H264521   6.115   8.980   1.996
21427WAT      O64522   3.494   5.776   1.202
21427WAT     H164523   3.549   5.694   1.187
21427WAT     H264524   3.546   5.841   1.257
21428WAT      O64525   3.103   2.109   7.831
21428WAT     H164526   3.040   2.084   7.757
21428WAT     H264527   3.089   2.047   7.908
21429WAT      O64528   6.839   2.092   2.270
21429WAT     H164529   6.765   2.026   2.284
21429WAT     H264530   6.825   2.171   2.329
21430WAT      O64531   6.696   4.527   8.190
21430WAT     H164532   6.695   4.607   8.250
21430WAT     H264533   6.644   4.453   8.231
21431WAT      O64534   4.994   2.217   8.860
21431WAT     H164535   5.092   2.212   8.879
21431WAT     H264536   4.942   2.202   8.944
21432WAT      O64537   8.447   2.473   5.149
21432WAT     H164538   8.491   2.524   5.076
21432WAT     H264539   8.350   2.494   5.152
21433WAT      O64540   8.969   7.026   3.798
21433WAT     H164541   9.035   7.064   3.733
21433WAT     H264542   8.893   7.090   3.811
21434WAT      O64543   4.037   9.234   3.856
21434WAT     H164544   4.085   9.156   3.815
21434WAT     H264545   3.957   9.258   3.800
21435WAT      O64546   0.871   3.346   3.408
21435WAT     H164547   0.789   3.341   3.350
21435WAT     H264548   0.929   3.421   3.376
21436WAT      O64549   0.527   9.839   6.826
21436WAT     H164550   0.501   9.877   6.737
21436WAT     H264551   0.450   9.788   6.864
21437WAT      O64552   4.416   3.324   9.851
21437WAT     H164553   4.404   3.231   9.814
21437WAT     H264554   4.494   3.324   9.914
21438WAT      O64555   0.838   2.702   7.607
21438WAT     H164556   0.851   2.697   7.508
21438WAT     H264557   0.751   2.661   7.632
21439WAT      O64558   8.109   3.613   1.950
21439WAT     H164559   8.142   3.519   1.943
21439WAT     H264560   8.151   3.669   1.879
21440WAT      O64561   0.583   6.633   7.000
21440WAT     H164562   0.625   6.594   6.918
21440WAT     H264563   0.488   6.603   7.006
21441WAT      O64564   9.625   4.497   1.489
21441WAT     H164565   9.714   4.481   1.532
21441WAT     H264566   9.636   4.567   1.417
21442WAT      O64567   6.210   0.098   3.236
21442WAT     H164568   6.131   0.075   3.293
21442WAT     H264569   6.225   0.197   3.239
21443WAT      O64570   6.795   5.346   0.350
21443WAT     H164571   6.732   5.424   0.346
21443WAT     H264572   6.882   5.373   0.310
21444WAT      O64573   2.980   1.047   7.283
21444WAT     H164574   3.013   1.100   7.205
21444WAT     H264575   2.881   1.034   7.275
21445WAT      O64576   8.858   8.933   1.663
21445WAT     H164577   8.780   8.871   1.650
21445WAT     H264578   8.862   8.962   1.758
21446WAT      O64579   4.103   2.317   0.232
21446WAT     H164580   4.037   2.251   0.197
21446WAT     H264581   4.062   2.409   0.232
21447WAT      O64582   2.859   8.597   4.856
21447WAT     H164583   2.906   8.515   4.822
21447WAT     H264584   2.791   8.627   4.789
21448WAT      O64585   1.228   0.706   0.166
21448WAT     H164586   1.239   0.608   0.148
21448WAT     H264587   1.307   0.739   0.218
21449WAT      O64588   5.628   2.939   7.912
21449WAT     H164589   5.645   3.032   7.944
21449WAT     H264590   5.581   2.942   7.824
21450WAT      O64591   6.634   4.165   5.629
21450WAT     H164592   6.582   4.231   5.684
21450WAT     H264593   6.571   4.104   5.582
21451WAT      O64594   1.858   9.728   6.838
21451WAT     H164595   1.840   9.630   6.842
21451WAT     H264596   1.952   9.744   6.810
21452WAT      O64597   5.703   4.839   3.018
21452WAT     H164598   5.619   4.881   2.984
21452WAT     H264599   5.687   4.742   3.037
21453WAT      O64600   7.225   6.288   0.349
21453WAT     H164601   7.320   6.276   0.379
21453WAT     H264602   7.219   6.270   0.250
21454WAT      O64603   3.832   2.157   7.620
21454WAT     H164604   3.855   2.064   7.648
21454WAT     H264605   3.869   2.174   7.529
21455WAT      O64606   2.944   2.548   3.349
21455WAT     H164607   2.992   2.589   3.427
21455WAT     H264608   2.847   2.537   3.373
21456WAT      O64609   6.494   8.040   2.651
21456WAT     H164610   6.456   7.969   2.592
21456WAT     H264611   6.486   8.013   2.747
21457WAT      O64612   7.135   3.639   3.556
21457WAT     H164613   7.037   3.651   3.573
21457WAT     H264614   7.151   3.555   3.506
21458WAT      O64615   3.321   9.198   0.995
21458WAT     H164616   3.230   9.203   0.953
21458WAT     H264617   3.346   9.289   1.030
21459WAT      O64618   3.765   8.064   2.464
21459WAT     H164619   3.863   8.081   2.475
21459WAT     H264620   3.722   8.059   2.554
21460WAT      O64621   6.837   6.762   6.377
21460WAT     H164622   6.899   6.835   6.347
21460WAT     H264623   6.861   6.735   6.470
21461WAT      O64624   6.192   0.478   0.775
21461WAT     H164625   6.100   0.502   0.742
21461WAT     H264626   6.198   0.495   0.873
21462WAT      O64627   9.506   1.068   1.111
21462WAT     H164628   9.572   0.995   1.094
21462WAT     H264629   9.414   1.029   1.116
21463WAT      O64630   0.163   0.796   3.483
21463WAT     H164631   0.109   0.878   3.504
21463WAT     H264632   0.111   0.736   3.423
21464WAT      O64633   5.818   5.260   5.146
21464WAT     H164634   5.905   5.214   5.130
21464WAT     H264635   5.834   5.351   5.182
21465WAT      O64636   3.000   4.446   8.506
21465WAT     H164637   2.926   4.442   8.573
21465WAT     H264638   2.969   4.496   8.425
21466WAT      O64639   3.194   2.659   8.507
21466WAT     H164640   3.217   2.664   8.604
21466WAT     H264641   3.169   2.750   8.474
21467WAT      O64642   9.869   4.013   2.887
21467WAT     H164643   9.890   4.001   2.984
21467WAT     H264644   9.811   3.938   2.857
21468WAT      O64645   0.934   7.637   6.023
21468WAT     H164646   0.950   7.570   5.951
21468WAT     H264647   0.920   7.727   5.982
21469WAT      O64648   8.506   5.166   5.381
21469WAT     H164649   8.434   5.101   5.406
21469WAT     H264650   8.490   5.253   5.428
21470WAT      O64651   4.625   5.044   2.169
21470WAT     H164652   4.623   5.034   2.268
21470WAT     H264653   4.539   5.013   2.130
21471WAT      O64654   9.274   6.304   6.461
21471WAT     H164655   9.302   6.271   6.551
21471WAT     H264656   9.348   6.286   6.396
21472WAT      O64657   9.400   7.012   8.482
21472WAT     H164658   9.350   6.967   8.556
21472WAT     H264659   9.492   6.973   8.475
21473WAT      O64660   4.228   0.501   0.794
21473WAT     H164661   4.147   0.532   0.844
21473WAT     H264662   4.254   0.570   0.726
21474WAT      O64663   1.390   0.050   5.065
21474WAT     H164664   1.373   0.120   4.996
21474WAT     H264665   1.432  -0.030   5.021
21475WAT      O64666   9.594   8.713   5.205
21475WAT     H164667   9.640   8.669   5.283
21475WAT     H264668   9.607   8.657   5.123
21476WAT      O64669   5.857   8.074   3.897
21476WAT     H164670   5.865   8.145   3.828
21476WAT     H264671   5.843   8.115   3.987
21477WAT      O64672   1.305   0.387   4.483
21477WAT     H164673   1.225   0.419   4.535
21477WAT     H264674   1.367   0.464   4.468
21478WAT      O64675   8.550   5.730   9.259
21478WAT     H164676   8.527   5.684   9.173
21478WAT     H264677   8.478   5.795   9.282
21479WAT      O64678   7.471   4.332   8.055
21479WAT     H164679   7.401   4.340   8.126
21479WAT     H264680   7.558   4.307   8.098
21480WAT      O64681   2.588   9.805   2.122
21480WAT     H164682   2.533   9.827   2.203
21480WAT     H264683   2.675   9.765   2.151
21481WAT      O64684   8.199   0.889   3.176
21481WAT     H164685   8.160   0.948   3.106
21481WAT     H264686   8.168   0.919   3.267
21482WAT      O64687   8.104   5.346   1.758
21482WAT     H164688   8.086   5.420   1.822
21482WAT     H264689   8.018   5.304   1.731
21483WAT      O64690   2.361   7.489   9.726
21483WAT     H164691   2.299   7.489   9.647
21483WAT     H264692   2.417   7.572   9.724
21484WAT      O64693   1.735   1.570   4.456
21484WAT     H164694   1.646   1.532   4.432
21484WAT     H264695   1.776   1.516   4.530
21485WAT      O64696   2.721   5.297   6.408
21485WAT     H164697   2.755   5.300   6.502
21485WAT     H264698   2.794   5.322   6.345
21486WAT      O64699   9.721   7.806   4.315
21486WAT     H164700   9.815   7.791   4.283
21486WAT     H264701   9.670   7.721   4.310
21487WAT      O64702   5.439   0.725   9.442
21487WAT     H164703   5.477   0.662   9.510
21487WAT     H264704   5.390   0.673   9.372
21488WAT      O64705   8.518   7.437   6.358
21488WAT     H164706   8.478   7.387   6.434
21488WAT     H264707   8.445   7.482   6.306
21489WAT      O64708   0.741   6.605   0.601
21489WAT     H164709   0.660   6.651   0.566
21489WAT     H264710   0.819   6.627   0.543
21490WAT      O64711   9.300   8.516   4.238
21490WAT     H164712   9.277   8.505   4.335
21490WAT     H264713   9.226   8.478   4.182
21491WAT      O64714   3.603   2.371   3.977
21491WAT     H164715   3.541   2.296   3.954
21491WAT     H264716   3.555   2.458   3.966
21492WAT      O64717   5.653   6.490   2.948
21492WAT     H164718   5.627   6.406   2.994
21492WAT     H264719   5.604   6.568   2.988
21493WAT      O64720   9.850   8.900   3.195
21493WAT     H164721   9.781   8.900   3.123
21493WAT     H264722   9.847   8.987   3.244
21494WAT      O64723   4.634   0.276   4.601
21494WAT     H164724   4.680   0.352   4.645
21494WAT     H264725   4.561   0.310   4.541
21495WAT      O64726   8.193   2.461   0.338
21495WAT     H164727   8.112   2.477   0.281
21495WAT     H264728   8.165   2.417   0.424
21496WAT      O64729   9.759   2.755   8.532
21496WAT     H164730   9.753   2.677   8.594
21496WAT     H264731   9.749   2.840   8.584
21497WAT      O64732   3.220   5.334   3.983
21497WAT     H164733   3.132   5.324   4.030
21497WAT     H264734   3.219   5.416   3.926
21498WAT      O64735   2.373   0.776   3.627
21498WAT     H164736   2.323   0.712   3.569
21498WAT     H264737   2.312   0.849   3.658
21499WAT      O64738   7.618   2.144   0.269
21499WAT     H164739   7.670   2.142   0.354
21499WAT     H264740   7.523   2.118   0.287
21500WAT      O64741   5.921   3.996   8.343
21500WAT     H164742   5.915   4.090   8.310
21500WAT     H264743   5.842   3.976   8.401
21501WAT      O64744   9.468   3.591   9.463
21501WAT     H164745   9.491   3.675   9.415
21501WAT     H264746   9.450   3.612   9.559
21502WAT      O64747   6.916   6.990   9.337
21502WAT     H164748   6.833   6.971   9.389
21502WAT     H264749   6.892   7.027   9.248
21503WAT      O64750   2.492   3.366   1.216
21503WAT     H164751   2.507   3.450   1.163
21503WAT     H264752   2.578   3.337   1.258
21504WAT      O64753   6.740   1.924   6.623
21504WAT     H164754   6.677   1.847   6.631
21504WAT     H264755   6.764   1.957   6.715
21505WAT      O64756   3.904   8.177   4.309
21505WAT     H164757   3.820   8.197   4.259
21505WAT     H264758   3.958   8.111   4.257
21506WAT      O64759   1.103   1.164   6.983
21506WAT     H164760   1.072   1.204   6.897
21506WAT     H264761   1.141   1.073   6.965
21507WAT      O64762   7.732   1.716   5.223
21507WAT     H164763   7.642   1.691   5.261
21507WAT     H264764   7.731   1.812   5.197
21508WAT      O64765   4.664   2.985   6.321
21508WAT     H164766   4.598   2.926   6.366
21508WAT     H264767   4.643   3.081   6.341
21509WAT      O64768   7.993   3.150   0.266
21509WAT     H164769   7.966   3.244   0.243
21509WAT     H264770   8.022   3.102   0.183
21510WAT      O64771   8.513   3.530   7.928
21510WAT     H164772   8.420   3.531   7.964
21510WAT     H264773   8.527   3.448   7.873
21511WAT      O64774   3.939   1.896   5.152
21511WAT     H164775   3.846   1.916   5.183
21511WAT     H264776   4.001   1.968   5.182
21512WAT      O64777   8.566   4.798   7.441
21512WAT     H164778   8.493   4.812   7.374
21512WAT     H264779   8.526   4.769   7.528
21513WAT      O64780   8.914   9.580   5.004
21513WAT     H164781   8.946   9.509   4.942
21513WAT     H264782   8.879   9.657   4.951
21514WAT      O64783   1.903   4.997   6.208
21514WAT     H164784   1.904   5.010   6.109
21514WAT     H264785   1.820   4.947   6.234
21515WAT      O64786   2.534   8.679   3.927
21515WAT     H164787   2.564   8.735   4.004
21515WAT     H264788   2.547   8.730   3.842
21516WAT      O64789   6.716   1.000   9.207
21516WAT     H164790   6.641   0.988   9.272
21516WAT     H264791   6.797   1.032   9.255
21517WAT      O64792   5.008   8.529   0.048
21517WAT     H164793   5.094   8.518   0.096
21517WAT     H264794   5.023   8.521  -0.051
21518WAT      O64795   6.139   9.650   8.782
21518WAT     H164796   6.175   9.621   8.694
21518WAT     H264797   6.195   9.612   8.855
21519WAT      O64798   7.397   4.126   5.970
21519WAT     H164799   7.448   4.040   5.962
21519WAT     H264800   7.300   4.108   5.952
21520WAT      O64801   1.060   4.853   5.364
21520WAT     H164802   1.090   4.789   5.293
21520WAT     H264803   1.060   4.946   5.327
21521WAT      O64804   2.582   7.938   7.827
21521WAT     H164805   2.502   7.938   7.887
21521WAT     H264806   2.635   7.854   7.842
21522WAT      O64807   0.810   2.580   8.302
21522WAT     H164808   0.804   2.650   8.373
21522WAT     H264809   0.802   2.624   8.212
21523WAT      O64810   4.775   3.698   6.163
21523WAT     H164811   4.762   3.657   6.253
21523WAT     H264812   4.837   3.640   6.109
21524WAT      O64813   2.361   3.040   2.179
21524WAT     H164814   2.417   3.122   2.170
21524WAT     H264815   2.343   3.022   2.276
21525WAT      O64816   8.045   1.429   4.220
21525WAT     H164817   7.947   1.426   4.203
21525WAT     H264818   8.067   1.507   4.279
21526WAT      O64819   9.258   1.638   8.717
21526WAT     H164820   9.251   1.575   8.794
21526WAT     H264821   9.349   1.631   8.677
21527WAT      O64822   0.070   9.602   8.132
21527WAT     H164823   0.127   9.520   8.132
21527WAT     H264824   0.096   9.661   8.057
21528WAT      O64825   0.362   6.982   7.704
21528WAT     H164826   0.270   7.016   7.727
21528WAT     H264827   0.430   7.037   7.753
21529WAT      O64828   3.271   1.190   0.900
21529WAT     H164829   3.210   1.186   0.821
21529WAT     H264830   3.222   1.160   0.982
21530WAT      O64831   4.516   2.179   8.133
21530WAT     H164832   4.511   2.261   8.190
21530WAT     H264833   4.601   2.130   8.152
21531WAT      O64834   5.457   4.685   0.294
21531WAT     H164835   5.413   4.771   0.318
21531WAT     H264836   5.394   4.609   0.312
21532WAT      O64837   7.473   0.196   8.638
21532WAT     H164838   7.469   0.238   8.729
21532WAT     H264839   7.435   0.103   8.642
21533WAT      O64840   2.585   2.383   8.048
21533WAT     H164841   2.559   2.480   8.053
21533WAT     H264842   2.587   2.344   8.140
21534WAT      O64843   5.701   6.567   9.072
21534WAT     H164844   5.626   6.506   9.094
21534WAT     H264845   5.788   6.520   9.086
21535WAT      O64846   1.709   6.926   3.550
21535WAT     H164847   1.641   6.938   3.477
21535WAT     H264848   1.740   6.831   3.552
21536WAT      O64849   8.660   1.720   2.028
21536WAT     H164850   8.598   1.707   2.106
21536WAT     H264851   8.620   1.786   1.965
21537WAT      O64852   4.578   0.122   5.132
21537WAT     H164853   4.647   0.094   5.066
21537WAT     H264854   4.531   0.204   5.099
21538WAT      O64855   5.028   1.958   8.673
21538WAT     H164856   4.965   2.027   8.708
21538WAT     H264857   5.060   1.901   8.749
21539WAT      O64858   7.774   6.710   2.044
21539WAT     H164859   7.767   6.697   1.945
21539WAT     H264860   7.711   6.783   2.072
21540WAT      O64861   6.287   7.205   2.722
21540WAT     H164862   6.253   7.128   2.668
21540WAT     H264863   6.336   7.171   2.802
21541WAT      O64864   9.653   5.268   3.095
21541WAT     H164865   9.699   5.182   3.118
21541WAT     H264866   9.561   5.248   3.062
21542WAT      O64867   3.472   7.659   0.401
21542WAT     H164868   3.486   7.595   0.325
21542WAT     H264869   3.395   7.718   0.380
21543WAT      O64870   9.804   2.301   0.526
21543WAT     H164871   9.899   2.269   0.521
21543WAT     H264872   9.780   2.321   0.621
21544WAT      O64873   7.153   4.048   5.945
21544WAT     H164874   7.064   4.076   5.907
21544WAT     H264875   7.148   4.050   6.045
21545WAT      O64876   8.484   9.034   8.420
21545WAT     H164877   8.388   9.008   8.423
21545WAT     H264878   8.535   8.966   8.367
21546WAT      O64879   6.454   6.284   4.399
21546WAT     H164880   6.444   6.362   4.337
21546WAT     H264881   6.367   6.264   4.443
21547WAT      O64882   5.033   7.903   4.141
21547WAT     H164883   5.108   7.876   4.201
21547WAT     H264884   4.950   7.916   4.195
21548WAT      O64885   7.365   0.701   9.024
21548WAT     H164886   7.289   0.749   8.978
21548WAT     H264887   7.418   0.767   9.077
21549WAT      O64888   9.221   9.263   2.881
21549WAT     H164889   9.196   9.330   2.811
21549WAT     H264890   9.273   9.309   2.953
21550WAT      O64891   1.365   5.952   7.262
21550WAT     H164892   1.289   5.929   7.323
21550WAT     H264893   1.363   6.050   7.240
21551WAT      O64894   4.473   9.527   6.799
21551WAT     H164895   4.451   9.586   6.722
21551WAT     H264896   4.572   9.509   6.801
21552WAT      O64897   8.309   0.408   7.739
21552WAT     H164898   8.332   0.474   7.668
21552WAT     H264899   8.331   0.446   7.829
21553WAT      O64900   6.685   2.567   2.831
21553WAT     H164901   6.585   2.573   2.842
21553WAT     H264902   6.716   2.638   2.768
21554WAT      O64903   0.513   6.765   3.448
21554WAT     H164904   0.422   6.757   3.408
21554WAT     H264905   0.564   6.838   3.402
21555WAT      O64906   3.790   4.663   3.198
21555WAT     H164907   3.856   4.701   3.134
21555WAT     H264908   3.719   4.731   3.217
21556WAT      O64909   6.403   2.893   2.160
21556WAT     H164910   6.340   2.968   2.182
21556WAT     H264911   6.479   2.893   2.225
21557WAT      O64912   5.740   1.234   8.213
21557WAT     H164913   5.728   1.170   8.289
21557WAT     H264914   5.721   1.327   8.244
21558WAT      O64915   0.723   5.868   3.672
21558WAT     H164916   0.636   5.917   3.680
21558WAT     H264917   0.705   5.770   3.663
21559WAT      O64918   0.403   4.797   9.400
21559WAT     H164919   0.488   4.845   9.423
21559WAT     H264920   0.407   4.766   9.306
21560WAT      O64921   4.516   8.015   1.051
21560WAT     H164922   4.499   7.920   1.078
21560WAT     H264923   4.457   8.039   0.974
21561WAT      O64924   6.357   8.085   3.948
21561WAT     H164925   6.264   8.069   3.981
21561WAT     H264926   6.388   8.175   3.979
21562WAT      O64927   0.956   3.694   1.405
21562WAT     H164928   1.026   3.630   1.374
21562WAT     H264929   0.866   3.656   1.386
21563WAT      O64930   5.255   8.431   7.973
21563WAT     H164931   5.195   8.410   7.896
21563WAT     H264932   5.349   8.443   7.940
21564WAT      O64933   6.171   9.738   5.006
21564WAT     H164934   6.159   9.675   5.082
21564WAT     H264935   6.254   9.714   4.955
21565WAT      O64936   5.921   1.638   4.994
21565WAT     H164937   5.918   1.736   4.976
21565WAT     H264938   5.983   1.594   4.928
21566WAT      O64939   8.620   2.744   2.559
21566WAT     H164940   8.552   2.742   2.485
21566WAT     H264941   8.643   2.651   2.586
21567WAT      O64942   0.754   1.619   0.437
21567WAT     H164943   0.709   1.565   0.508
21567WAT     H264944   0.853   1.613   0.449
21568WAT      O64945   1.094   6.091   4.033
21568WAT     H164946   1.044   6.038   4.100
21568WAT     H264947   1.166   6.036   3.993
21569WAT      O64948   0.014   5.557   8.402
21569WAT     H164949  -0.050   5.589   8.332
21569WAT     H264950  -0.001   5.608   8.487
21570WAT      O64951   7.746   4.445   7.479
21570WAT     H164952   7.833   4.491   7.496
21570WAT     H264953   7.762   4.346   7.477
21571WAT      O64954   3.157   0.422   7.561
21571WAT     H164955   3.064   0.410   7.526
21571WAT     H264956   3.193   0.510   7.530
21572WAT      O64957   1.122   5.726   4.670
21572WAT     H164958   1.069   5.802   4.632
21572WAT     H264959   1.105   5.644   4.615
21573WAT      O64960   8.513   9.815   6.357
21573WAT     H164961   8.429   9.870   6.357
21573WAT     H264962   8.489   9.719   6.339
21574WAT      O64963   6.873   2.317   8.168
21574WAT     H164964   6.835   2.225   8.169
21574WAT     H264965   6.897   2.342   8.074
21575WAT      O64966   3.296   2.935   2.129
21575WAT     H164967   3.296   3.005   2.201
21575WAT     H264968   3.306   2.845   2.170
21576WAT      O64969   2.952   4.329   9.455
21576WAT     H164970   2.995   4.364   9.371
21576WAT     H264971   2.951   4.401   9.524
21577WAT      O64972   8.782   5.028   6.280
21577WAT     H164973   8.797   5.005   6.376
21577WAT     H264974   8.861   5.076   6.244
21578WAT      O64975   6.359   6.271   9.382
21578WAT     H164976   6.441   6.276   9.439
21578WAT     H264977   6.342   6.175   9.357
21579WAT      O64978   2.428   1.900   7.702
21579WAT     H164979   2.398   1.880   7.609
21579WAT     H264980   2.358   1.954   7.748
21580WAT      O64981   4.377   0.471   1.680
21580WAT     H164982   4.352   0.537   1.750
21580WAT     H264983   4.440   0.403   1.718
21581WAT      O64984   1.071   4.608   3.612
21581WAT     H164985   0.994   4.671   3.619
21581WAT     H264986   1.065   4.540   3.685
21582WAT      O64987   9.880   8.865   4.892
21582WAT     H164988   9.899   8.806   4.971
21582WAT     H264989   9.781   8.869   4.877
21583WAT      O64990   9.395   3.561   2.936
21583WAT     H164991   9.446   3.581   3.020
21583WAT     H264992   9.397   3.642   2.877
21584WAT      O64993   0.542   1.976   8.796
21584WAT     H164994   0.462   1.966   8.736
21584WAT     H264995   0.513   1.967   8.891
21585WAT      O64996   1.028   3.055   0.542
21585WAT     H164997   0.969   3.133   0.564
21585WAT     H264998   1.124   3.085   0.542
21586WAT      O64999   4.936   2.700   0.601
21586WAT     H165000   5.014   2.760   0.579
21586WAT     H265001   4.899   2.726   0.691
21587WAT      O65002   8.581   2.444   1.832
21587WAT     H165003   8.544   2.435   1.925
21587WAT     H265004   8.645   2.369   1.815
21588WAT      O65005   4.906   1.044   2.329
21588WAT     H165006   4.980   0.980   2.344
21588WAT     H265007   4.824   1.013   2.378
21589WAT      O65008   7.042   3.970   2.391
21589WAT     H165009   7.105   4.025   2.445
21589WAT     H265010   6.980   3.920   2.452
21590WAT      O65011   1.926   7.308   3.277
21590WAT     H165012   1.864   7.376   3.238
21590WAT     H265013   1.930   7.228   3.216
21591WAT      O65014   7.551   5.556   4.957
21591WAT     H165015   7.600   5.490   4.901
21591WAT     H265016   7.452   5.538   4.951
21592WAT      O65017   3.085   7.224   7.075
21592WAT     H165018   3.159   7.278   7.036
21592WAT     H265019   2.998   7.273   7.064
21593WAT      O65020   7.301   0.703   1.241
21593WAT     H165021   7.243   0.770   1.288
21593WAT     H265022   7.244   0.630   1.203
21594WAT      O65023   4.880   6.441   0.761
21594WAT     H165024   4.813   6.367   0.774
21594WAT     H265025   4.867   6.510   0.832
21595WAT      O65026   9.216   6.811   6.866
21595WAT     H165027   9.197   6.885   6.931
21595WAT     H265028   9.295   6.837   6.809
21596WAT      O65029   8.948   6.674   0.416
21596WAT     H165030   8.940   6.625   0.329
21596WAT     H265031   9.045   6.687   0.438
21597WAT      O65032   6.994   6.443   7.590
21597WAT     H165033   6.903   6.436   7.550
21597WAT     H265034   7.060   6.467   7.519
21598WAT      O65035   0.333   6.193   1.109
21598WAT     H165036   0.318   6.243   1.195
21598WAT     H265037   0.425   6.154   1.109
21599WAT      O65038   3.933   1.116   0.995
21599WAT     H165039   4.027   1.088   1.013
21599WAT     H265040   3.930   1.175   0.915
21600WAT      O65041   4.755   2.041   7.747
21600WAT     H165042   4.679   2.053   7.811
21600WAT     H265043   4.719   2.023   7.655
21601WAT      O65044   0.292   5.569   2.885
21601WAT     H165045   0.254   5.510   2.814
21601WAT     H265046   0.228   5.573   2.962
21602WAT      O65047   7.635   7.340   2.247
21602WAT     H165048   7.618   7.247   2.279
21602WAT     H265049   7.700   7.385   2.308
21603WAT      O65050   1.149   2.178   5.339
21603WAT     H165051   1.066   2.199   5.287
21603WAT     H265052   1.188   2.262   5.375
21604WAT      O65053   1.331   8.444   3.370
21604WAT     H165054   1.278   8.518   3.411
21604WAT     H265055   1.317   8.360   3.423
21605WAT      O65056   7.654   1.773   7.300
21605WAT     H165057   7.565   1.731   7.282
21605WAT     H265058   7.723   1.702   7.311
21606WAT      O65059   2.694   9.568   8.319
21606WAT     H165060   2.622   9.570   8.249
21606WAT     H265061   2.783   9.570   8.274
21607WAT      O65062   9.501   3.927   2.930
21607WAT     H165063   9.533   4.022   2.925
21607WAT     H265064   9.452   3.913   3.017
21608WAT      O65065   0.590   7.261   3.999
21608WAT     H165066   0.676   7.260   4.051
21608WAT     H265067   0.515   7.230   4.058
21609WAT      O65068   2.777   2.312   6.775
21609WAT     H165069   2.700   2.375   6.774
21609WAT     H265070   2.854   2.352   6.727
21610WAT      O65071   6.089   4.763   3.204
21610WAT     H165072   6.130   4.811   3.126
21610WAT     H265073   6.008   4.814   3.235
21611WAT      O65074   7.987   9.280   5.221
21611WAT     H165075   7.933   9.197   5.234
21611WAT     H265076   8.052   9.290   5.296
21612WAT      O65077   2.631   8.066   5.493
21612WAT     H165078   2.608   8.043   5.587
21612WAT     H265079   2.559   8.123   5.454
21613WAT      O65080   6.055   1.373   0.450
21613WAT     H165081   6.025   1.368   0.355
21613WAT     H265082   6.149   1.339   0.457
21614WAT      O65083   6.482   3.797   9.292
21614WAT     H165084   6.403   3.850   9.261
21614WAT     H265085   6.536   3.768   9.213
21615WAT      O65086   3.758   5.192   3.890
21615WAT     H165087   3.706   5.107   3.901
21615WAT     H265088   3.706   5.268   3.928
21616WAT      O65089   6.994   6.989   1.701
21616WAT     H165090   6.903   6.950   1.714
21616WAT     H265091   6.986   7.084   1.671
21617WAT      O65092   5.778   6.496   2.487
21617WAT     H165093   5.770   6.432   2.563
21617WAT     H265094   5.871   6.532   2.484
21618WAT      O65095   1.136   6.800   6.730
21618WAT     H165096   1.185   6.880   6.763
21618WAT     H265097   1.127   6.803   6.631
21619WAT      O65098   8.516   4.045   6.064
21619WAT     H165099   8.511   3.992   6.148
21619WAT     H265100   8.428   4.090   6.048
21620WAT      O65101   5.163   2.177   9.223
21620WAT     H165102   5.215   2.156   9.306
21620WAT     H265103   5.065   2.175   9.243
21621WAT      O65104   9.101   1.480   3.061
21621WAT     H165105   9.006   1.449   3.054
21621WAT     H265106   9.162   1.401   3.050
21622WAT      O65107   3.866   4.828   2.721
21622WAT     H165108   3.904   4.909   2.675
21622WAT     H265109   3.937   4.759   2.731
21623WAT      O65110   2.348   4.305   1.942
21623WAT     H165111   2.375   4.214   1.911
21623WAT     H265112   2.416   4.339   2.007
21624WAT      O65113   4.835   5.031   3.211
21624WAT     H165114   4.828   5.058   3.307
21624WAT     H265115   4.785   4.946   3.196
21625WAT      O65116   6.672   9.054   7.754
21625WAT     H165117   6.616   9.061   7.836
21625WAT     H265118   6.662   8.963   7.714
21626WAT      O65119   0.965   2.335   8.276
21626WAT     H165120   0.997   2.300   8.187
21626WAT     H265121   0.910   2.417   8.261
21627WAT      O65122   1.227   3.623   1.799
21627WAT     H165123   1.162   3.683   1.752
21627WAT     H265124   1.262   3.555   1.735
21628WAT      O65125   5.666   0.605   4.768
21628WAT     H165126   5.692   0.535   4.702
21628WAT     H265127   5.683   0.696   4.728
21629WAT      O65128   7.833   6.541   5.627
21629WAT     H165129   7.870   6.535   5.534
21629WAT     H265130   7.734   6.524   5.625
21630WAT      O65131   7.443   0.480   7.421
21630WAT     H165132   7.452   0.561   7.364
21630WAT     H265133   7.517   0.479   7.488
21631WAT      O65134   2.752   0.299   1.673
21631WAT     H165135   2.751   0.222   1.609
21631WAT     H265136   2.767   0.265   1.765
21632WAT      O65137   9.121   6.415   6.067
21632WAT     H165138   9.152   6.340   6.125
21632WAT     H265139   9.021   6.416   6.064
21633WAT      O65140   2.177   5.231   0.109
21633WAT     H165141   2.239   5.164   0.150
21633WAT     H265142   2.210   5.255   0.018
21634WAT      O65143   5.181   4.106   5.633
21634WAT     H165144   5.082   4.099   5.637
21634WAT     H265145   5.216   4.041   5.565
21635WAT      O65146   0.409   8.442   2.233
21635WAT     H165147   0.508   8.435   2.221
21635WAT     H265148   0.384   8.412   2.325
21636WAT      O65149   6.922   4.545   4.074
21636WAT     H165150   6.834   4.497   4.077
21636WAT     H265151   6.978   4.517   4.151
21637WAT      O65152   6.031   6.171   2.873
21637WAT     H165153   6.035   6.114   2.955
21637WAT     H265154   5.944   6.156   2.826
21638WAT      O65155   5.934   5.141   3.187
21638WAT     H165156   5.895   5.224   3.227
21638WAT     H265157   5.882   5.062   3.218
21639WAT      O65158   6.515   5.439   4.329
21639WAT     H165159   6.425   5.418   4.291
21639WAT     H265160   6.562   5.505   4.270
21640WAT      O65161   8.311   7.908   3.533
21640WAT     H165162   8.272   7.961   3.457
21640WAT     H265163   8.402   7.876   3.508
21641WAT      O65164   8.086   6.516   1.746
21641WAT     H165165   8.138   6.487   1.666
21641WAT     H265166   8.137   6.587   1.795
21642WAT      O65167   2.486   9.639   1.056
21642WAT     H165168   2.552   9.706   1.024
21642WAT     H265169   2.398   9.684   1.071
21643WAT      O65170   6.472   6.686   7.799
21643WAT     H165171   6.557   6.714   7.755
21643WAT     H265172   6.471   6.586   7.811
21644WAT      O65173   8.842   2.085   8.748
21644WAT     H165174   8.867   2.181   8.737
21644WAT     H265175   8.916   2.028   8.711
21645WAT      O65176   7.484   3.574   1.802
21645WAT     H165177   7.403   3.562   1.859
21645WAT     H265178   7.510   3.487   1.761
21646WAT      O65179   3.359   3.770   2.429
21646WAT     H165180   3.351   3.857   2.478
21646WAT     H265181   3.296   3.769   2.351
21647WAT      O65182   9.182   5.046   5.989
21647WAT     H165183   9.110   4.985   6.022
21647WAT     H265184   9.177   5.052   5.889
21648WAT      O65185   3.793   1.797   0.944
21648WAT     H165186   3.733   1.836   0.874
21648WAT     H265187   3.844   1.870   0.989
21649WAT      O65188   7.397   1.800   0.830
21649WAT     H165189   7.341   1.820   0.910
21649WAT     H265190   7.480   1.752   0.859
21650WAT      O65191   7.922   9.106   6.130
21650WAT     H165192   7.841   9.101   6.189
21650WAT     H265193   7.900   9.073   6.039
21651WAT      O65194   7.017   3.256   8.054
21651WAT     H165195   7.095   3.199   8.027
21651WAT     H265196   6.979   3.301   7.973
21652WAT      O65197   8.770   0.056   1.271
21652WAT     H165198   8.730  -0.006   1.204
21652WAT     H265199   8.853   0.015   1.309
21653WAT      O65200   7.516   5.866   1.938
21653WAT     H165201   7.530   5.767   1.936
21653WAT     H265202   7.474   5.896   1.853
21654WAT      O65203   9.819   2.847   7.529
21654WAT     H165204   9.882   2.772   7.549
21654WAT     H265205   9.731   2.809   7.500
21655WAT      O65206   7.913   6.275   1.527
21655WAT     H165207   7.868   6.320   1.604
21655WAT     H265208   7.936   6.343   1.457
21656WAT      O65209   8.675   7.013   3.591
21656WAT     H165210   8.594   7.030   3.534
21656WAT     H265211   8.655   6.941   3.657
21657WAT      O65212   5.516   5.196   2.265
21657WAT     H165213   5.425   5.182   2.305
21657WAT     H265214   5.562   5.272   2.313
21658WAT      O65215   2.996   1.585   4.220
21658WAT     H165216   3.045   1.544   4.297
21658WAT     H265217   2.898   1.566   4.228
21659WAT      O65218   5.487   7.257   5.076
21659WAT     H165219   5.496   7.326   5.149
21659WAT     H265220   5.458   7.171   5.116
21660WAT      O65221   4.392   4.525   7.314
21660WAT     H165222   4.450   4.491   7.388
21660WAT     H265223   4.384   4.454   7.244
21661WAT      O65224   1.148   8.444   0.041
21661WAT     H165225   1.066   8.484   0.082
21661WAT     H265226   1.127   8.412  -0.051
21662WAT      O65227   4.202   1.207   0.509
21662WAT     H165228   4.286   1.152   0.502
21662WAT     H265229   4.183   1.250   0.421
21663WAT      O65230   8.262   9.737   8.647
21663WAT     H165231   8.251   9.784   8.734
21663WAT     H265232   8.309   9.651   8.661
21664WAT      O65233   7.901   9.083   5.871
21664WAT     H165234   7.863   9.169   5.837
21664WAT     H265235   7.842   9.008   5.841
21665WAT      O65236   1.207   2.800   6.435
21665WAT     H165237   1.284   2.782   6.498
21665WAT     H265238   1.175   2.893   6.448
21666WAT      O65239   9.405   2.070   3.922
21666WAT     H165240   9.363   1.981   3.907
21666WAT     H265241   9.393   2.097   4.018
21667WAT      O65242   4.500   8.854   4.186
21667WAT     H165243   4.444   8.772   4.197
21667WAT     H265244   4.596   8.830   4.194
21668WAT      O65245   9.516   2.594   6.491
21668WAT     H165246   9.530   2.625   6.586
21668WAT     H265247   9.471   2.666   6.439
21669WAT      O65248   7.063   2.473   0.868
21669WAT     H165249   7.019   2.383   0.869
21669WAT     H265250   6.997   2.543   0.897
21670WAT      O65251   8.348   7.082   5.697
21670WAT     H165252   8.352   7.066   5.796
21670WAT     H265253   8.291   7.162   5.678
21671WAT      O65254   1.123   2.597   8.957
21671WAT     H165255   1.058   2.656   8.908
21671WAT     H265256   1.198   2.572   8.895
21672WAT      O65257   2.509   6.689   0.876
21672WAT     H165258   2.549   6.630   0.947
21672WAT     H265259   2.573   6.695   0.799
21673WAT      O65260   7.902   1.282   5.987
21673WAT     H165261   7.944   1.313   6.072
21673WAT     H265262   7.931   1.341   5.911
21674WAT      O65263   2.753   6.107   4.253
21674WAT     H165264   2.749   6.063   4.343
21674WAT     H265265   2.687   6.181   4.250
21675WAT      O65266   2.622   9.234   6.269
21675WAT     H165267   2.573   9.319   6.248
21675WAT     H265268   2.583   9.194   6.352
21676WAT      O65269   8.362   2.268   8.495
21676WAT     H165270   8.284   2.244   8.553
21676WAT     H265271   8.402   2.354   8.525
21677WAT      O65272   3.843   9.669   7.553
21677WAT     H165273   3.811   9.680   7.647
21677WAT     H265274   3.933   9.710   7.543
21678WAT      O65275   0.176   5.203   9.222
21678WAT     H165276   0.207   5.290   9.184
21678WAT     H265277   0.082   5.185   9.191
21679WAT      O65278   1.126   0.755   2.869
21679WAT     H165279   1.096   0.790   2.958
21679WAT     H265280   1.057   0.690   2.835
21680WAT      O65281   2.249   0.598   7.843
21680WAT     H165282   2.272   0.667   7.912
21680WAT     H265283   2.186   0.638   7.776
21681WAT      O65284   2.332   1.166   8.205
21681WAT     H165285   2.283   1.229   8.144
21681WAT     H265286   2.393   1.218   8.264
21682WAT      O65287   8.708   5.012   7.376
21682WAT     H165288   8.654   4.928   7.379
21682WAT     H265289   8.776   5.012   7.449
21683WAT      O65290   3.828   1.672   9.407
21683WAT     H165291   3.867   1.724   9.482
21683WAT     H265292   3.891   1.671   9.330
21684WAT      O65293   3.694   8.822   1.837
21684WAT     H165294   3.663   8.734   1.800
21684WAT     H265295   3.617   8.885   1.842
21685WAT      O65296   1.829   8.273   6.719
21685WAT     H165297   1.878   8.349   6.762
21685WAT     H265298   1.839   8.279   6.620
21686WAT      O65299   6.627   7.268   8.101
21686WAT     H165300   6.676   7.198   8.048
21686WAT     H265301   6.631   7.245   8.198
21687WAT      O65302   7.422   2.787   1.741
21687WAT     H165303   7.460   2.735   1.665
21687WAT     H265304   7.496   2.832   1.792
21688WAT      O65305   4.065   3.015   9.412
21688WAT     H165306   4.068   3.025   9.512
21688WAT     H265307   3.974   2.983   9.385
21689WAT      O65308   6.250   2.697   1.719
21689WAT     H165309   6.281   2.782   1.761
21689WAT     H265310   6.289   2.619   1.768
21690WAT      O65311   8.708   9.790   6.181
21690WAT     H165312   8.650   9.811   6.260
21690WAT     H265313   8.804   9.794   6.208
21691WAT      O65314   7.429   4.908   1.036
21691WAT     H165315   7.436   4.926   1.134
21691WAT     H265316   7.506   4.853   1.005
21692WAT      O65317   3.472   1.737   8.746
21692WAT     H165318   3.421   1.742   8.660
21692WAT     H265319   3.436   1.663   8.802
21693WAT      O65320   3.021   3.932   1.966
21693WAT     H165321   3.061   3.991   1.896
21693WAT     H265322   3.024   3.837   1.935
21694WAT      O65323   0.440   2.357   9.536
21694WAT     H165324   0.351   2.333   9.498
21694WAT     H265325   0.512   2.325   9.475
21695WAT      O65326   0.125   6.230   3.101
21695WAT     H165327   0.224   6.233   3.088
21695WAT     H265328   0.079   6.260   3.018
21696WAT      O65329   1.866   2.230   9.067
21696WAT     H165330   1.838   2.219   9.163
21696WAT     H265331   1.906   2.321   9.055
21697WAT      O65332   3.105   4.058   0.581
21697WAT     H165333   3.188   4.099   0.619
21697WAT     H265334   3.091   3.968   0.621
21698WAT      O65335   8.065   9.699   3.727
21698WAT     H165336   8.055   9.620   3.667
21698WAT     H265337   8.160   9.705   3.759
21699WAT      O65338   2.451   6.891   1.742
21699WAT     H165339   2.376   6.837   1.780
21699WAT     H265340   2.497   6.940   1.815
21700WAT      O65341   6.720   1.543   6.475
21700WAT     H165342   6.670   1.467   6.516
21700WAT     H265343   6.678   1.630   6.502
21701WAT      O65344   4.138   2.753   9.816
21701WAT     H165345   4.195   2.683   9.858
21701WAT     H265346   4.196   2.824   9.776
21702WAT      O65347   5.240   8.706   6.346
21702WAT     H165348   5.261   8.616   6.309
21702WAT     H265349   5.172   8.697   6.419
21703WAT      O65350   8.003   3.727   8.666
21703WAT     H165351   8.088   3.780   8.667
21703WAT     H265352   7.995   3.676   8.752
21704WAT      O65353   2.120   6.482   5.807
21704WAT     H165354   2.108   6.456   5.902
21704WAT     H265355   2.193   6.551   5.800
21705WAT      O65356   6.805   0.757   2.893
21705WAT     H165357   6.766   0.826   2.831
21705WAT     H265358   6.848   0.803   2.971
21706WAT      O65359   8.282   5.609   8.895
21706WAT     H165360   8.283   5.706   8.872
21706WAT     H265361   8.261   5.555   8.813
21707WAT      O65362   8.340   0.969   8.010
21707WAT     H165363   8.295   1.056   8.027
21707WAT     H265364   8.429   0.969   8.055
21708WAT      O65365   5.165   0.882   6.543
21708WAT     H165366   5.263   0.900   6.542
21708WAT     H265367   5.144   0.809   6.477
21709WAT      O65368   6.057   9.456   4.766
21709WAT     H165369   6.154   9.477   4.755
21709WAT     H265370   6.018   9.432   4.677
21710WAT      O65371   6.467   8.486   0.122
21710WAT     H165372   6.512   8.414   0.174
21710WAT     H265373   6.536   8.541   0.074
21711WAT      O65374   9.253   2.566   8.656
21711WAT     H165375   9.229   2.518   8.571
21711WAT     H265376   9.341   2.532   8.689
21712WAT      O65377   9.222   4.764   8.989
21712WAT     H165378   9.305   4.785   8.937
21712WAT     H265379   9.147   4.746   8.926
21713WAT      O65380   3.396   1.341   0.470
21713WAT     H165381   3.334   1.409   0.510
21713WAT     H265382   3.344   1.258   0.450
21714WAT      O65383   7.908   8.192   8.465
21714WAT     H165384   7.847   8.173   8.389
21714WAT     H265385   7.854   8.216   8.546
21715WAT      O65386   3.727   8.614   6.871
21715WAT     H165387   3.770   8.647   6.787
21715WAT     H265388   3.635   8.652   6.878
21716WAT      O65389   8.666   5.255   0.940
21716WAT     H165390   8.743   5.316   0.923
21716WAT     H265391   8.615   5.241   0.855
21717WAT      O65392   0.264   5.044   2.733
21717WAT     H165393   0.177   5.092   2.722
21717WAT     H265394   0.285   5.036   2.831
21718WAT      O65395   3.992   1.524   9.627
21718WAT     H165396   3.894   1.514   9.608
21718WAT     H265397   4.034   1.434   9.633
21719WAT      O65398   9.118   3.572   8.991
21719WAT     H165399   9.147   3.660   8.954
21719WAT     H265400   9.037   3.539   8.941
21720WAT      O65401   8.963   0.358   3.868
21720WAT     H165402   9.008   0.391   3.951
21720WAT     H265403   8.884   0.416   3.848
21721WAT      O65404   8.247   7.346   5.676
21721WAT     H165405   8.167   7.380   5.725
21721WAT     H265406   8.327   7.400   5.701
21722WAT      O65407   2.373   3.690   1.748
21722WAT     H165408   2.391   3.781   1.711
21722WAT     H265409   2.280   3.662   1.724
21723WAT      O65410   2.638   4.734   4.147
21723WAT     H165411   2.595   4.753   4.235
21723WAT     H265412   2.585   4.664   4.098
21724WAT      O65413   8.182   9.252   7.257
21724WAT     H165414   8.174   9.160   7.218
21724WAT     H265415   8.265   9.296   7.223
21725WAT      O65416   6.264   4.939   6.511
21725WAT     H165417   6.212   4.868   6.560
21725WAT     H265418   6.331   4.895   6.451
21726WAT      O65419   3.486   6.362   5.847
21726WAT     H165420   3.528   6.271   5.845
21726WAT     H265421   3.404   6.359   5.904
21727WAT      O65422   8.810   3.678   7.320
21727WAT     H165423   8.909   3.683   7.331
21727WAT     H265424   8.767   3.658   7.409
21728WAT      O65425   6.476   6.721   5.627
21728WAT     H165426   6.473   6.629   5.588
21728WAT     H265427   6.400   6.732   5.691
21729WAT      O65428   2.453   7.116   5.811
21729WAT     H165429   2.504   7.031   5.826
21729WAT     H265430   2.368   7.097   5.762
21730WAT      O65431   4.382   1.927   3.329
21730WAT     H165432   4.392   2.014   3.281
21730WAT     H265433   4.287   1.897   3.322
21731WAT      O65434   2.224   1.707   2.090
21731WAT     H165435   2.228   1.804   2.063
21731WAT     H265436   2.131   1.686   2.122
21732WAT      O65437   2.565   7.396   0.148
21732WAT     H165438   2.520   7.484   0.139
21732WAT     H265439   2.571   7.353   0.058
21733WAT      O65440   5.147   2.553   0.965
21733WAT     H165441   5.148   2.603   1.051
21733WAT     H265442   5.073   2.588   0.907
21734WAT      O65443   0.048   0.273   3.641
21734WAT     H165444   0.130   0.325   3.665
21734WAT     H265445   0.074   0.191   3.590
21735WAT      O65446   0.614   5.899   8.011
21735WAT     H165447   0.518   5.923   8.002
21735WAT     H265448   0.665   5.932   7.932
21736WAT      O65449   8.417   3.020   1.814
21736WAT     H165450   8.504   2.991   1.774
21736WAT     H265451   8.343   2.999   1.751
21737WAT      O65452   7.130   3.745   8.512
21737WAT     H165453   7.222   3.731   8.477
21737WAT     H265454   7.130   3.734   8.612
21738WAT      O65455   1.170   8.378   6.755
21738WAT     H165456   1.118   8.463   6.747
21738WAT     H265457   1.184   8.357   6.852
21739WAT      O65458   3.948   5.127   1.400
21739WAT     H165459   3.849   5.119   1.395
21739WAT     H265460   3.989   5.036   1.399
21740WAT      O65461   4.328   2.442   1.319
21740WAT     H165462   4.347   2.540   1.330
21740WAT     H265463   4.270   2.411   1.394
21741WAT      O65464   6.411   1.984   8.232
21741WAT     H165465   6.356   2.057   8.191
21741WAT     H265466   6.465   2.022   8.308
21742WAT      O65467   9.552   3.862   4.074
21742WAT     H165468   9.565   3.789   4.141
21742WAT     H265469   9.608   3.843   3.993
21743WAT      O65470   3.254   5.359   6.964
21743WAT     H165471   3.237   5.423   6.889
21743WAT     H265472   3.180   5.292   6.969
21744WAT      O65473   0.099   7.231   7.322
21744WAT     H165474   0.034   7.166   7.362
21744WAT     H265475   0.124   7.201   7.230
21745WAT      O65476   8.307   7.426   9.071
21745WAT     H165477   8.369   7.428   8.992
21745WAT     H265478   8.351   7.376   9.146
21746WAT      O65479   7.005   1.743   0.726
21746WAT     H165480   7.092   1.718   0.683
21746WAT     H265481   7.012   1.836   0.762
21747WAT      O65482   9.188   2.480   5.594
21747WAT     H165483   9.094   2.469   5.561
21747WAT     H265484   9.250   2.427   5.537
21748WAT      O65485   0.431   3.786   0.862
21748WAT     H165486   0.398   3.855   0.798
21748WAT     H265487   0.521   3.753   0.833
21749WAT      O65488   3.015   9.058   8.289
21749WAT     H165489   2.922   9.028   8.269
21749WAT     H265490   3.014   9.127   8.361
21750WAT      O65491   6.402   0.220   6.718
21750WAT     H165492   6.488   0.197   6.673
21750WAT     H265493   6.418   0.294   6.784
21751WAT      O65494   8.739   5.183   1.902
21751WAT     H165495   8.665   5.154   1.842
21751WAT     H265496   8.773   5.273   1.873
21752WAT      O65497   2.245   1.905   4.195
21752WAT     H165498   2.163   1.953   4.165
21752WAT     H265499   2.242   1.810   4.164
21753WAT      O65500   5.601   7.224   6.926
21753WAT     H165501   5.665   7.169   6.980
21753WAT     H265502   5.549   7.283   6.986
21754WAT      O65503   9.387   0.065   3.446
21754WAT     H165504   9.313   0.100   3.503
21754WAT     H265505   9.409  -0.029   3.474
21755WAT      O65506   7.092   8.068   5.931
21755WAT     H165507   7.015   8.034   5.877
21755WAT     H265508   7.084   8.033   6.025
21756WAT      O65509   1.037   5.843   0.710
21756WAT     H165510   0.998   5.818   0.621
21756WAT     H265511   1.057   5.760   0.762
21757WAT      O65512   4.174   7.141   4.298
21757WAT     H165513   4.107   7.114   4.229
21757WAT     H265514   4.149   7.100   4.386
21758WAT      O65515   4.527   3.367   1.266
21758WAT     H165516   4.462   3.436   1.297
21758WAT     H265517   4.603   3.412   1.219
21759WAT      O65518   0.017   1.577   0.872
21759WAT     H165519   0.116   1.560   0.874
21759WAT     H265520  -0.026   1.535   0.951
21760WAT      O65521   7.613   5.233   6.497
21760WAT     H165522   7.624   5.205   6.592
21760WAT     H265523   7.541   5.302   6.490
21761WAT      O65524   8.316   3.041   8.974
21761WAT     H165525   8.291   2.948   9.002
21761WAT     H265526   8.415   3.053   8.985
21762WAT      O65527   3.647   7.293   7.871
21762WAT     H165528   3.733   7.314   7.916
21762WAT     H265529   3.661   7.220   7.804
21763WAT      O65530   9.210   1.618   4.084
21763WAT     H165531   9.189   1.545   4.019
21763WAT     H265532   9.179   1.592   4.175
21764WAT      O65533   1.199   8.119   5.026
21764WAT     H165534   1.213   8.138   4.929
21764WAT     H265535   1.113   8.069   5.038
21765WAT      O65536   6.500   9.160   9.383
21765WAT     H165537   6.480   9.251   9.420
21765WAT     H265538   6.546   9.169   9.294
21766WAT      O65539   1.273   2.032   6.687
21766WAT     H165540   1.360   1.988   6.707
21766WAT     H265541   1.270   2.122   6.730
21767WAT      O65542   4.006   3.607   4.245
21767WAT     H165543   4.055   3.531   4.289
21767WAT     H265544   3.921   3.624   4.293
21768WAT      O65545   6.672   3.251   3.809
21768WAT     H165546   6.657   3.162   3.765
21768WAT     H265547   6.723   3.238   3.894
21769WAT      O65548   7.435   0.350   1.056
21769WAT     H165549   7.478   0.260   1.050
21769WAT     H265550   7.457   0.403   0.974
21770WAT      O65551   0.003   0.305   7.257
21770WAT     H165552   0.014   0.332   7.161
21770WAT     H265553   0.006   0.386   7.315
21771WAT      O65554   5.727   9.397   3.745
21771WAT     H165555   5.795   9.470   3.754
21771WAT     H265556   5.666   9.400   3.824
21772WAT      O65557   8.585   6.947   7.996
21772WAT     H165558   8.492   6.949   7.959
21772WAT     H265559   8.591   7.010   8.074
21773WAT      O65560   0.601   3.060   9.763
21773WAT     H165561   0.574   2.989   9.698
21773WAT     H265562   0.538   3.137   9.757
21774WAT      O65563   2.647   8.505   5.660
21774WAT     H165564   2.639   8.573   5.734
21774WAT     H265565   2.567   8.445   5.662
21775WAT      O65566   2.040   2.850   4.242
21775WAT     H165567   2.006   2.814   4.155
21775WAT     H265568   2.064   2.774   4.302
21776WAT      O65569   1.930   6.206   4.067
21776WAT     H165570   1.932   6.297   4.110
21776WAT     H265571   1.862   6.150   4.113
21777WAT      O65572   0.479   6.013   4.096
21777WAT     H165573   0.452   5.937   4.155
21777WAT     H265574   0.413   6.088   4.106
21778WAT      O65575   1.131   4.367   1.997
21778WAT     H165576   1.073   4.445   1.973
21778WAT     H265577   1.168   4.380   2.089
21779WAT      O65578   4.662   8.142   2.910
21779WAT     H165579   4.762   8.129   2.913
21779WAT     H265580   4.618   8.052   2.907
21780WAT      O65581   9.279   7.059   8.897
21780WAT     H165582   9.260   7.000   8.819
21780WAT     H265583   9.255   7.154   8.874
21781WAT      O65584   4.754   6.602   1.883
21781WAT     H165585   4.659   6.632   1.890
21781WAT     H265586   4.764   6.536   1.809
21782WAT      O65587   2.458   1.145   5.307
21782WAT     H165588   2.482   1.067   5.363
21782WAT     H265589   2.360   1.162   5.312
21783WAT      O65590   1.920   5.748   5.198
21783WAT     H165591   1.996   5.705   5.148
21783WAT     H265592   1.840   5.689   5.194
21784WAT      O65593   3.985   3.848   5.981
21784WAT     H165594   3.915   3.866   5.911
21784WAT     H265595   4.062   3.910   5.967
21785WAT      O65596   4.397   7.480   4.664
21785WAT     H165597   4.385   7.574   4.633
21785WAT     H265598   4.316   7.426   4.641
21786WAT      O65599   7.467   3.840   6.414
21786WAT     H165600   7.514   3.866   6.330
21786WAT     H265601   7.531   3.844   6.491
21787WAT      O65602   3.139   9.600   6.944
21787WAT     H165603   3.166   9.669   7.011
21787WAT     H265604   3.195   9.610   6.861
21788WAT      O65605   6.291   0.092   4.213
21788WAT     H165606   6.226   0.051   4.150
21788WAT     H265607   6.273   0.058   4.306
21789WAT      O65608   4.539   6.856   2.286
21789WAT     H165609   4.569   6.951   2.289
21789WAT     H265610   4.573   6.813   2.202
21790WAT      O65611   0.266   5.840   0.342
21790WAT     H165612   0.234   5.756   0.385
21790WAT     H265613   0.191   5.883   0.292
21791WAT      O65614   5.937   5.967   7.696
21791WAT     H165615   6.031   5.935   7.709
21791WAT     H265616   5.908   6.019   7.776
21792WAT      O65617   8.335   7.885   0.427
21792WAT     H165618   8.315   7.864   0.331
21792WAT     H265619   8.308   7.979   0.447
21793WAT      O65620   2.299   8.408   9.165
21793WAT     H165621   2.347   8.492   9.190
21793WAT     H265622   2.364   8.333   9.155
21794WAT      O65623   2.032   2.874   7.527
21794WAT     H165624   2.103   2.806   7.543
21794WAT     H265625   1.946   2.828   7.502
21795WAT      O65626   4.261   6.626   0.293
21795WAT     H165627   4.281   6.663   0.384
21795WAT     H265628   4.328   6.660   0.227
21796WAT      O65629   9.068   1.238   6.713
21796WAT     H165630   9.074   1.191   6.801
21796WAT     H265631   9.084   1.172   6.639
21797WAT      O65632   4.048   3.635   8.709
21797WAT     H165633   4.111   3.629   8.786
21797WAT     H265634   4.075   3.570   8.638
21798WAT      O65635   9.407   1.803   1.709
21798WAT     H165636   9.461   1.792   1.626
21798WAT     H265637   9.377   1.713   1.741
21799WAT      O65638   8.484   3.576   1.803
21799WAT     H165639   8.468   3.546   1.897
21799WAT     H265640   8.573   3.622   1.798
21800WAT      O65641   8.174   1.192   4.259
21800WAT     H165642   8.108   1.267   4.267
21800WAT     H265643   8.150   1.135   4.180
21801WAT      O65644   2.140   4.476   1.092
21801WAT     H165645   2.050   4.491   1.051
21801WAT     H265646   2.172   4.383   1.071
21802WAT      O65647   9.483   0.961   8.342
21802WAT     H165648   9.496   1.060   8.338
21802WAT     H265649   9.443   0.930   8.255
21803WAT      O65650   6.062   1.577   3.698
21803WAT     H165651   6.143   1.540   3.744
21803WAT     H265652   6.064   1.551   3.601
21804WAT      O65653   5.458   2.577   1.725
21804WAT     H165654   5.372   2.599   1.679
21804WAT     H265655   5.534   2.607   1.669
21805WAT      O65656   0.842   4.508   7.469
21805WAT     H165657   0.863   4.604   7.449
21805WAT     H265658   0.756   4.483   7.426
21806WAT      O65659   2.256   4.184   9.613
21806WAT     H165660   2.346   4.155   9.581
21806WAT     H265661   2.265   4.265   9.671
21807WAT      O65662   3.450   7.976   4.297
21807WAT     H165663   3.404   7.899   4.341
21807WAT     H265664   3.392   8.012   4.224
21808WAT      O65665   5.423   3.345   1.185
21808WAT     H165666   5.497   3.310   1.128
21808WAT     H265667   5.347   3.373   1.127
21809WAT      O65668   4.321   7.601   7.308
21809WAT     H165669   4.244   7.644   7.354
21809WAT     H265670   4.356   7.526   7.364
21810WAT      O65671   4.736   5.448   7.235
21810WAT     H165672   4.655   5.422   7.287
21810WAT     H265673   4.752   5.381   7.163
21811WAT      O65674   2.143   5.011   8.561
21811WAT     H165675   2.101   5.101   8.558
21811WAT     H265676   2.220   5.007   8.497
21812WAT      O65677   7.193   6.018   3.964
21812WAT     H165678   7.220   6.113   3.979
21812WAT     H265679   7.246   5.958   4.024
21813WAT      O65680   8.882   4.895   0.620
21813WAT     H165681   8.831   4.977   0.593
21813WAT     H265682   8.914   4.847   0.538
21814WAT      O65683   8.054   5.557   2.218
21814WAT     H165684   7.987   5.500   2.169
21814WAT     H265685   8.103   5.614   2.153
21815WAT      O65686   5.996   6.239   3.593
21815WAT     H165687   6.051   6.321   3.604
21815WAT     H265688   5.911   6.248   3.646
21816WAT      O65689   7.570   4.003   7.805
21816WAT     H165690   7.637   4.066   7.765
21816WAT     H265691   7.479   4.023   7.769
21817WAT      O65692   3.753   2.639   4.580
21817WAT     H165693   3.718   2.733   4.576
21817WAT     H265694   3.815   2.631   4.657
21818WAT      O65695   4.290   8.378   2.775
21818WAT     H165696   4.369   8.346   2.722
21818WAT     H265697   4.322   8.426   2.857
21819WAT      O65698   5.432   3.347   6.139
21819WAT     H165699   5.381   3.345   6.053
21819WAT     H265700   5.426   3.258   6.183
21820WAT      O65701   1.682   7.993   3.909
21820WAT     H165702   1.657   7.898   3.927
21820WAT     H265703   1.735   7.999   3.824
21821WAT      O65704   9.312   3.957   8.964
21821WAT     H165705   9.293   4.053   8.941
21821WAT     H265706   9.276   3.938   9.056
21822WAT      O65707   3.509   1.316   0.886
21822WAT     H165708   3.417   1.279   0.874
21822WAT     H265709   3.523   1.339   0.983
21823WAT      O65710   9.076   5.525   1.202
21823WAT     H165711   9.035   5.451   1.257
21823WAT     H265712   9.169   5.542   1.235
21824WAT      O65713   3.056   3.130   5.318
21824WAT     H165714   2.974   3.078   5.339
21824WAT     H265715   3.137   3.078   5.345
21825WAT      O65716   0.640   5.971   7.753
21825WAT     H165717   0.601   6.055   7.718
21825WAT     H265718   0.582   5.893   7.727
21826WAT      O65719   9.136   0.416   6.588
21826WAT     H165720   9.069   0.445   6.657
21826WAT     H265721   9.164   0.495   6.535
21827WAT      O65722   6.907   9.095   9.627
21827WAT     H165723   6.835   9.062   9.688
21827WAT     H265724   6.988   9.118   9.680
21828WAT      O65725   6.787   4.753   2.054
21828WAT     H165726   6.735   4.833   2.085
21828WAT     H265727   6.821   4.703   2.134
21829WAT      O65728   2.526   1.306   8.350
21829WAT     H165729   2.466   1.350   8.418
21829WAT     H265730   2.562   1.375   8.288
21830WAT      O65731   5.923   0.592   3.502
21830WAT     H165732   5.854   0.521   3.516
21830WAT     H265733   6.011   0.549   3.482
21831WAT      O65734   2.378   5.828   8.274
21831WAT     H165735   2.443   5.864   8.340
21831WAT     H265736   2.408   5.739   8.241
21832WAT      O65737   2.668   6.181   8.455
21832WAT     H165738   2.686   6.279   8.469
21832WAT     H265739   2.646   6.164   8.359
21833WAT      O65740   5.382   1.888   6.387
21833WAT     H165741   5.392   1.964   6.451
21833WAT     H265742   5.471   1.846   6.370
21834WAT      O65743   4.390   0.266   6.474
21834WAT     H165744   4.318   0.277   6.404
21834WAT     H265745   4.395   0.348   6.531
21835WAT      O65746   5.771   1.493   5.343
21835WAT     H165747   5.759   1.493   5.244
21835WAT     H265748   5.683   1.475   5.387
21836WAT      O65749   0.408   4.501   7.785
21836WAT     H165750   0.478   4.552   7.834
21836WAT     H265751   0.407   4.406   7.817
21837WAT      O65752   0.219   6.218   8.272
21837WAT     H165753   0.234   6.297   8.332
21837WAT     H265754   0.125   6.218   8.239
21838WAT      O65755   4.200   0.919   5.210
21838WAT     H165756   4.283   0.931   5.157
21838WAT     H265757   4.133   0.867   5.157
21839WAT      O65758   5.754   5.843   0.204
21839WAT     H165759   5.677   5.843   0.140
21839WAT     H265760   5.821   5.775   0.175
21840WAT      O65761   9.845   3.765   8.923
21840WAT     H165762   9.882   3.808   8.841
21840WAT     H265763   9.842   3.831   8.998
21841WAT      O65764   5.723   5.520   9.659
21841WAT     H165765   5.802   5.566   9.702
21841WAT     H265766   5.750   5.429   9.629
21842WAT      O65767   7.208   2.944   4.112
21842WAT     H165768   7.249   2.968   4.024
21842WAT     H265769   7.278   2.905   4.172
21843WAT      O65770   3.870   7.405   4.526
21843WAT     H165771   3.857   7.308   4.505
21843WAT     H265772   3.813   7.430   4.604
21844WAT      O65773   9.325   7.288   3.076
21844WAT     H165774   9.252   7.325   3.018
21844WAT     H265775   9.399   7.355   3.083
21845WAT      O65776   9.857   3.424   6.047
21845WAT     H165777   9.782   3.438   5.982
21845WAT     H265778   9.819   3.420   6.140
21846WAT      O65779   4.660   3.457   4.591
21846WAT     H165780   4.645   3.508   4.675
21846WAT     H265781   4.573   3.442   4.545
21847WAT      O65782   4.647   4.924   3.672
21847WAT     H165783   4.579   4.884   3.733
21847WAT     H265784   4.639   5.024   3.673
21848WAT      O65785   0.918   3.399   7.308
21848WAT     H165786   0.879   3.329   7.367
21848WAT     H265787   1.002   3.434   7.349
21849WAT      O65788   4.861   8.511   7.436
21849WAT     H165789   4.901   8.516   7.527
21849WAT     H265790   4.776   8.564   7.434
21850WAT      O65791   0.686   9.732   8.552
21850WAT     H165792   0.786   9.731   8.564
21850WAT     H265793   0.657   9.652   8.500
21851WAT      O65794   7.615   0.486   4.223
21851WAT     H165795   7.683   0.464   4.153
21851WAT     H265796   7.526   0.501   4.179
21852WAT      O65797   8.154   2.594   5.697
21852WAT     H165798   8.083   2.576   5.628
21852WAT     H265799   8.114   2.594   5.788
21853WAT      O65800   6.079   4.303   3.404
21853WAT     H165801   6.100   4.390   3.360
21853WAT     H265802   6.161   4.245   3.404
21854WAT      O65803   3.353   2.190   0.544
21854WAT     H165804   3.264   2.229   0.568
21854WAT     H265805   3.419   2.263   0.528
21855WAT      O65806   3.375   6.399   1.402
21855WAT     H165807   3.420   6.425   1.317
21855WAT     H265808   3.416   6.448   1.479
21856WAT      O65809   7.587   4.068   0.155
21856WAT     H165810   7.488   4.082   0.144
21856WAT     H265811   7.635   4.118   0.083
21857WAT      O65812   9.022   4.080   7.808
21857WAT     H165813   8.980   4.009   7.751
21857WAT     H265814   9.114   4.050   7.835
21858WAT      O65815   8.334   3.647   7.688
21858WAT     H165816   8.384   3.596   7.618
21858WAT     H265817   8.257   3.592   7.721
21859WAT      O65818   6.478   0.918   2.384
21859WAT     H165819   6.380   0.937   2.379
21859WAT     H265820   6.493   0.821   2.400
21860WAT      O65821   5.757   7.856   1.054
21860WAT     H165822   5.780   7.776   0.999
21860WAT     H265823   5.697   7.917   1.002
21861WAT      O65824   0.836   8.734   9.638
21861WAT     H165825   0.853   8.830   9.659
21861WAT     H265826   0.919   8.691   9.604
21862WAT      O65827   2.155   7.649   4.298
21862WAT     H165828   2.114   7.570   4.251
21862WAT     H265829   2.251   7.628   4.319
21863WAT      O65830   5.958   8.570   1.147
21863WAT     H165831   6.000   8.660   1.141
21863WAT     H265832   6.029   8.500   1.150
21864WAT      O65833   9.238   0.575   6.062
21864WAT     H165834   9.313   0.513   6.041
21864WAT     H265835   9.154   0.522   6.077
21865WAT      O65836   7.073   2.433   0.431
21865WAT     H165837   7.094   2.374   0.508
21865WAT     H265838   7.157   2.457   0.382
21866WAT      O65839   5.017   3.184   0.120
21866WAT     H165840   4.947   3.135   0.172
21866WAT     H265841   4.989   3.190   0.024
21867WAT      O65842   9.148   7.625   1.234
21867WAT     H165843   9.204   7.688   1.288
21867WAT     H265844   9.191   7.611   1.144
21868WAT      O65845   5.668   2.075   9.252
21868WAT     H165846   5.627   1.984   9.259
21868WAT     H265847   5.628   2.135   9.321
21869WAT      O65848   2.823   1.321   5.997
21869WAT     H165849   2.869   1.360   6.077
21869WAT     H265850   2.727   1.351   5.996
21870WAT      O65851   6.490   6.479   3.698
21870WAT     H165852   6.490   6.461   3.796
21870WAT     H265853   6.555   6.418   3.653
21871WAT      O65854   9.601   5.300   7.929
21871WAT     H165855   9.553   5.214   7.911
21871WAT     H265856   9.565   5.371   7.868
21872WAT      O65857   3.263   4.994   1.776
21872WAT     H165858   3.231   5.016   1.684
21872WAT     H265859   3.184   4.985   1.837
21873WAT      O65860   9.230   8.157   4.019
21873WAT     H165861   9.203   8.061   4.027
21873WAT     H265862   9.312   8.173   4.075
21874WAT      O65863   4.034   0.517   2.580
21874WAT     H165864   4.071   0.602   2.618
21874WAT     H265865   4.096   0.442   2.598
21875WAT      O65866   7.580   6.983   1.501
21875WAT     H165867   7.677   6.987   1.475
21875WAT     H265868   7.557   7.063   1.556
21876WAT      O65869   5.542   5.674   2.066
21876WAT     H165870   5.490   5.593   2.040
21876WAT     H265871   5.481   5.740   2.109
21877WAT      O65872   7.277   5.024   5.532
21877WAT     H165873   7.305   4.942   5.484
21877WAT     H265874   7.354   5.088   5.537
21878WAT      O65875   4.638   7.171   3.636
21878WAT     H165876   4.675   7.217   3.555
21878WAT     H265877   4.539   7.185   3.640
21879WAT      O65878   2.616   2.318   7.096
21879WAT     H165879   2.520   2.333   7.073
21879WAT     H265880   2.627   2.227   7.136
21880WAT      O65881   7.321   0.038   3.900
21880WAT     H165882   7.234   0.047   3.948
21880WAT     H265883   7.341  -0.059   3.887
21881WAT      O65884   4.286   0.633   8.162
21881WAT     H165885   4.214   0.670   8.221
21881WAT     H265886   4.316   0.703   8.098
21882WAT      O65887   0.323   5.108   0.170
21882WAT     H165888   0.319   5.159   0.256
21882WAT     H265889   0.412   5.062   0.163
21883WAT      O65890   8.829   8.546   5.802
21883WAT     H165891   8.866   8.497   5.881
21883WAT     H265892   8.784   8.481   5.741
21884WAT      O65893   8.406   9.748   2.538
21884WAT     H165894   8.500   9.765   2.564
21884WAT     H265895   8.347   9.821   2.573
21885WAT      O65896   6.135   2.921   8.041
21885WAT     H165897   6.116   2.928   8.139
21885WAT     H265898   6.062   2.968   7.990
21886WAT      O65899   8.646   9.041   6.369
21886WAT     H165900   8.698   9.125   6.387
21886WAT     H265901   8.563   9.063   6.318
21887WAT      O65902   5.390   5.817   3.331
21887WAT     H165903   5.304   5.841   3.376
21887WAT     H265904   5.437   5.901   3.302
21888WAT      O65905   9.623   7.532   5.759
21888WAT     H165906   9.625   7.570   5.851
21888WAT     H265907   9.549   7.465   5.752
21889WAT      O65908   8.718   1.019   9.041
21889WAT     H165909   8.666   0.935   9.024
21889WAT     H265910   8.798   0.998   9.098
21890WAT      O65911   6.495   5.071   4.562
21890WAT     H165912   6.455   5.158   4.590
21890WAT     H265913   6.479   5.002   4.633
21891WAT      O65914   1.454   0.071   0.556
21891WAT     H165915   1.375   0.132   0.566
21891WAT     H265916   1.451   0.002   0.629
21892WAT      O65917   0.657   9.818   1.023
21892WAT     H165918   0.703   9.849   0.939
21892WAT     H265919   0.636   9.721   1.015
21893WAT      O65920   0.952   6.333   9.792
21893WAT     H165921   0.871   6.378   9.830
21893WAT     H265922   1.033   6.389   9.811
21894WAT      O65923   1.178   6.448   4.185
21894WAT     H165924   1.234   6.508   4.242
21894WAT     H265925   1.237   6.383   4.136
21895WAT      O65926   9.035   3.150   2.708
21895WAT     H165927   9.031   3.187   2.615
21895WAT     H265928   9.087   3.064   2.707
21896WAT      O65929   0.612   3.466   2.240
21896WAT     H165930   0.707   3.445   2.260
21896WAT     H265931   0.582   3.543   2.296
21897WAT      O65932   6.784   7.634   1.950
21897WAT     H165933   6.880   7.643   1.976
21897WAT     H265934   6.777   7.582   1.864
21898WAT      O65935   8.030   0.399   8.867
21898WAT     H165936   8.000   0.309   8.899
21898WAT     H265937   8.037   0.398   8.767
21899WAT      O65938   5.833   1.776   2.704
21899WAT     H165939   5.919   1.807   2.665
21899WAT     H265940   5.757   1.820   2.657
21900WAT      O65941   0.202   1.210   0.843
21900WAT     H165942   0.104   1.199   0.828
21900WAT     H265943   0.221   1.304   0.869
21901WAT      O65944   2.863   1.929   2.358
21901WAT     H165945   2.927   2.006   2.367
21901WAT     H265946   2.809   1.940   2.275
21902WAT      O65947   0.843   0.266   8.958
21902WAT     H165948   0.870   0.335   9.024
21902WAT     H265949   0.745   0.249   8.965
21903WAT      O65950   9.183   9.568   2.242
21903WAT     H165951   9.123   9.641   2.209
21903WAT     H265952   9.279   9.592   2.222
21904WAT      O65953   4.331   5.779   3.600
21904WAT     H165954   4.420   5.746   3.569
21904WAT     H265955   4.342   5.867   3.646
21905WAT      O65956   5.811   6.672   8.686
21905WAT     H165957   5.819   6.618   8.770
21905WAT     H265958   5.730   6.731   8.692
21906WAT      O65959   1.016   5.325   2.357
21906WAT     H165960   0.955   5.352   2.432
21906WAT     H265961   1.051   5.233   2.375
21907WAT      O65962   4.573   7.618   0.824
21907WAT     H165963   4.539   7.636   0.916
21907WAT     H265964   4.538   7.530   0.792
21908WAT      O65965   6.124   4.664   7.348
21908WAT     H165966   6.127   4.748   7.294
21908WAT     H265967   6.214   4.644   7.385
21909WAT      O65968   7.159   3.450   6.553
21909WAT     H165969   7.220   3.422   6.627
21909WAT     H265970   7.121   3.540   6.573
21910WAT      O65971   3.539   0.963   0.111
21910WAT     H165972   3.526   0.942   0.208
21910WAT     H265973   3.467   0.917   0.058
21911WAT      O65974   2.105   8.718   4.474
21911WAT     H165975   2.129   8.675   4.561
21911WAT     H265976   2.072   8.811   4.490
21912WAT      O65977   3.336   5.924   9.045
21912WAT     H165978   3.383   5.872   9.116
21912WAT     H265979   3.241   5.893   9.038
21913WAT      O65980   7.195   5.953   1.186
21913WAT     H165981   7.105   5.931   1.148
21913WAT     H265982   7.252   5.992   1.114
21914WAT      O65983   7.321   6.933   7.718
21914WAT     H165984   7.421   6.930   7.713
21914WAT     H265985   7.283   6.858   7.663
21915WAT      O65986   8.803   5.171   9.539
21915WAT     H165987   8.886   5.225   9.557
21915WAT     H265988   8.817   5.113   9.459
21916WAT      O65989   3.219   4.686   7.789
21916WAT     H165990   3.308   4.689   7.834
21916WAT     H265991   3.166   4.608   7.823
21917WAT      O65992   8.143   7.521   3.884
21917WAT     H165993   8.114   7.431   3.918
21917WAT     H265994   8.235   7.541   3.918
21918WAT      O65995   6.845   3.366   8.413
21918WAT     H165996   6.940   3.355   8.384
21918WAT     H265997   6.830   3.459   8.446
21919WAT      O65998   2.731   8.293   1.293
21919WAT     H165999   2.638   8.310   1.324
21919WAT     H266000   2.748   8.195   1.289
21920WAT      O66001   3.092   7.410   9.382
21920WAT     H166002   3.089   7.467   9.464
21920WAT     H266003   3.126   7.319   9.406
21921WAT      O66004   6.815   4.720   8.646
21921WAT     H166005   6.793   4.671   8.730
21921WAT     H266006   6.808   4.818   8.662
21922WAT      O66007   0.751   6.146   7.343
21922WAT     H166008   0.844   6.118   7.321
21922WAT     H266009   0.739   6.243   7.321
21923WAT      O66010   2.569   4.238   3.518
21923WAT     H166011   2.544   4.141   3.522
21923WAT     H266012   2.664   4.246   3.487
21924WAT      O66013   0.228   6.722   1.619
21924WAT     H166014   0.274   6.714   1.530
21924WAT     H266015   0.226   6.633   1.663
21925WAT      O66016   4.343   2.376   3.018
21925WAT     H166017   4.351   2.332   2.928
21925WAT     H266018   4.277   2.452   3.012
21926WAT      O66019   8.529   8.252   4.498
21926WAT     H166020   8.450   8.244   4.437
21926WAT     H266021   8.523   8.337   4.550
21927WAT      O66022   8.874   5.131   3.199
21927WAT     H166023   8.941   5.196   3.233
21927WAT     H266024   8.920   5.053   3.157
21928WAT      O66025   0.208   8.767   1.775
21928WAT     H166026   0.197   8.789   1.678
21928WAT     H266027   0.222   8.851   1.827
21929WAT      O66028   1.130   5.349   8.219
21929WAT     H166029   1.211   5.368   8.274
21929WAT     H266030   1.157   5.332   8.124
21930WAT      O66031   5.292   7.206   8.516
21930WAT     H166032   5.259   7.170   8.429
21930WAT     H266033   5.254   7.153   8.592
21931WAT      O66034   3.306   2.871   6.160
21931WAT     H166035   3.341   2.852   6.068
21931WAT     H266036   3.296   2.970   6.172
21932WAT      O66037   6.016   6.334   1.634
21932WAT     H166038   6.099   6.306   1.681
21932WAT     H266039   6.039   6.398   1.560
21933WAT      O66040   0.939   8.612   4.282
21933WAT     H166041   0.997   8.554   4.223
21933WAT     H266042   0.992   8.691   4.313
21934WAT      O66043   2.637   2.560   4.058
21934WAT     H166044   2.691   2.510   3.991
21934WAT     H266045   2.655   2.658   4.050
21935WAT      O66046   6.743   7.230   7.636
21935WAT     H166047   6.705   7.166   7.703
21935WAT     H266048   6.701   7.320   7.648
21936WAT      O66049   8.991   2.328   2.001
21936WAT     H166050   9.066   2.354   2.061
21936WAT     H266051   8.936   2.408   1.980
21937WAT      O66052   6.667   0.361   2.442
21937WAT     H166053   6.682   0.304   2.361
21937WAT     H266054   6.755   0.399   2.472
21938WAT      O66055   8.232   3.944   8.423
21938WAT     H166056   8.305   3.901   8.368
21938WAT     H266057   8.244   4.043   8.423
21939WAT      O66058   5.833   6.365   6.555
21939WAT     H166059   5.758   6.346   6.618
21939WAT     H266060   5.906   6.415   6.603
21940WAT      O66061   1.561   0.611   6.062
21940WAT     H166062   1.558   0.642   6.157
21940WAT     H266063   1.609   0.679   6.006
21941WAT      O66064   2.686   9.096   5.835
21941WAT     H166065   2.597   9.141   5.824
21941WAT     H266066   2.726   9.122   5.922
21942WAT      O66067   5.280   3.134   0.138
21942WAT     H166068   5.182   3.154   0.138
21942WAT     H266069   5.317   3.145   0.045
21943WAT      O66070   7.610   8.711   5.487
21943WAT     H166071   7.561   8.783   5.437
21943WAT     H266072   7.559   8.625   5.481
21944WAT      O66073   7.255   3.491   2.527
21944WAT     H166074   7.212   3.561   2.469
21944WAT     H266075   7.353   3.489   2.510
21945WAT      O66076   9.462   2.846   5.822
21945WAT     H166077   9.419   2.936   5.827
21945WAT     H266078   9.410   2.788   5.760
21946WAT      O66079   5.386   2.874   7.404
21946WAT     H166080   5.328   2.931   7.346
21946WAT     H266081   5.402   2.787   7.358
21947WAT      O66082   3.023   5.968   4.293
21947WAT     H166083   3.085   5.893   4.268
21947WAT     H266084   2.930   5.933   4.301
21948WAT      O66085   7.228   2.516   4.237
21948WAT     H166086   7.276   2.575   4.172
21948WAT     H266087   7.294   2.466   4.292
21949WAT      O66088   8.548   8.779   3.451
21949WAT     H166089   8.482   8.766   3.525
21949WAT     H266090   8.518   8.726   3.371
21950WAT      O66091   5.618   3.938   5.437
21950WAT     H166092   5.716   3.920   5.445
21950WAT     H266093   5.582   3.894   5.355
21951WAT      O66094   9.876   0.419   2.823
21951WAT     H166095   9.817   0.349   2.864
21951WAT     H266096   9.957   0.433   2.880
21952WAT      O66097   8.375   0.161   7.164
21952WAT     H166098   8.282   0.134   7.139
21952WAT     H266099   8.441   0.100   7.120
21953WAT      O66100   0.550   5.903   6.077
21953WAT     H166101   0.608   5.905   6.159
21953WAT     H266102   0.598   5.856   6.004
21954WAT      O66103   7.713   6.374   6.448
21954WAT     H166104   7.698   6.310   6.372
21954WAT     H266105   7.777   6.334   6.514
21955WAT      O66106   9.381   5.657   6.999
21955WAT     H166107   9.430   5.681   7.083
21955WAT     H266108   9.372   5.558   6.993
21956WAT      O66109   2.692   9.363   3.750
21956WAT     H166110   2.759   9.437   3.751
21956WAT     H266111   2.680   9.330   3.656
21957WAT      O66112   2.055   0.902   7.665
21957WAT     H166113   2.061   0.934   7.570
21957WAT     H266114   2.086   0.973   7.727
21958WAT      O66115   2.629   5.932   9.477
21958WAT     H166116   2.572   5.926   9.559
21958WAT     H266117   2.705   5.867   9.483
21959WAT      O66118   5.252   2.290   3.827
21959WAT     H166119   5.332   2.260   3.775
21959WAT     H266120   5.263   2.385   3.854
21960WAT      O66121   2.830   3.747   5.100
21960WAT     H166122   2.924   3.772   5.076
21960WAT     H266123   2.775   3.744   5.017
21961WAT      O66124   4.306   3.000   9.770
21961WAT     H166125   4.349   3.021   9.858
21961WAT     H266126   4.377   2.977   9.704
21962WAT      O66127   3.155   1.477   0.186
21962WAT     H166128   3.087   1.471   0.113
21962WAT     H266129   3.138   1.560   0.240
21963WAT      O66130   0.774   7.831   3.507
21963WAT     H166131   0.870   7.839   3.481
21963WAT     H266132   0.768   7.789   3.598
21964WAT      O66133   8.999   7.649   5.238
21964WAT     H166134   9.053   7.616   5.160
21964WAT     H266135   8.903   7.627   5.224
21965WAT      O66136   0.683   7.386   5.841
21965WAT     H166137   0.772   7.431   5.835
21965WAT     H266138   0.658   7.373   5.937
21966WAT      O66139   4.634   3.829   6.816
21966WAT     H166140   4.652   3.923   6.788
21966WAT     H266141   4.547   3.799   6.778
21967WAT      O66142   3.749   8.618   6.158
21967WAT     H166143   3.836   8.617   6.207
21967WAT     H266144   3.681   8.669   6.211
21968WAT      O66145   3.928   0.579   7.018
21968WAT     H166146   4.014   0.628   7.037
21968WAT     H266147   3.923   0.498   7.076
21969WAT      O66148   4.496   8.080   6.784
21969WAT     H166149   4.408   8.050   6.747
21969WAT     H266150   4.569   8.022   6.748
21970WAT      O66151   8.793   7.830   5.864
21970WAT     H166152   8.735   7.911   5.861
21970WAT     H266153   8.885   7.855   5.895
21971WAT      O66154   9.754   8.964   7.291
21971WAT     H166155   9.656   8.949   7.306
21971WAT     H266156   9.804   8.948   7.375
21972WAT      O66157   6.249   4.180   1.264
21972WAT     H166158   6.211   4.164   1.355
21972WAT     H266159   6.288   4.094   1.229
21973WAT      O66160   5.537   9.731   1.556
21973WAT     H166161   5.546   9.668   1.633
21973WAT     H266162   5.622   9.781   1.543
21974WAT      O66163   3.963   7.081   1.947
21974WAT     H166164   3.953   6.988   1.913
21974WAT     H266165   4.017   7.135   1.882
21975WAT      O66166   7.725   4.729   6.383
21975WAT     H166167   7.735   4.828   6.398
21975WAT     H266168   7.676   4.713   6.297
21976WAT      O66169   7.079   4.144   0.866
21976WAT     H166170   7.033   4.079   0.805
21976WAT     H266171   7.177   4.144   0.847
21977WAT      O66172   5.679   7.731   6.257
21977WAT     H166173   5.638   7.662   6.197
21977WAT     H266174   5.628   7.817   6.248
21978WAT      O66175   2.313   2.928   4.188
21978WAT     H166176   2.346   2.998   4.251
21978WAT     H266177   2.218   2.906   4.211
21979WAT      O66178   9.281   6.786   3.089
21979WAT     H166179   9.359   6.813   3.033
21979WAT     H266180   9.314   6.753   3.178
21980WAT      O66181   8.245   6.492   1.230
21980WAT     H166182   8.251   6.591   1.228
21980WAT     H266183   8.331   6.453   1.196
21981WAT      O66184   6.962   5.922   0.053
21981WAT     H166185   6.869   5.888   0.048
21981WAT     H266186   6.970   6.007   0.000
21982WAT      O66187   8.291   3.810   4.824
21982WAT     H166188   8.269   3.818   4.922
21982WAT     H266189   8.373   3.863   4.804
21983WAT      O66190   8.143   5.975   7.558
21983WAT     H166191   8.197   5.891   7.567
21983WAT     H266192   8.205   6.054   7.560
21984WAT      O66193   0.002   8.138   8.140
21984WAT     H166194   0.050   8.091   8.214
21984WAT     H266195   0.022   8.236   8.145
21985WAT      O66196   1.349   0.898   0.493
21985WAT     H166197   1.430   0.905   0.551
21985WAT     H266198   1.293   0.980   0.504
21986WAT      O66199   3.381   4.828   3.407
21986WAT     H166200   3.369   4.918   3.451
21986WAT     H266201   3.387   4.758   3.478
21987WAT      O66202   5.242   6.330   8.134
21987WAT     H166203   5.286   6.266   8.071
21987WAT     H266204   5.280   6.316   8.226
21988WAT      O66205   3.614   9.099   4.492
21988WAT     H166206   3.676   9.039   4.440
21988WAT     H266207   3.613   9.071   4.588
21989WAT      O66208   1.410   1.702   0.977
21989WAT     H166209   1.378   1.638   0.908
21989WAT     H266210   1.493   1.667   1.020
21990WAT      O66211   5.867   6.571   9.770
21990WAT     H166212   5.880   6.661   9.727
21990WAT     H266213   5.951   6.517   9.761
21991WAT      O66214   8.721   6.816   3.795
21991WAT     H166215   8.687   6.723   3.781
21991WAT     H266216   8.821   6.816   3.785
21992WAT      O66217   5.455   3.537   3.536
21992WAT     H166218   5.553   3.521   3.524
21992WAT     H266219   5.421   3.593   3.460
21993WAT      O66220   1.035   3.850   7.549
21993WAT     H166221   1.060   3.926   7.489
21993WAT     H266222   0.937   3.834   7.542
21994WAT      O66223   5.278   1.419   9.608
21994WAT     H166224   5.340   1.431   9.685
21994WAT     H266225   5.192   1.379   9.640
21995WAT      O66226   7.833   3.923   7.083
21995WAT     H166227   7.807   4.016   7.111
21995WAT     H266228   7.761   3.859   7.111
21996WAT      O66229   3.719   3.638   2.866
21996WAT     H166230   3.748   3.570   2.934
21996WAT     H266231   3.631   3.609   2.827
21997WAT      O66232   4.008   1.886   6.340
21997WAT     H166233   3.958   1.803   6.365
21997WAT     H266234   4.016   1.946   6.420
21998WAT      O66235   8.076   8.322   9.694
21998WAT     H166236   8.011   8.293   9.764
21998WAT     H266237   8.070   8.261   9.615
21999WAT      O66238   9.483   2.809   0.410
21999WAT     H166239   9.474   2.759   0.323
21999WAT     H266240   9.425   2.890   0.408
22000WAT      O66241   5.252   5.279   1.733
22000WAT     H166242   5.333   5.265   1.790
22000WAT     H266243   5.215   5.190   1.706
22001WAT      O66244   8.131   6.603   9.387
22001WAT     H166245   8.061   6.649   9.441
22001WAT     H266246   8.087   6.553   9.312
22002WAT      O66247   1.936   2.032   6.566
22002WAT     H166248   1.882   2.051   6.484
22002WAT     H266249   1.900   1.950   6.611
22003WAT      O66250   8.211   4.179   7.332
22003WAT     H166251   8.242   4.267   7.366
22003WAT     H266252   8.191   4.186   7.234
22004WAT      O66253   3.120   6.992   2.374
22004WAT     H166254   3.165   7.010   2.461
22004WAT     H266255   3.155   6.906   2.335
22005WAT      O66256   7.942   8.707   1.075
22005WAT     H166257   7.877   8.631   1.071
22005WAT     H266258   7.932   8.764   0.994
22006WAT      O66259   1.911   4.593   2.667
22006WAT     H166260   1.871   4.507   2.699
22006WAT     H266261   1.875   4.668   2.721
22007WAT      O66262   1.788   5.942   6.410
22007WAT     H166263   1.860   5.911   6.473
22007WAT     H266264   1.825   6.014   6.352
22008WAT      O66265   1.967   0.710   6.906
22008WAT     H166266   1.883   0.756   6.933
22008WAT     H266267   1.991   0.641   6.975
22009WAT      O66268   9.844   8.546   1.622
22009WAT     H166269   9.936   8.545   1.660
22009WAT     H266270   9.778   8.518   1.692
22010WAT      O66271   0.500   4.259   9.279
22010WAT     H166272   0.579   4.306   9.318
22010WAT     H266273   0.463   4.194   9.346
22011WAT      O66274   0.867   6.343   2.013
22011WAT     H166275   0.827   6.319   1.924
22011WAT     H266276   0.924   6.424   2.003
22012WAT      O66277   7.904   4.502   6.087
22012WAT     H166278   7.811   4.466   6.089
22012WAT     H266279   7.964   4.442   6.142
22013WAT      O66280   1.332   8.816   7.284
22013WAT     H166281   1.368   8.894   7.336
22013WAT     H266282   1.335   8.837   7.187
22014WAT      O66283   4.035   3.370   5.456
22014WAT     H166284   4.110   3.435   5.465
22014WAT     H266285   3.961   3.397   5.517
22015WAT      O66286   8.025   2.051   2.083
22015WAT     H166287   7.942   2.029   2.031
22015WAT     H266288   8.106   2.029   2.029
22016WAT      O66289   1.593   0.598   2.506
22016WAT     H166290   1.662   0.552   2.562
22016WAT     H266291   1.541   0.662   2.563
22017WAT      O66292   3.605   9.066   5.477
22017WAT     H166293   3.571   9.102   5.390
22017WAT     H266294   3.617   9.141   5.541
22018WAT      O66295   3.522   3.722   9.073
22018WAT     H166296   3.487   3.783   9.002
22018WAT     H266297   3.546   3.634   9.032
22019WAT      O66298   3.859   2.754   7.423
22019WAT     H166299   3.791   2.782   7.490
22019WAT     H266300   3.830   2.668   7.380
22020WAT      O66301   4.986   5.612   5.996
22020WAT     H166302   4.925   5.690   6.009
22020WAT     H266303   4.943   5.546   5.934
22021WAT      O66304   5.040   2.451   5.426
22021WAT     H166305   4.962   2.418   5.479
22021WAT     H266306   5.054   2.548   5.444
22022WAT      O66307   2.643   3.546   1.443
22022WAT     H166308   2.674   3.459   1.405
22022WAT     H266309   2.544   3.542   1.459
22023WAT      O66310   9.333   5.767   1.465
22023WAT     H166311   9.257   5.809   1.513
22023WAT     H266312   9.338   5.804   1.372
22024WAT      O66313   9.297   6.677   6.238
22024WAT     H166314   9.236   6.686   6.160
22024WAT     H266315   9.243   6.665   6.322
22025WAT      O66316   4.750   2.907   6.648
22025WAT     H166317   4.787   2.899   6.555
22025WAT     H266318   4.708   2.997   6.659
22026WAT      O66319   9.253   7.596   0.951
22026WAT     H166320   9.317   7.528   0.914
22026WAT     H266321   9.276   7.687   0.916
22027WAT      O66322   1.294   1.943   0.882
22027WAT     H166323   1.200   1.915   0.901
22027WAT     H266324   1.356   1.869   0.906
22028WAT      O66325   9.272   7.185   3.318
22028WAT     H166326   9.286   7.218   3.225
22028WAT     H266327   9.258   7.263   3.379
22029WAT      O66328   1.882   9.512   1.282
22029WAT     H166329   1.796   9.559   1.301
22029WAT     H266330   1.954   9.548   1.341
22030WAT      O66331   5.673   6.289   0.303
22030WAT     H166332   5.592   6.239   0.332
22030WAT     H266333   5.677   6.377   0.350
22031WAT      O66334   7.707   8.800   7.368
22031WAT     H166335   7.685   8.746   7.449
22031WAT     H266336   7.751   8.886   7.395
22032WAT      O66337   2.283   2.281   4.055
22032WAT     H166338   2.209   2.238   4.106
22032WAT     H266339   2.339   2.336   4.117
22033WAT      O66340   7.669   4.394   6.122
22033WAT     H166341   7.581   4.440   6.110
22033WAT     H266342   7.655   4.295   6.123
22034WAT      O66343   3.844   4.321   3.541
22034WAT     H166344   3.810   4.256   3.474
22034WAT     H266345   3.785   4.321   3.622
22035WAT      O66346   0.475   5.816   9.656
22035WAT     H166347   0.430   5.799   9.569
22035WAT     H266348   0.412   5.797   9.731
22036WAT      O66349   8.139   4.371   3.110
22036WAT     H166350   8.087   4.288   3.090
22036WAT     H266351   8.228   4.367   3.064
22037WAT      O66352   0.599   4.590   9.138
22037WAT     H166353   0.591   4.690   9.141
22037WAT     H266354   0.632   4.562   9.048
22038WAT      O66355   6.874   5.438   6.087
22038WAT     H166356   6.891   5.507   6.157
22038WAT     H266357   6.946   5.442   6.018
22039WAT      O66358   6.009   0.353   9.766
22039WAT     H166359   6.026   0.309   9.678
22039WAT     H266360   6.008   0.283   9.838
22040WAT      O66361   5.894   7.419   5.315
22040WAT     H166362   5.866   7.328   5.284
22040WAT     H266363   5.993   7.420   5.330
22041WAT      O66364   5.474   8.149   1.434
22041WAT     H166365   5.433   8.224   1.486
22041WAT     H266366   5.465   8.064   1.486
22042WAT      O66367   8.564   6.142   2.348
22042WAT     H166368   8.549   6.211   2.418
22042WAT     H266369   8.607   6.062   2.390
22043WAT      O66370   7.324   7.934   4.481
22043WAT     H166371   7.291   8.010   4.538
22043WAT     H266372   7.322   7.849   4.533
22044WAT      O66373   0.503   3.644   2.403
22044WAT     H166374   0.415   3.690   2.418
22044WAT     H266375   0.563   3.660   2.481
22045WAT      O66376   0.886   7.006   7.742
22045WAT     H166377   0.961   6.944   7.765
22045WAT     H266378   0.872   7.007   7.643
22046WAT      O66379   5.994   2.284   8.845
22046WAT     H166380   6.033   2.243   8.763
22046WAT     H266381   5.906   2.240   8.865
22047WAT      O66382   9.708   4.286   7.619
22047WAT     H166383   9.784   4.282   7.684
22047WAT     H266384   9.655   4.369   7.636
22048WAT      O66385   8.179   7.112   8.296
22048WAT     H166386   8.089   7.125   8.255
22048WAT     H266387   8.250   7.143   8.233
22049WAT      O66388   4.939   7.034   0.512
22049WAT     H166389   4.954   6.960   0.578
22049WAT     H266390   4.884   7.106   0.555
22050WAT      O66391   5.520   5.005   1.827
22050WAT     H166392   5.467   4.938   1.880
22050WAT     H266393   5.556   4.961   1.745
22051WAT      O66394   7.598   0.367   5.485
22051WAT     H166395   7.534   0.327   5.419
22051WAT     H266396   7.565   0.457   5.513
22052WAT      O66397   0.300   4.269   5.297
22052WAT     H166398   0.221   4.228   5.343
22052WAT     H266399   0.372   4.286   5.365
22053WAT      O66400   0.663   8.889   4.713
22053WAT     H166401   0.725   8.941   4.654
22053WAT     H266402   0.665   8.792   4.687
22054WAT      O66403   7.997   2.316   2.130
22054WAT     H166404   8.010   2.219   2.108
22054WAT     H266405   7.933   2.357   2.066
22055WAT      O66406   1.947   3.347   1.285
22055WAT     H166407   2.035   3.330   1.241
22055WAT     H266408   1.873   3.315   1.226
22056WAT      O66409   9.228   8.677   3.859
22056WAT     H166410   9.135   8.696   3.889
22056WAT     H266411   9.239   8.578   3.844
22057WAT      O66412   0.111   4.020   3.130
22057WAT     H166413   0.169   3.966   3.191
22057WAT     H266414   0.151   4.111   3.118
22058WAT      O66415   2.282   1.434   4.389
22058WAT     H166416   2.256   1.412   4.295
22058WAT     H266417   2.202   1.470   4.438
22059WAT      O66418   2.816   7.839   2.148
22059WAT     H166419   2.774   7.915   2.098
22059WAT     H266420   2.762   7.819   2.230
22060WAT      O66421   9.726   3.520   8.248
22060WAT     H166422   9.743   3.434   8.296
22060WAT     H266423   9.684   3.585   8.311
22061WAT      O66424   4.640   8.591   5.902
22061WAT     H166425   4.616   8.625   5.811
22061WAT     H266426   4.695   8.660   5.950
22062WAT      O66427   1.743   7.640   4.389
22062WAT     H166428   1.661   7.686   4.422
22062WAT     H266429   1.819   7.705   4.387
22063WAT      O66430   3.674   8.004   8.950
22063WAT     H166431   3.728   7.925   8.979
22063WAT     H266432   3.710   8.087   8.993
22064WAT      O66433   6.847   8.247   7.635
22064WAT     H166434   6.871   8.308   7.559
22064WAT     H266435   6.757   8.273   7.671
22065WAT      O66436   2.996   8.379   3.042
22065WAT     H166437   3.082   8.337   3.014
22065WAT     H266438   2.993   8.474   3.012
22066WAT      O66439   7.459   2.312   1.552
22066WAT     H166440   7.369   2.345   1.579
22066WAT     H266441   7.498   2.372   1.483
22067WAT      O66442   2.287   5.902   8.675
22067WAT     H166443   2.199   5.909   8.628
22067WAT     H266444   2.280   5.836   8.750
22068WAT      O66445   3.678   8.535   9.561
22068WAT     H166446   3.747   8.493   9.502
22068WAT     H266447   3.660   8.629   9.530
22069WAT      O66448   6.786   3.418   5.538
22069WAT     H166449   6.694   3.456   5.545
22069WAT     H266450   6.810   3.371   5.623
22070WAT      O66451   6.241   0.566   1.702
22070WAT     H166452   6.249   0.603   1.795
22070WAT     H266453   6.330   0.568   1.657
22071WAT      O66454   0.930   8.843   8.564
22071WAT     H166455   0.971   8.934   8.577
22071WAT     H266456   0.850   8.851   8.504
22072WAT      O66457   7.579   6.953   4.322
22072WAT     H166458   7.608   7.048   4.331
22072WAT     H266459   7.659   6.895   4.307
22073WAT      O66460   7.411   2.793   8.771
22073WAT     H166461   7.325   2.842   8.785
22073WAT     H266462   7.396   2.695   8.786
22074WAT      O66463   4.547   8.872   6.004
22074WAT     H166464   4.549   8.842   6.099
22074WAT     H266465   4.609   8.950   5.992
22075WAT      O66466   9.370   8.785   5.354
22075WAT     H166467   9.449   8.755   5.300
22075WAT     H266468   9.385   8.762   5.451
22076WAT      O66469   1.158   0.610   3.875
22076WAT     H166470   1.150   0.516   3.907
22076WAT     H266471   1.117   0.618   3.784
22077WAT      O66472   3.435   6.914   0.249
22077WAT     H166473   3.393   6.989   0.198
22077WAT     H266474   3.432   6.933   0.347
22078WAT      O66475   8.813   7.112   4.994
22078WAT     H166476   8.796   7.136   5.090
22078WAT     H266477   8.820   7.012   4.986
22079WAT      O66478   1.412   6.586   6.449
22079WAT     H166479   1.320   6.549   6.466
22079WAT     H266480   1.465   6.519   6.397
22080WAT      O66481   2.658   6.206   9.525
22080WAT     H166482   2.682   6.125   9.473
22080WAT     H266483   2.705   6.286   9.487
22081WAT      O66484   0.777   4.527   4.692
22081WAT     H166485   0.818   4.592   4.628
22081WAT     H266486   0.715   4.576   4.754
22082WAT      O66487   9.811   5.690   0.098
22082WAT     H166488   9.807   5.666   0.195
22082WAT     H266489   9.771   5.616   0.044
22083WAT      O66490   5.337   5.073   0.579
22083WAT     H166491   5.418   5.112   0.624
22083WAT     H266492   5.339   5.096   0.482
22084WAT      O66493   1.515   3.415   9.853
22084WAT     H166494   1.463   3.338   9.817
22084WAT     H266495   1.610   3.387   9.868
22085WAT      O66496   0.711   9.675   3.549
22085WAT     H166497   0.623   9.703   3.510
22085WAT     H266498   0.782   9.738   3.519
22086WAT      O66499   9.740   4.877   0.185
22086WAT     H166500   9.679   4.925   0.123
22086WAT     H266501   9.830   4.868   0.143
22087WAT      O66502   2.219   6.522   1.198
22087WAT     H166503   2.293   6.568   1.246
22087WAT     H266504   2.243   6.512   1.102
22088WAT      O66505   5.774   6.613   0.143
22088WAT     H166506   5.797   6.582   0.051
22088WAT     H266507   5.817   6.701   0.161
22089WAT      O66508   0.289   8.929   2.181
22089WAT     H166509   0.337   9.014   2.205
22089WAT     H266510   0.353   8.868   2.134
22090WAT      O66511   7.819   0.267   2.847
22090WAT     H166512   7.882   0.241   2.774
22090WAT     H266513   7.837   0.212   2.928
22091WAT      O66514   6.979   3.653   9.056
22091WAT     H166515   6.918   3.592   9.107
22091WAT     H266516   6.936   3.678   8.969
22092WAT      O66517   7.689   1.577   2.920
22092WAT     H166518   7.759   1.548   2.986
22092WAT     H266519   7.715   1.664   2.879
22093WAT      O66520   7.196   6.553   7.052
22093WAT     H166521   7.119   6.489   7.057
22093WAT     H266522   7.282   6.502   7.061
22094WAT      O66523   4.462   4.088   7.424
22094WAT     H166524   4.365   4.083   7.401
22094WAT     H266525   4.516   4.089   7.340
22095WAT      O66526   1.335   8.757   2.864
22095WAT     H166527   1.336   8.772   2.963
22095WAT     H266528   1.240   8.757   2.832
22096WAT      O66529   0.649   9.243   8.970
22096WAT     H166530   0.651   9.312   8.898
22096WAT     H266531   0.574   9.263   9.034
22097WAT      O66532   5.885   4.851   4.451
22097WAT     H166533   5.855   4.778   4.512
22097WAT     H266534   5.846   4.938   4.480
22098WAT      O66535   5.201   8.209   9.397
22098WAT     H166536   5.108   8.174   9.394
22098WAT     H266537   5.245   8.195   9.309
22099WAT      O66538   1.351   1.507   0.779
22099WAT     H166539   1.259   1.470   0.786
22099WAT     H266540   1.372   1.525   0.683
22100WAT      O66541   3.527   6.449   5.569
22100WAT     H166542   3.498   6.541   5.543
22100WAT     H266543   3.526   6.440   5.668
22101WAT      O66544   7.549   7.587   6.351
22101WAT     H166545   7.559   7.611   6.255
22101WAT     H266546   7.489   7.653   6.396
22102WAT      O66547   2.629   7.188   3.017
22102WAT     H166548   2.726   7.207   3.005
22102WAT     H266549   2.615   7.126   3.095
22103WAT      O66550   3.137   3.744   4.517
22103WAT     H166551   3.192   3.826   4.496
22103WAT     H266552   3.194   3.663   4.506
22104WAT      O66553   5.101   5.507   0.368
22104WAT     H166554   5.116   5.457   0.453
22104WAT     H266555   5.128   5.602   0.379
22105WAT      O66556   7.226   9.410   6.939
22105WAT     H166557   7.294   9.402   7.012
22105WAT     H266558   7.271   9.394   6.851
22106WAT      O66559   5.742   0.868   4.703
22106WAT     H166560   5.710   0.913   4.620
22106WAT     H266561   5.807   0.928   4.750
22107WAT      O66562   1.818   0.273   4.669
22107WAT     H166563   1.788   0.199   4.730
22107WAT     H266564   1.755   0.279   4.591
22108WAT      O66565   4.675   9.193   5.211
22108WAT     H166566   4.591   9.163   5.257
22108WAT     H266567   4.666   9.180   5.113
22109WAT      O66568   3.889   2.252   7.032
22109WAT     H166569   3.971   2.286   7.078
22109WAT     H266570   3.823   2.327   7.022
22110WAT      O66571   3.525   8.002   9.287
22110WAT     H166572   3.605   8.045   9.327
22110WAT     H266573   3.471   8.070   9.238
22111WAT      O66574   5.125   0.969   0.947
22111WAT     H166575   5.219   0.996   0.967
22111WAT     H266576   5.072   0.969   1.032
22112WAT      O66577   6.321   8.037   6.312
22112WAT     H166578   6.305   8.020   6.215
22112WAT     H266579   6.337   8.134   6.327
22113WAT      O66580   3.628   1.057   5.439
22113WAT     H166581   3.575   1.108   5.371
22113WAT     H266582   3.571   0.984   5.477
22114WAT      O66583   6.624   4.484   5.960
22114WAT     H166584   6.693   4.445   6.021
22114WAT     H266585   6.667   4.511   5.874
22115WAT      O66586   9.420   4.692   1.959
22115WAT     H166587   9.458   4.621   1.900
22115WAT     H266588   9.323   4.675   1.974
22116WAT      O66589   6.605   4.234   9.342
22116WAT     H166590   6.582   4.279   9.256
22116WAT     H266591   6.540   4.160   9.360
22117WAT      O66592   7.535   9.355   3.936
22117WAT     H166593   7.483   9.286   3.885
22117WAT     H266594   7.631   9.353   3.908
22118WAT      O66595   0.564   0.973   7.487
22118WAT     H166596   0.516   0.918   7.556
22118WAT     H266597   0.497   1.022   7.432
22119WAT      O66598   0.689   9.175   4.053
22119WAT     H166599   0.601   9.176   4.005
22119WAT     H266600   0.714   9.268   4.079
22120WAT      O66601   2.843   2.993   5.385
22120WAT     H166602   2.786   3.022   5.462
22120WAT     H266603   2.816   2.902   5.355
22121WAT      O66604   1.562   1.356   9.770
22121WAT     H166605   1.518   1.335   9.682
22121WAT     H266606   1.661   1.342   9.761
22122WAT      O66607   4.763   5.764   0.756
22122WAT     H166608   4.812   5.677   0.764
22122WAT     H266609   4.700   5.759   0.679
22123WAT      O66610   3.662   2.970   6.337
22123WAT     H166611   3.732   2.979   6.267
22123WAT     H266612   3.701   2.925   6.418
22124WAT      O66613   2.279   2.518   6.357
22124WAT     H166614   2.346   2.554   6.293
22124WAT     H266615   2.319   2.515   6.449
22125WAT      O66616   6.022   2.848   0.930
22125WAT     H166617   5.951   2.777   0.928
22125WAT     H266618   6.011   2.908   0.851
22126WAT      O66619   6.007   1.094   3.864
22126WAT     H166620   6.107   1.100   3.865
22126WAT     H266621   5.976   1.065   3.773
22127WAT      O66622   5.575   0.940   2.326
22127WAT     H166623   5.622   0.969   2.243
22127WAT     H266624   5.570   0.840   2.328
22128WAT      O66625   0.312   0.143   4.652
22128WAT     H166626   0.265   0.082   4.715
22128WAT     H266627   0.248   0.213   4.619
22129WAT      O66628   8.543   5.556   7.571
22129WAT     H166629   8.594   5.642   7.573
22129WAT     H266630   8.586   5.494   7.506
22130WAT      O66631   8.534   2.333   7.952
22130WAT     H166632   8.525   2.293   7.861
22130WAT     H266633   8.448   2.377   7.978
22131WAT      O66634   5.431   2.851   1.249
22131WAT     H166635   5.523   2.868   1.284
22131WAT     H266636   5.421   2.754   1.226
22132WAT      O66637   5.623   2.475   4.992
22132WAT     H166638   5.581   2.551   5.040
22132WAT     H266639   5.648   2.503   4.899
22133WAT      O66640   1.578   4.200   1.950
22133WAT     H166641   1.604   4.209   1.854
22133WAT     H266642   1.487   4.160   1.957
22134WAT      O66643   0.547   0.997   5.106
22134WAT     H166644   0.582   0.905   5.090
22134WAT     H266645   0.447   0.995   5.103
22135WAT      O66646   2.737   1.496   4.222
22135WAT     H166647   2.698   1.555   4.151
22135WAT     H266648   2.761   1.407   4.181
22136WAT      O66649   0.022   9.467   4.832
22136WAT     H166650   0.106   9.503   4.872
22136WAT     H266651  -0.024   9.540   4.780
22137WAT      O66652   5.695   9.650   2.605
22137WAT     H166653   5.767   9.658   2.536
22137WAT     H266654   5.727   9.593   2.681
22138WAT      O66655   6.203   4.622   6.370
22138WAT     H166656   6.141   4.698   6.391
22138WAT     H266657   6.152   4.536   6.369
22139WAT      O66658   1.297   3.431   1.620
22139WAT     H166659   1.323   3.336   1.641
22139WAT     H266660   1.211   3.431   1.570
22140WAT      O66661   2.837   9.695   8.021
22140WAT     H166662   2.858   9.766   8.088
22140WAT     H266663   2.870   9.607   8.055
22141WAT      O66664   6.058   4.388   6.364
22141WAT     H166665   6.143   4.358   6.320
22141WAT     H266666   5.987   4.319   6.349
22142WAT      O66667   0.903   5.345   5.774
22142WAT     H166668   0.861   5.426   5.733
22142WAT     H266669   0.904   5.356   5.874
22143WAT      O66670   6.810   1.780   0.348
22143WAT     H166671   6.755   1.749   0.426
22143WAT     H266672   6.807   1.711   0.276
22144WAT      O66673   3.919   8.850   2.007
22144WAT     H166674   3.987   8.917   1.977
22144WAT     H266675   3.838   8.855   1.948
22145WAT      O66676   3.956   5.268   2.975
22145WAT     H166677   3.932   5.184   3.024
22145WAT     H266678   3.950   5.346   3.038
22146WAT      O66679   7.124   7.385   9.795
22146WAT     H166680   7.143   7.481   9.818
22146WAT     H266681   7.127   7.330   9.879
22147WAT      O66682   7.102   6.352   1.427
22147WAT     H166683   7.004   6.363   1.441
22147WAT     H266684   7.146   6.329   1.513
22148WAT      O66685   0.624   1.355   8.342
22148WAT     H166686   0.576   1.321   8.261
22148WAT     H266687   0.639   1.453   8.333
22149WAT      O66688   9.084   8.362   4.134
22149WAT     H166689   9.050   8.346   4.227
22149WAT     H266690   9.128   8.279   4.100
22150WAT      O66691   5.565   5.576   3.640
22150WAT     H166692   5.470   5.575   3.672
22150WAT     H266693   5.608   5.663   3.666
22151WAT      O66694   7.257   1.346   1.550
22151WAT     H166695   7.168   1.376   1.585
22151WAT     H266696   7.273   1.386   1.460
22152WAT      O66697   2.521   1.516   8.048
22152WAT     H166698   2.603   1.484   8.000
22152WAT     H266699   2.439   1.482   8.001
22153WAT      O66700   4.440   9.426   0.545
22153WAT     H166701   4.373   9.363   0.505
22153WAT     H266702   4.505   9.374   0.601
22154WAT      O66703   7.493   4.091   5.572
22154WAT     H166704   7.584   4.068   5.608
22154WAT     H266705   7.498   4.179   5.524
22155WAT      O66706   6.728   0.376   3.954
22155WAT     H166707   6.807   0.335   3.909
22155WAT     H266708   6.760   0.447   4.017
22156WAT      O66709   2.031   7.837   0.529
22156WAT     H166710   2.016   7.914   0.467
22156WAT     H266711   2.060   7.757   0.476
22157WAT      O66712   0.742   2.658   3.669
22157WAT     H166713   0.759   2.580   3.608
22157WAT     H266714   0.668   2.714   3.632
22158WAT      O66715   3.688   6.464   6.720
22158WAT     H166716   3.764   6.458   6.785
22158WAT     H266717   3.658   6.559   6.712
22159WAT      O66718   1.148   3.582   3.161
22159WAT     H166719   1.059   3.604   3.121
22159WAT     H266720   1.218   3.642   3.121
22160WAT      O66721   2.788   9.327   9.213
22160WAT     H166722   2.710   9.322   9.275
22160WAT     H266723   2.770   9.394   9.141
22161WAT      O66724   0.753   5.344   2.990
22161WAT     H166725   0.670   5.295   2.963
22161WAT     H266726   0.770   5.419   2.925
22162WAT      O66727   1.503   7.429   5.729
22162WAT     H166728   1.602   7.424   5.741
22162WAT     H266729   1.466   7.337   5.716
22163WAT      O66730   3.272   5.412   1.416
22163WAT     H166731   3.179   5.434   1.386
22163WAT     H266732   3.288   5.314   1.408
22164WAT      O66733   6.198   1.503   3.955
22164WAT     H166734   6.249   1.585   3.981
22164WAT     H266735   6.262   1.432   3.926
22165WAT      O66736   3.526   6.941   6.102
22165WAT     H166737   3.576   7.016   6.059
22165WAT     H266738   3.487   6.973   6.189
22166WAT      O66739   4.452   4.545   5.729
22166WAT     H166740   4.537   4.562   5.779
22166WAT     H266741   4.443   4.447   5.710
22167WAT      O66742   8.471   0.183   7.666
22167WAT     H166743   8.486   0.104   7.726
22167WAT     H266744   8.414   0.250   7.713
22168WAT      O66745   7.321   6.674   6.605
22168WAT     H166746   7.242   6.660   6.664
22168WAT     H266747   7.373   6.589   6.599
22169WAT      O66748   5.071   7.141   5.048
22169WAT     H166749   5.040   7.057   5.093
22169WAT     H266750   5.058   7.133   4.949
22170WAT      O66751   6.388   0.606   8.710
22170WAT     H166752   6.293   0.588   8.686
22170WAT     H266753   6.409   0.564   8.798
22171WAT      O66754   5.406   1.035   9.114
22171WAT     H166755   5.401   1.135   9.114
22171WAT     H266756   5.499   1.007   9.089
22172WAT      O66757   6.271   0.536   6.197
22172WAT     H166758   6.371   0.537   6.198
22172WAT     H266759   6.237   0.521   6.290
22173WAT      O66760   8.003   5.628   7.234
22173WAT     H166761   8.044   5.635   7.325
22173WAT     H266762   7.908   5.598   7.242
22174WAT      O66763   8.377   0.243   8.386
22174WAT     H166764   8.452   0.176   8.388
22174WAT     H266765   8.389   0.308   8.461
22175WAT      O66766   5.349   8.976   8.158
22175WAT     H166767   5.290   8.956   8.080
22175WAT     H266768   5.301   9.037   8.221
22176WAT      O66769   7.390   8.395   4.193
22176WAT     H166770   7.356   8.377   4.100
22176WAT     H266771   7.341   8.338   4.258
22177WAT      O66772   9.442   5.730   6.710
22177WAT     H166773   9.412   5.731   6.805
22177WAT     H266774   9.542   5.733   6.706
22178WAT      O66775   5.480   5.692   1.185
22178WAT     H166776   5.553   5.759   1.169
22178WAT     H266777   5.458   5.690   1.283
22179WAT      O66778   8.991   2.961   1.765
22179WAT     H166779   9.024   2.971   1.859
22179WAT     H266780   9.003   2.866   1.735
22180WAT      O66781   1.344   3.511   8.089
22180WAT     H166782   1.426   3.555   8.052
22180WAT     H266783   1.360   3.412   8.096
22181WAT      O66784   9.011   1.859   6.481
22181WAT     H166785   9.038   1.825   6.391
22181WAT     H266786   9.077   1.928   6.511
22182WAT      O66787   7.265   4.307   7.085
22182WAT     H166788   7.167   4.310   7.103
22182WAT     H266789   7.307   4.393   7.112
22183WAT      O66790   8.539   5.186   7.701
22183WAT     H166791   8.511   5.278   7.731
22183WAT     H266792   8.505   5.169   7.609
22184WAT      O66793   7.997   8.489   0.227
22184WAT     H166794   7.967   8.566   0.171
22184WAT     H266795   7.934   8.413   0.216
22185WAT      O66796   1.020   4.570   5.031
22185WAT     H166797   1.003   4.483   4.984
22185WAT     H266798   0.978   4.567   5.122
22186WAT      O66799   2.743   7.271   1.183
22186WAT     H166800   2.667   7.334   1.164
22186WAT     H266801   2.749   7.203   1.110
22187WAT      O66802   8.637   9.251   7.235
22187WAT     H166803   8.542   9.278   7.217
22187WAT     H266804   8.695   9.332   7.233
22188WAT      O66805   6.816   4.989   8.194
22188WAT     H166806   6.724   5.007   8.228
22188WAT     H266807   6.872   4.950   8.267
22189WAT      O66808   3.082   3.326   4.308
22189WAT     H166809   3.146   3.399   4.333
22189WAT     H266810   3.061   3.271   4.389
22190WAT      O66811   6.304   6.432   3.438
22190WAT     H166812   6.377   6.364   3.434
22190WAT     H266813   6.236   6.412   3.366
22191WAT      O66814   2.081   2.774   2.597
22191WAT     H166815   2.065   2.829   2.679
22191WAT     H266816   2.012   2.796   2.528
22192WAT      O66817   4.726   0.738   9.774
22192WAT     H166818   4.756   0.651   9.814
22192WAT     H266819   4.629   0.734   9.753
22193WAT      O66820   4.621   6.830   8.128
22193WAT     H166821   4.670   6.856   8.212
22193WAT     H266822   4.565   6.907   8.098
22194WAT      O66823   2.320   6.291   6.600
22194WAT     H166824   2.385   6.366   6.609
22194WAT     H266825   2.245   6.319   6.539
22195WAT      O66826   7.863   6.676   2.282
22195WAT     H166827   7.898   6.767   2.302
22195WAT     H266828   7.823   6.675   2.190
22196WAT      O66829   8.776   5.382   5.147
22196WAT     H166830   8.796   5.362   5.243
22196WAT     H266831   8.772   5.297   5.095
22197WAT      O66832   2.660   5.429   0.850
22197WAT     H166833   2.648   5.518   0.893
22197WAT     H266834   2.573   5.398   0.811
22198WAT      O66835   6.306   7.771   7.126
22198WAT     H166836   6.245   7.840   7.086
22198WAT     H266837   6.303   7.780   7.226
22199WAT      O66838   9.250   6.303   8.968
22199WAT     H166839   9.178   6.358   8.927
22199WAT     H266840   9.250   6.212   8.926
22200WAT      O66841   0.607   9.767   7.313
22200WAT     H166842   0.656   9.747   7.398
22200WAT     H266843   0.638   9.855   7.277
22201WAT      O66844   4.767   0.467   8.893
22201WAT     H166845   4.746   0.463   8.990
22201WAT     H266846   4.687   0.501   8.843
22202WAT      O66847   0.466   0.475   1.792
22202WAT     H166848   0.551   0.423   1.782
22202WAT     H266849   0.483   0.571   1.769
22203WAT      O66850   8.814   4.444   3.224
22203WAT     H166851   8.719   4.470   3.245
22203WAT     H266852   8.815   4.351   3.187
22204WAT      O66853   8.878   3.385   9.634
22204WAT     H166854   8.863   3.391   9.536
22204WAT     H266855   8.868   3.290   9.664
22205WAT      O66856   0.466   0.625   4.490
22205WAT     H166857   0.422   0.690   4.552
22205WAT     H266858   0.490   0.671   4.405
22206WAT      O66859   1.522   9.112   3.090
22206WAT     H166860   1.570   9.031   3.125
22206WAT     H266861   1.588   9.185   3.073
22207WAT      O66862   9.665   4.113   8.834
22207WAT     H166863   9.655   4.015   8.820
22207WAT     H266864   9.575   4.153   8.852
22208WAT      O66865   7.740   9.162   6.369
22208WAT     H166866   7.693   9.074   6.374
22208WAT     H266867   7.828   9.155   6.414
22209WAT      O66868   6.041   8.202   9.896
22209WAT     H166869   6.024   8.120   9.841
22209WAT     H266870   6.007   8.283   9.849
22210WAT      O66871   6.396   0.796   3.185
22210WAT     H166872   6.461   0.724   3.208
22210WAT     H266873   6.434   0.853   3.112
22211WAT      O66874   3.104   3.932   7.396
22211WAT     H166875   3.191   3.964   7.357
22211WAT     H266876   3.083   3.842   7.359
22212WAT      O66877   3.153   7.352   2.764
22212WAT     H166878   3.143   7.340   2.863
22212WAT     H266879   3.071   7.317   2.718
22213WAT      O66880   5.800   4.937   1.937
22213WAT     H166881   5.894   4.954   1.965
22213WAT     H266882   5.743   5.015   1.962
22214WAT      O66883   7.779   9.448   0.997
22214WAT     H166884   7.847   9.375   0.989
22214WAT     H266885   7.738   9.466   0.908
22215WAT      O66886   9.132   3.961   4.420
22215WAT     H166887   9.066   4.034   4.399
22215WAT     H266888   9.215   3.974   4.365
22216WAT      O66889   1.058   3.873   6.179
22216WAT     H166890   1.129   3.909   6.119
22216WAT     H266891   1.091   3.789   6.223
22217WAT      O66892   9.234   6.136   3.733
22217WAT     H166893   9.290   6.093   3.662
22217WAT     H266894   9.140   6.105   3.726
22218WAT      O66895   7.642   9.237   0.162
22218WAT     H166896   7.714   9.268   0.225
22218WAT     H266897   7.620   9.141   0.181
22219WAT      O66898   2.568   2.467   6.800
22219WAT     H166899   2.637   2.529   6.837
22219WAT     H266900   2.504   2.441   6.872
22220WAT      O66901   5.842   2.320   4.543
22220WAT     H166902   5.879   2.386   4.609
22220WAT     H266903   5.815   2.237   4.591
22221WAT      O66904   2.104   9.210   7.010
22221WAT     H166905   2.093   9.220   7.109
22221WAT     H266906   2.044   9.138   6.977
22222WAT      O66907   8.364   4.342   7.554
22222WAT     H166908   8.377   4.247   7.582
22222WAT     H266909   8.418   4.402   7.613
22223WAT      O66910   9.855   7.968   3.076
22223WAT     H166911   9.790   7.895   3.096
22223WAT     H266912   9.822   8.021   2.998
22224WAT      O66913   5.362   5.581   3.207
22224WAT     H166914   5.360   5.669   3.255
22224WAT     H266915   5.424   5.587   3.129
22225WAT      O66916   8.931   1.779   0.033
22225WAT     H166917   8.950   1.755   0.129
22225WAT     H266918   9.015   1.776  -0.020
22226WAT      O66919   5.838   4.193   8.179
22226WAT     H166920   5.898   4.205   8.100
22226WAT     H266921   5.760   4.137   8.153
22227WAT      O66922   5.707   8.793   0.080
22227WAT     H166923   5.742   8.839  -0.002
22227WAT     H266924   5.691   8.696   0.059
22228WAT      O66925   8.829   1.750   6.169
22228WAT     H166926   8.833   1.847   6.149
22228WAT     H266927   8.783   1.736   6.257
22229WAT      O66928   0.369   4.934   4.951
22229WAT     H166929   0.395   4.849   4.996
22229WAT     H266930   0.408   5.011   5.001
22230WAT      O66931   5.054   8.182   2.884
22230WAT     H166932   4.990   8.160   2.811
22230WAT     H266933   5.079   8.098   2.932
22231WAT      O66934   5.320   1.159   9.784
22231WAT     H166935   5.243   1.102   9.755
22231WAT     H266936   5.287   1.233   9.842
22232WAT      O66937   8.132   6.884   8.030
22232WAT     H166938   8.220   6.922   8.003
22232WAT     H266939   8.134   6.860   8.127
22233WAT      O66940   0.479   8.514   7.836
22233WAT     H166941   0.538   8.563   7.902
22233WAT     H266942   0.385   8.547   7.846
22234WAT      O66943   7.286   9.526   1.532
22234WAT     H166944   7.243   9.599   1.478
22234WAT     H266945   7.340   9.468   1.471
22235WAT      O66946   4.663   9.152   7.358
22235WAT     H166947   4.694   9.215   7.429
22235WAT     H266948   4.643   9.203   7.275
22236WAT      O66949   1.182   2.744   1.152
22236WAT     H166950   1.128   2.746   1.236
22236WAT     H266951   1.122   2.736   1.073
22237WAT      O66952   8.692   1.219   1.374
22237WAT     H166953   8.747   1.300   1.353
22237WAT     H266954   8.660   1.178   1.288
22238WAT      O66955   4.742   0.039   6.156
22238WAT     H166956   4.712   0.037   6.251
22238WAT     H266957   4.757   0.134   6.128
22239WAT      O66958   5.010   5.351   8.808
22239WAT     H166959   5.085   5.342   8.742
22239WAT     H266960   5.022   5.434   8.862
22240WAT      O66961   0.343   2.556   3.221
22240WAT     H166962   0.416   2.569   3.288
22240WAT     H266963   0.383   2.528   3.133
22241WAT      O66964   6.589   0.287   9.647
22241WAT     H166965   6.658   0.347   9.689
22241WAT     H266966   6.559   0.220   9.714
22242WAT      O66967   4.900   2.297   6.193
22242WAT     H166968   4.809   2.336   6.205
22242WAT     H266969   4.942   2.335   6.111
22243WAT      O66970   5.024   3.238   5.931
22243WAT     H166971   5.077   3.306   5.881
22243WAT     H266972   5.086   3.182   5.986
22244WAT      O66973   7.302   1.462   2.475
22244WAT     H166974   7.381   1.443   2.417
22244WAT     H266975   7.257   1.546   2.443
22245WAT      O66976   9.011   1.297   4.932
22245WAT     H166977   9.090   1.334   4.882
22245WAT     H266978   9.007   1.339   5.023
22246WAT      O66979   2.078   4.365   1.717
22246WAT     H166980   2.075   4.434   1.789
22246WAT     H266981   2.056   4.407   1.629
22247WAT      O66982   3.274   3.505   5.244
22247WAT     H166983   3.181   3.470   5.254
22247WAT     H266984   3.284   3.589   5.298
22248WAT      O66985   5.760   9.189   1.730
22248WAT     H166986   5.739   9.109   1.786
22248WAT     H266987   5.782   9.158   1.637
22249WAT      O66988   8.845   8.101   5.163
22249WAT     H166989   8.843   8.047   5.247
22249WAT     H266990   8.922   8.072   5.106
22250WAT      O66991   0.029   7.588   6.627
22250WAT     H166992   0.081   7.564   6.545
22250WAT     H266993   0.093   7.597   6.704
22251WAT      O66994   6.447   5.723   9.510
22251WAT     H166995   6.475   5.810   9.470
22251WAT     H266996   6.449   5.652   9.441
22252WAT      O66997   5.429   9.769   8.888
22252WAT     H166998   5.453   9.710   8.966
22252WAT     H266999   5.340   9.740   8.851
22253WAT      O67000   2.941   0.477   5.538
22253WAT     H167001   2.879   0.493   5.461
22253WAT     H267002   2.996   0.395   5.519
22254WAT      O67003   9.423   5.210   2.950
22254WAT     H167004   9.355   5.263   2.899
22254WAT     H267005   9.378   5.131   2.993
22255WAT      O67006   9.740   6.465   9.859
22255WAT     H167007   9.809   6.529   9.826
22255WAT     H267008   9.722   6.482   9.956
22256WAT      O67009   2.722   4.268   9.068
22256WAT     H167010   2.740   4.187   9.125
22256WAT     H267011   2.649   4.322   9.109
22257WAT      O67012   3.271   4.092   9.673
22257WAT     H167013   3.341   4.160   9.694
22257WAT     H267014   3.231   4.058   9.758
22258WAT      O67015   0.394   9.156   2.263
22258WAT     H167016   0.444   9.217   2.202
22258WAT     H267017   0.357   9.209   2.340
22259WAT      O67018   9.465   6.680   2.544
22259WAT     H167019   9.388   6.676   2.480
22259WAT     H267020   9.547   6.712   2.496
22260WAT      O67021   7.266   5.600   8.440
22260WAT     H167022   7.346   5.559   8.395
22260WAT     H267023   7.265   5.573   8.536
22261WAT      O67024   1.890   9.249   8.628
22261WAT     H167025   1.836   9.186   8.684
22261WAT     H267026   1.855   9.248   8.534
22262WAT      O67027   9.760   2.013   6.380
22262WAT     H167028   9.707   2.031   6.297
22262WAT     H267029   9.760   1.915   6.398
22263WAT      O67030   9.537   4.952   4.837
22263WAT     H167031   9.478   4.986   4.763
22263WAT     H267032   9.507   4.860   4.862
22264WAT      O67033   4.401   5.682   2.585
22264WAT     H167034   4.324   5.746   2.584
22264WAT     H267035   4.409   5.642   2.676
22265WAT      O67036   1.133   9.421   7.655
22265WAT     H167037   1.213   9.470   7.620
22265WAT     H267038   1.162   9.356   7.725
22266WAT      O67039   0.134   4.351   0.089
22266WAT     H167040   0.102   4.440   0.057
22266WAT     H267041   0.165   4.358   0.184
22267WAT      O67042   4.518   9.760   1.128
22267WAT     H167043   4.444   9.771   1.196
22267WAT     H267044   4.600   9.727   1.174
22268WAT      O67045   7.711   7.329   9.034
22268WAT     H167046   7.696   7.288   8.944
22268WAT     H267047   7.624   7.356   9.074
22269WAT      O67048   8.800   3.762   4.204
22269WAT     H167049   8.774   3.669   4.180
22269WAT     H267050   8.781   3.823   4.127
22270WAT      O67051   4.621   8.260   9.759
22270WAT     H167052   4.605   8.357   9.741
22270WAT     H267053   4.535   8.210   9.749
22271WAT      O67054   0.426   2.059   4.288
22271WAT     H167055   0.524   2.040   4.291
22271WAT     H267056   0.375   1.978   4.318
22272WAT      O67057   0.497   0.858   6.658
22272WAT     H167058   0.449   0.781   6.615
22272WAT     H267059   0.443   0.941   6.649
22273WAT      O67060   9.198   9.492   4.522
22273WAT     H167061   9.285   9.453   4.552
22273WAT     H267062   9.126   9.468   4.587
22274WAT      O67063   2.907   4.246   0.564
22274WAT     H167064   2.952   4.318   0.617
22274WAT     H267065   2.967   4.167   0.557
22275WAT      O67066   0.689   1.645   8.299
22275WAT     H167067   0.713   1.725   8.354
22275WAT     H267068   0.763   1.626   8.235
22276WAT      O67069   0.291   5.775   9.870
22276WAT     H167070   0.202   5.812   9.897
22276WAT     H267071   0.316   5.701   9.932
22277WAT      O67072   4.438   5.522   2.359
22277WAT     H167073   4.437   5.592   2.430
22277WAT     H267074   4.369   5.453   2.380
22278WAT      O67075   6.127   5.880   1.238
22278WAT     H167076   6.223   5.853   1.244
22278WAT     H267077   6.080   5.855   1.323
22279WAT      O67078   7.934   0.819   6.643
22279WAT     H167079   7.937   0.875   6.560
22279WAT     H267080   8.027   0.808   6.679
22280WAT      O67081   3.357   4.309   8.626
22280WAT     H167082   3.284   4.325   8.691
22280WAT     H267083   3.349   4.217   8.588
22281WAT      O67084   3.191   5.003   6.183
22281WAT     H167085   3.231   4.940   6.116
22281WAT     H267086   3.222   5.096   6.164
22282WAT      O67087   5.062   8.892   0.840
22282WAT     H167088   5.124   8.858   0.770
22282WAT     H267089   5.075   8.840   0.925
22283WAT      O67090   3.709   0.810   6.211
22283WAT     H167091   3.646   0.768   6.147
22283WAT     H267092   3.663   0.826   6.298
22284WAT      O67093   7.089   4.758   9.362
22284WAT     H167094   7.100   4.850   9.399
22284WAT     H267095   7.156   4.743   9.289
22285WAT      O67096   4.429   0.255   0.995
22285WAT     H167097   4.377   0.261   0.909
22285WAT     H267098   4.369   0.220   1.067
22286WAT      O67099   5.120   5.452   6.200
22286WAT     H167100   5.086   5.525   6.140
22286WAT     H267101   5.198   5.486   6.253
22287WAT      O67102   5.091   1.659   9.327
22287WAT     H167103   5.094   1.737   9.390
22287WAT     H267104   5.018   1.596   9.356
22288WAT      O67105   9.878   3.769   4.205
22288WAT     H167106   9.785   3.733   4.216
22288WAT     H267107   9.893   3.844   4.269
22289WAT      O67108   6.577   8.057   0.699
22289WAT     H167109   6.632   8.086   0.620
22289WAT     H267110   6.508   7.992   0.669
22290WAT      O67111   1.779   0.533   9.810
22290WAT     H167112   1.851   0.577   9.756
22290WAT     H267113   1.801   0.436   9.820
22291WAT      O67114   8.910   0.033   0.955
22291WAT     H167115   8.899   0.131   0.967
22291WAT     H267116   8.821  -0.012   0.961
22292WAT      O67117   0.397   1.441   0.096
22292WAT     H167118   0.301   1.436   0.125
22292WAT     H267119   0.456   1.411   0.170
22293WAT      O67120   8.006   2.966   9.072
22293WAT     H167121   8.066   2.893   9.039
22293WAT     H267122   8.059   3.031   9.126
22294WAT      O67123   5.250   7.181   3.187
22294WAT     H167124   5.234   7.100   3.131
22294WAT     H267125   5.327   7.164   3.249
22295WAT      O67126   2.024   8.444   6.474
22295WAT     H167127   1.995   8.535   6.443
22295WAT     H267128   1.948   8.380   6.467
22296WAT      O67129   7.559   2.748   7.877
22296WAT     H167130   7.532   2.653   7.859
22296WAT     H267131   7.479   2.807   7.873
22297WAT      O67132   4.471   1.558   1.288
22297WAT     H167133   4.431   1.533   1.199
22297WAT     H267134   4.402   1.604   1.344
22298WAT      O67135   5.538   8.784   7.537
22298WAT     H167136   5.527   8.835   7.451
22298WAT     H267137   5.517   8.688   7.521
22299WAT      O67138   7.049   6.124   3.577
22299WAT     H167139   7.024   6.212   3.617
22299WAT     H267140   7.007   6.051   3.630
22300WAT      O67141   9.708   0.015   4.679
22300WAT     H167142   9.657   0.047   4.600
22300WAT     H267143   9.745   0.094   4.729
22301WAT      O67144   1.483   9.133   8.878
22301WAT     H167145   1.386   9.154   8.867
22301WAT     H267146   1.497   9.089   8.967
22302WAT      O67147   0.120   2.052   0.782
22302WAT     H167148   0.138   2.110   0.703
22302WAT     H267149   0.201   1.998   0.803
22303WAT      O67150   4.351   4.160   0.333
22303WAT     H167151   4.376   4.221   0.257
22303WAT     H267152   4.263   4.187   0.370
22304WAT      O67153   5.801   6.315   1.147
22304WAT     H167154   5.729   6.332   1.214
22304WAT     H267155   5.763   6.322   1.055
22305WAT      O67156   0.025   7.982   3.878
22305WAT     H167157  -0.043   7.920   3.916
22305WAT     H267158  -0.021   8.058   3.833
22306WAT      O67159   7.034   3.583   7.959
22306WAT     H167160   7.001   3.617   8.047
22306WAT     H267161   6.957   3.543   7.908
22307WAT      O67162   5.691   2.652   2.722
22307WAT     H167163   5.673   2.585   2.794
22307WAT     H267164   5.622   2.724   2.726
22308WAT      O67165   2.008   2.513   8.634
22308WAT     H167166   2.062   2.444   8.585
22308WAT     H267167   1.911   2.500   8.613
22309WAT      O67168   5.510   0.543   0.238
22309WAT     H167169   5.595   0.595   0.228
22309WAT     H267170   5.434   0.593   0.197
22310WAT      O67171   4.904   8.054   5.401
22310WAT     H167172   4.831   8.122   5.396
22310WAT     H267173   4.871   7.973   5.449
22311WAT      O67174   9.027   0.475   9.828
22311WAT     H167175   8.957   0.445   9.764
22311WAT     H267176   9.059   0.396   9.882
22312WAT      O67177   3.994   4.082   1.905
22312WAT     H167178   3.951   4.109   1.819
22312WAT     H267179   4.009   3.983   1.905
22313WAT      O67180   4.461   5.572   4.524
22313WAT     H167181   4.432   5.531   4.438
22313WAT     H267182   4.475   5.501   4.592
22314WAT      O67183   2.199   7.163   1.374
22314WAT     H167184   2.247   7.079   1.350
22314WAT     H267185   2.209   7.180   1.472
22315WAT      O67186   9.657   0.597   6.643
22315WAT     H167187   9.586   0.571   6.709
22315WAT     H267188   9.742   0.615   6.691
22316WAT      O67189   7.473   3.579   7.384
22316WAT     H167190   7.410   3.576   7.461
22316WAT     H267191   7.454   3.503   7.322
22317WAT      O67192   2.712   7.932   6.888
22317WAT     H167193   2.662   7.848   6.909
22317WAT     H267194   2.809   7.920   6.910
22318WAT      O67195   5.003   8.348   2.203
22318WAT     H167196   5.083   8.374   2.257
22318WAT     H267197   5.014   8.255   2.169
22319WAT      O67198   4.891   0.126   5.333
22319WAT     H167199   4.839   0.117   5.417
22319WAT     H267200   4.988   0.110   5.352
22320WAT      O67201   7.174   8.034   9.703
22320WAT     H167202   7.123   7.988   9.630
22320WAT     H267203   7.110   8.067   9.772
22321WAT      O67204   2.500   8.842   5.682
22321WAT     H167205   2.547   8.895   5.611
22321WAT     H267206   2.472   8.904   5.756
22322WAT      O67207   7.497   6.073   9.349
22322WAT     H167208   7.462   6.115   9.265
22322WAT     H267209   7.491   6.139   9.424
22323WAT      O67210   7.931   7.775   9.661
22323WAT     H167211   7.996   7.851   9.669
22323WAT     H267212   7.981   7.689   9.655
22324WAT      O67213   6.625   1.724   0.875
22324WAT     H167214   6.683   1.642   0.871
22324WAT     H267215   6.535   1.699   0.908
22325WAT      O67216   5.274   5.991   2.503
22325WAT     H167217   5.216   5.928   2.451
22325WAT     H267218   5.249   6.085   2.483
22326WAT      O67219   2.889   0.508   2.506
22326WAT     H167220   2.891   0.431   2.569
22326WAT     H267221   2.878   0.593   2.558
22327WAT      O67222   6.249   3.455   8.910
22327WAT     H167223   6.301   3.540   8.922
22327WAT     H267224   6.200   3.458   8.823
22328WAT      O67225   6.425   3.885   4.460
22328WAT     H167226   6.513   3.877   4.505
22328WAT     H267227   6.366   3.947   4.512
22329WAT      O67228   1.769   8.982   0.572
22329WAT     H167229   1.757   8.987   0.671
22329WAT     H267230   1.847   8.923   0.551
22330WAT      O67231   6.215   6.647   3.807
22330WAT     H167232   6.178   6.735   3.778
22330WAT     H267233   6.296   6.663   3.864
22331WAT      O67234   6.039   3.270   5.449
22331WAT     H167235   6.005   3.240   5.539
22331WAT     H267236   6.023   3.198   5.382
22332WAT      O67237   1.996   8.742   3.983
22332WAT     H167238   1.915   8.800   3.973
22332WAT     H267239   2.044   8.738   3.896
22333WAT      O67240   4.297   1.194   7.034
22333WAT     H167241   4.351   1.269   7.071
22333WAT     H267242   4.353   1.140   6.971
22334WAT      O67243   8.084   2.719   4.894
22334WAT     H167244   8.001   2.665   4.882
22334WAT     H267245   8.160   2.675   4.847
22335WAT      O67246   1.187   4.861   3.573
22335WAT     H167247   1.181   4.764   3.597
22335WAT     H267248   1.144   4.876   3.484
22336WAT      O67249   9.868   9.204   3.331
22336WAT     H167250   9.819   9.183   3.415
22336WAT     H267251   9.855   9.300   3.307
22337WAT      O67252   1.562   2.026   4.251
22337WAT     H167253   1.521   2.001   4.163
22337WAT     H267254   1.622   1.953   4.282
22338WAT      O67255   7.308   5.594   0.462
22338WAT     H167256   7.407   5.595   0.443
22338WAT     H267257   7.277   5.500   0.471
22339WAT      O67258   4.266   9.207   8.840
22339WAT     H167259   4.313   9.190   8.926
22339WAT     H267260   4.250   9.305   8.829
22340WAT      O67261   5.131   8.807   4.751
22340WAT     H167262   5.191   8.728   4.754
22340WAT     H267263   5.182   8.888   4.721
22341WAT      O67264   0.150   2.143   7.473
22341WAT     H167265   0.229   2.165   7.415
22341WAT     H267266   0.167   2.057   7.520
22342WAT      O67267   8.244   9.414   3.786
22342WAT     H167268   8.263   9.511   3.771
22342WAT     H267269   8.164   9.387   3.731
22343WAT      O67270   6.361   5.172   6.070
22343WAT     H167271   6.350   5.162   5.971
22343WAT     H267272   6.458   5.180   6.093
22344WAT      O67273   9.046   6.128   0.810
22344WAT     H167274   9.090   6.214   0.836
22344WAT     H267275   9.109   6.074   0.755
22345WAT      O67276   2.187   8.338   8.068
22345WAT     H167277   2.228   8.397   8.137
22345WAT     H267278   2.137   8.263   8.113
22346WAT      O67279   7.872   9.037   7.475
22346WAT     H167280   7.826   9.125   7.461
22346WAT     H267281   7.970   9.047   7.455
22347WAT      O67282   5.240   6.272   3.393
22347WAT     H167283   5.190   6.358   3.385
22347WAT     H267284   5.255   6.234   3.302
22348WAT      O67285   4.198   2.580   6.290
22348WAT     H167286   4.237   2.602   6.379
22348WAT     H267287   4.103   2.551   6.302
22349WAT      O67288   6.389   0.306   7.848
22349WAT     H167289   6.348   0.342   7.931
22349WAT     H267290   6.402   0.207   7.858
22350WAT      O67291   4.078   8.795   7.209
22350WAT     H167292   3.993   8.779   7.158
22350WAT     H267293   4.056   8.814   7.304
22351WAT      O67294   1.022   4.807   4.917
22351WAT     H167295   1.119   4.829   4.916
22351WAT     H267296   1.008   4.718   4.958
22352WAT      O67297   5.897   1.542   7.258
22352WAT     H167298   5.894   1.613   7.329
22352WAT     H267299   5.968   1.564   7.192
22353WAT      O67300   8.756   9.317   8.653
22353WAT     H167301   8.704   9.314   8.738
22353WAT     H267302   8.752   9.409   8.614
22354WAT      O67303   1.323   6.124   8.739
22354WAT     H167304   1.340   6.042   8.684
22354WAT     H267305   1.313   6.203   8.678
22355WAT      O67306   5.836   5.168   7.013
22355WAT     H167307   5.849   5.199   7.107
22355WAT     H267308   5.741   5.139   7.000
22356WAT      O67309   5.827   5.398   4.648
22356WAT     H167310   5.853   5.492   4.671
22356WAT     H267311   5.772   5.359   4.722
22357WAT      O67312   8.825   8.724   3.512
22357WAT     H167313   8.881   8.804   3.532
22357WAT     H267314   8.736   8.754   3.476
22358WAT      O67315   4.917   3.647   7.354
22358WAT     H167316   4.944   3.580   7.285
22358WAT     H267317   4.837   3.697   7.322
22359WAT      O67318   2.359   8.120   0.802
22359WAT     H167319   2.372   8.163   0.712
22359WAT     H267320   2.278   8.061   0.799
22360WAT      O67321   4.186   5.741   4.482
22360WAT     H167322   4.219   5.656   4.439
22360WAT     H267323   4.258   5.780   4.539
22361WAT      O67324   2.820   3.960   7.183
22361WAT     H167325   2.742   3.903   7.155
22361WAT     H267326   2.905   3.918   7.151
22362WAT      O67327   8.369   8.615   0.912
22362WAT     H167328   8.345   8.710   0.930
22362WAT     H267329   8.290   8.557   0.929
22363WAT      O67330   3.982   1.192   6.515
22363WAT     H167331   3.889   1.224   6.529
22363WAT     H267332   4.046   1.261   6.549
22364WAT      O67333   1.772   4.283   4.725
22364WAT     H167334   1.842   4.266   4.655
22364WAT     H267335   1.770   4.207   4.790
22365WAT      O67336   9.543   8.652   6.406
22365WAT     H167337   9.579   8.613   6.491
22365WAT     H267338   9.580   8.601   6.328
22366WAT      O67339   9.779   8.294   4.227
22366WAT     H167340   9.876   8.310   4.243
22366WAT     H267341   9.745   8.359   4.160
22367WAT      O67342   1.384   2.939   1.111
22367WAT     H167343   1.302   2.883   1.127
22367WAT     H267344   1.461   2.900   1.162
22368WAT      O67345   2.499   5.307   5.304
22368WAT     H167346   2.590   5.310   5.262
22368WAT     H267347   2.475   5.213   5.325
22369WAT      O67348   0.820   3.613   9.612
22369WAT     H167349   0.866   3.622   9.700
22369WAT     H267350   0.866   3.542   9.558
22370WAT      O67351   0.957   6.040   1.670
22370WAT     H167352   0.953   6.040   1.770
22370WAT     H267353   0.876   6.086   1.633
22371WAT      O67354   3.014   8.648   0.599
22371WAT     H167355   3.034   8.556   0.633
22371WAT     H267356   3.056   8.661   0.509
22372WAT      O67357   0.154   4.194   6.124
22372WAT     H167358   0.204   4.198   6.038
22372WAT     H267359   0.177   4.274   6.180
22373WAT      O67360   1.071   3.558   6.004
22373WAT     H167361   1.158   3.531   6.047
22373WAT     H267362   1.003   3.575   6.076
22374WAT      O67363   9.562   8.986   2.044
22374WAT     H167364   9.504   9.063   2.016
22374WAT     H267365   9.516   8.933   2.114
22375WAT      O67366   2.535   7.989   3.246
22375WAT     H167367   2.540   7.912   3.310
22375WAT     H267368   2.606   7.979   3.176
22376WAT      O67369   8.552   3.280   6.475
22376WAT     H167370   8.525   3.193   6.516
22376WAT     H267371   8.474   3.343   6.476
22377WAT      O67372   6.140   2.434   6.628
22377WAT     H167373   6.174   2.455   6.536
22377WAT     H267374   6.083   2.353   6.624
22378WAT      O67375   9.821   8.804   7.082
22378WAT     H167376   9.809   8.872   7.154
22378WAT     H267377   9.917   8.800   7.055
22379WAT      O67378   0.902   1.307   3.914
22379WAT     H167379   0.887   1.259   3.827
22379WAT     H267380   0.836   1.274   3.981
22380WAT      O67381   4.482   2.773   3.073
22380WAT     H167382   4.555   2.841   3.059
22380WAT     H267383   4.412   2.785   3.002
22381WAT      O67384   0.347   1.488   5.574
22381WAT     H167385   0.349   1.525   5.667
22381WAT     H267386   0.398   1.549   5.513
22382WAT      O67387   7.000   8.881   7.590
22382WAT     H167388   7.034   8.803   7.538
22382WAT     H267389   7.076   8.926   7.637
22383WAT      O67390   2.703   6.228   0.046
22383WAT     H167391   2.720   6.300   0.113
22383WAT     H267392   2.772   6.234  -0.027
22384WAT      O67393   7.793   3.445   8.274
22384WAT     H167394   7.813   3.502   8.353
22384WAT     H267395   7.772   3.352   8.304
22385WAT      O67396   7.081   3.813   0.935
22385WAT     H167397   7.059   3.715   0.942
22385WAT     H267398   7.136   3.840   1.014
22386WAT      O67399   7.509   5.187   9.717
22386WAT     H167400   7.584   5.155   9.776
22386WAT     H267401   7.423   5.180   9.766
22387WAT      O67402   9.429   4.861   4.455
22387WAT     H167403   9.425   4.930   4.527
22387WAT     H267404   9.386   4.897   4.373
22388WAT      O67405   4.889   6.814   1.295
22388WAT     H167406   4.822   6.741   1.304
22388WAT     H267407   4.905   6.833   1.198
22389WAT      O67408   7.996   7.690   3.018
22389WAT     H167409   8.091   7.678   2.990
22389WAT     H267410   7.935   7.651   2.948
22390WAT      O67411   1.462   4.430   5.507
22390WAT     H167412   1.477   4.425   5.606
22390WAT     H267413   1.504   4.351   5.463
22391WAT      O67414   9.759   4.092   4.817
22391WAT     H167415   9.731   4.150   4.894
22391WAT     H267416   9.847   4.122   4.783
22392WAT      O67417   1.125   6.895   3.082
22392WAT     H167418   1.146   6.992   3.090
22392WAT     H267419   1.207   6.840   3.101
22393WAT      O67420   0.565   6.181   9.028
22393WAT     H167421   0.508   6.262   9.011
22393WAT     H267422   0.571   6.128   8.944
22394WAT      O67423   9.154   1.067   9.088
22394WAT     H167424   9.179   1.162   9.108
22394WAT     H267425   9.227   1.006   9.119
22395WAT      O67426   8.047   5.332   4.651
22395WAT     H167427   7.983   5.401   4.617
22395WAT     H267428   8.088   5.284   4.573
22396WAT      O67429   1.844   5.573   3.757
22396WAT     H167430   1.851   5.512   3.677
22396WAT     H267431   1.878   5.664   3.732
22397WAT      O67432   2.360   3.986   8.414
22397WAT     H167433   2.344   4.035   8.329
22397WAT     H267434   2.275   3.945   8.446
22398WAT      O67435   1.465   1.190   6.849
22398WAT     H167436   1.526   1.197   6.927
22398WAT     H267437   1.441   1.282   6.816
22399WAT      O67438   1.776   9.090   8.896
22399WAT     H167439   1.830   9.024   8.844
22399WAT     H267440   1.679   9.068   8.886
22400WAT      O67441   7.807   6.810   9.545
22400WAT     H167442   7.799   6.745   9.620
22400WAT     H267443   7.852   6.893   9.578
22401WAT      O67444   5.035   1.464   2.211
22401WAT     H167445   5.013   1.382   2.264
22401WAT     H267446   5.075   1.438   2.123
22402WAT      O67447   4.294   0.816   4.543
22402WAT     H167448   4.263   0.787   4.634
22402WAT     H267449   4.220   0.805   4.477
22403WAT      O67450   1.925   0.915   6.502
22403WAT     H167451   1.974   0.978   6.442
22403WAT     H267452   1.833   0.899   6.465
22404WAT      O67453   0.283   4.575   6.582
22404WAT     H167454   0.309   4.608   6.491
22404WAT     H267455   0.197   4.525   6.577
22405WAT      O67456   6.613   0.908   2.149
22405WAT     H167457   6.557   0.927   2.229
22405WAT     H267458   6.564   0.937   2.066
22406WAT      O67459   5.751   6.534   0.409
22406WAT     H167460   5.758   6.567   0.315
22406WAT     H267461   5.816   6.582   0.467
22407WAT      O67462   1.652   2.334   5.647
22407WAT     H167463   1.630   2.271   5.721
22407WAT     H267464   1.698   2.285   5.573
22408WAT      O67465   3.988   3.166   0.268
22408WAT     H167466   3.994   3.088   0.205
22408WAT     H267467   3.896   3.169   0.307
22409WAT      O67468   4.420   3.272   5.647
22409WAT     H167469   4.374   3.249   5.732
22409WAT     H267470   4.365   3.241   5.569
22410WAT      O67471   3.229   2.532   0.407
22410WAT     H167472   3.202   2.456   0.465
22410WAT     H267473   3.194   2.517   0.314
22411WAT      O67474   6.049   1.853   3.666
22411WAT     H167475   6.047   1.754   3.672
22411WAT     H267476   6.085   1.880   3.576
22412WAT      O67477   4.501   5.731   0.590
22412WAT     H167478   4.462   5.759   0.678
22412WAT     H267479   4.428   5.701   0.529
22413WAT      O67480   4.371   1.793   4.401
22413WAT     H167481   4.306   1.859   4.439
22413WAT     H267482   4.389   1.814   4.305
22414WAT      O67483   2.468   0.052   4.686
22414WAT     H167484   2.469   0.045   4.786
22414WAT     H267485   2.561   0.069   4.653
22415WAT      O67486   4.427   4.827   8.899
22415WAT     H167487   4.468   4.841   8.809
22415WAT     H267488   4.328   4.838   8.892
22416WAT      O67489   8.768   5.984   1.454
22416WAT     H167490   8.710   6.064   1.437
22416WAT     H267491   8.811   5.956   1.368
22417WAT      O67492   2.313   1.867   2.443
22417WAT     H167493   2.397   1.880   2.391
22417WAT     H267494   2.236   1.907   2.393
22418WAT      O67495   1.497   7.607   4.925
22418WAT     H167496   1.505   7.533   4.991
22418WAT     H267497   1.412   7.595   4.873
22419WAT      O67498   2.828   3.468   5.124
22419WAT     H167499   2.874   3.448   5.037
22419WAT     H267500   2.795   3.562   5.123
22420WAT      O67501   5.491   2.658   5.344
22420WAT     H167502   5.432   2.699   5.413
22420WAT     H267503   5.567   2.611   5.389
22421WAT      O67504   8.937   6.354   9.431
22421WAT     H167505   8.961   6.370   9.335
22421WAT     H267506   9.002   6.288   9.470
22422WAT      O67507   2.658   7.574   5.034
22422WAT     H167508   2.643   7.475   5.033
22422WAT     H267509   2.739   7.596   4.980
22423WAT      O67510   3.825   0.015   4.457
22423WAT     H167511   3.830   0.078   4.534
22423WAT     H267512   3.732   0.013   4.420
22424WAT      O67513   0.622   1.779   2.748
22424WAT     H167514   0.533   1.780   2.795
22424WAT     H267515   0.607   1.784   2.649
22425WAT      O67516   7.714   8.342   5.792
22425WAT     H167517   7.711   8.306   5.699
22425WAT     H267518   7.769   8.281   5.850
22426WAT      O67519   4.739   7.432   1.406
22426WAT     H167520   4.702   7.518   1.442
22426WAT     H267521   4.682   7.356   1.437
22427WAT      O67522   2.671   0.352   7.110
22427WAT     H167523   2.598   0.420   7.118
22427WAT     H267524   2.647   0.285   7.039
22428WAT      O67525   5.342   9.115   4.017
22428WAT     H167526   5.427   9.066   3.996
22428WAT     H267527   5.303   9.152   3.933
22429WAT      O67528   4.585   2.102   3.763
22429WAT     H167529   4.603   2.183   3.818
22429WAT     H267530   4.492   2.107   3.726
22430WAT      O67531   4.111   6.672   7.372
22430WAT     H167532   4.054   6.690   7.452
22430WAT     H267533   4.092   6.580   7.337
22431WAT      O67534   0.706   0.581   7.558
22431WAT     H167535   0.714   0.517   7.634
22431WAT     H267536   0.616   0.570   7.515
22432WAT      O67537   1.714   8.723   0.257
22432WAT     H167538   1.648   8.717   0.332
22432WAT     H267539   1.732   8.819   0.237
22433WAT      O67540   6.553   2.943   4.377
22433WAT     H167541   6.454   2.944   4.361
22433WAT     H267542   6.600   2.981   4.297
22434WAT      O67543   1.884   4.741   2.986
22434WAT     H167544   1.847   4.777   2.901
22434WAT     H267545   1.892   4.815   3.053
22435WAT      O67546   8.581   8.792   1.508
22435WAT     H167547   8.574   8.741   1.593
22435WAT     H267548   8.546   8.736   1.433
22436WAT      O67549   8.660   0.937   3.676
22436WAT     H167550   8.627   0.896   3.761
22436WAT     H267551   8.752   0.902   3.655
22437WAT      O67552   6.661   1.263   9.556
22437WAT     H167553   6.655   1.177   9.607
22437WAT     H267554   6.578   1.275   9.502
22438WAT      O67555   5.954   4.370   0.512
22438WAT     H167556   5.997   4.460   0.525
22438WAT     H267557   6.019   4.308   0.469
22439WAT      O67558   2.688   0.487   0.565
22439WAT     H167559   2.709   0.567   0.623
22439WAT     H267560   2.659   0.518   0.474
22440WAT      O67561   8.185   1.756   0.544
22440WAT     H167562   8.246   1.808   0.604
22440WAT     H267563   8.227   1.746   0.454
22441WAT      O67564   6.760   0.048   0.303
22441WAT     H167565   6.718  -0.001   0.227
22441WAT     H267566   6.695   0.115   0.340
22442WAT      O67567   2.253   7.304   6.072
22442WAT     H167568   2.164   7.269   6.043
22442WAT     H267569   2.273   7.270   6.164
22443WAT      O67570   9.328   5.439   8.801
22443WAT     H167571   9.259   5.467   8.735
22443WAT     H267572   9.291   5.448   8.893
22444WAT      O67573   3.415   7.614   2.207
22444WAT     H167574   3.383   7.700   2.247
22444WAT     H267575   3.505   7.628   2.165
22445WAT      O67576   6.268   6.184   1.775
22445WAT     H167577   6.324   6.260   1.808
22445WAT     H267578   6.291   6.165   1.680
22446WAT      O67579   1.316   2.417   3.136
22446WAT     H167580   1.357   2.501   3.099
22446WAT     H267581   1.379   2.376   3.202
22447WAT      O67582   0.741   6.521   2.772
22447WAT     H167583   0.749   6.434   2.819
22447WAT     H267584   0.831   6.566   2.768
22448WAT      O67585   1.604   9.027   1.766
22448WAT     H167586   1.581   8.929   1.769
22448WAT     H267587   1.658   9.046   1.684
22449WAT      O67588   2.818   7.174   7.872
22449WAT     H167589   2.779   7.257   7.831
22449WAT     H267590   2.779   7.161   7.963
22450WAT      O67591   2.604   6.355   2.228
22450WAT     H167592   2.653   6.420   2.287
22450WAT     H267593   2.599   6.266   2.273
22451WAT      O67594   8.225   7.017   3.034
22451WAT     H167595   8.190   6.960   2.960
22451WAT     H267596   8.312   7.058   3.006
22452WAT      O67597   6.868   1.096   6.636
22452WAT     H167598   6.835   1.074   6.544
22452WAT     H267599   6.967   1.108   6.634
22453WAT      O67600   3.495   6.477   2.634
22453WAT     H167601   3.521   6.520   2.547
22453WAT     H267602   3.406   6.431   2.623
22454WAT      O67603   4.368   6.168   9.148
22454WAT     H167604   4.274   6.201   9.142
22454WAT     H267605   4.381   6.091   9.085
22455WAT      O67606   1.583   2.821   5.751
22455WAT     H167607   1.528   2.740   5.727
22455WAT     H267608   1.523   2.901   5.758
22456WAT      O67609   2.467   3.273   2.132
22456WAT     H167610   2.415   3.287   2.048
22456WAT     H267611   2.519   3.356   2.154
22457WAT      O67612   7.604   2.529   9.839
22457WAT     H167613   7.594   2.614   9.890
22457WAT     H267614   7.700   2.511   9.821
22458WAT      O67615   6.972   0.351   3.882
22458WAT     H167616   6.999   0.445   3.863
22458WAT     H267617   7.008   0.291   3.811
22459WAT      O67618   3.249   0.829   3.272
22459WAT     H167619   3.242   0.732   3.246
22459WAT     H267620   3.344   0.858   3.266
22460WAT      O67621   1.826   2.686   4.616
22460WAT     H167622   1.806   2.771   4.569
22460WAT     H267623   1.762   2.673   4.692
22461WAT      O67624   5.033   3.892   7.446
22461WAT     H167625   5.126   3.861   7.466
22461WAT     H267626   4.979   3.815   7.413
22462WAT      O67627   8.292   0.594   4.501
22462WAT     H167628   8.267   0.498   4.483
22462WAT     H267629   8.370   0.619   4.444
22463WAT      O67630   3.724   8.682   0.801
22463WAT     H167631   3.749   8.747   0.729
22463WAT     H267632   3.642   8.632   0.775
22464WAT      O67633   1.161   9.200   1.450
22464WAT     H167634   1.128   9.290   1.477
22464WAT     H267635   1.164   9.194   1.350
22465WAT      O67636   8.740   1.245   0.038
22465WAT     H167637   8.704   1.337   0.024
22465WAT     H267638   8.814   1.228  -0.028
22466WAT      O67639   1.597   1.656   6.809
22466WAT     H167640   1.600   1.733   6.872
22466WAT     H267641   1.615   1.688   6.716
22467WAT      O67642   2.671   2.054   7.752
22467WAT     H167643   2.593   1.994   7.733
22467WAT     H267644   2.638   2.142   7.786
22468WAT      O67645   8.198   6.880   8.861
22468WAT     H167646   8.147   6.839   8.785
22468WAT     H267647   8.133   6.916   8.929
22469WAT      O67648   0.429   7.515   5.166
22469WAT     H167649   0.426   7.435   5.227
22469WAT     H267650   0.337   7.537   5.135
22470WAT      O67651   0.841   9.723   4.091
22470WAT     H167652   0.915   9.721   4.159
22470WAT     H267653   0.868   9.668   4.012
22471WAT      O67654   4.934   8.069   3.617
22471WAT     H167655   4.897   8.144   3.671
22471WAT     H267656   4.868   7.994   3.613
22472WAT      O67657   2.214   4.442   4.633
22472WAT     H167658   2.218   4.485   4.543
22472WAT     H267659   2.288   4.374   4.640
22473WAT      O67660   4.653   6.055   8.852
22473WAT     H167661   4.688   5.979   8.798
22473WAT     H267662   4.720   6.129   8.853
22474WAT      O67663   4.350   0.636   1.902
22474WAT     H167664   4.351   0.561   1.968
22474WAT     H267665   4.289   0.708   1.935
22475WAT      O67666   5.293   2.731   4.594
22475WAT     H167667   5.361   2.804   4.583
22475WAT     H267668   5.237   2.751   4.674
22476WAT      O67669   0.796   7.869   6.536
22476WAT     H167670   0.738   7.789   6.520
22476WAT     H267671   0.816   7.876   6.634
22477WAT      O67672   5.494   7.949   7.943
22477WAT     H167673   5.461   8.041   7.964
22477WAT     H267674   5.531   7.948   7.850
22478WAT      O67675   1.429   5.550   1.893
22478WAT     H167676   1.338   5.509   1.882
22478WAT     H267677   1.428   5.613   1.971
22479WAT      O67678   6.814   2.395   8.649
22479WAT     H167679   6.842   2.407   8.744
22479WAT     H267680   6.817   2.298   8.625
22480WAT      O67681   8.285   3.345   2.156
22480WAT     H167682   8.249   3.361   2.064
22480WAT     H267683   8.231   3.275   2.202
22481WAT      O67684   8.447   0.180   6.683
22481WAT     H167685   8.460   0.232   6.598
22481WAT     H267686   8.504   0.221   6.755
22482WAT      O67687   8.119   1.948   3.028
22482WAT     H167688   8.063   1.980   3.104
22482WAT     H267689   8.159   1.859   3.050
22483WAT      O67690   8.410   7.105   0.071
22483WAT     H167691   8.436   7.014   0.104
22483WAT     H267692   8.486   7.168   0.085
22484WAT      O67693   5.414   0.245   7.227
22484WAT     H167694   5.501   0.203   7.199
22484WAT     H267695   5.420   0.344   7.215
22485WAT      O67696   2.448   8.449   3.659
22485WAT     H167697   2.467   8.523   3.594
22485WAT     H267698   2.357   8.463   3.699
22486WAT      O67699   4.896   8.723   1.637
22486WAT     H167700   4.807   8.687   1.665
22486WAT     H267701   4.883   8.804   1.580
22487WAT      O67702   0.952   1.075   5.720
22487WAT     H167703   0.858   1.083   5.689
22487WAT     H267704   1.003   1.016   5.657
22488WAT      O67705   9.504   7.971   8.983
22488WAT     H167706   9.459   8.028   9.052
22488WAT     H267707   9.560   8.029   8.924
22489WAT      O67708   8.271   1.825   7.751
22489WAT     H167709   8.232   1.884   7.821
22489WAT     H267710   8.202   1.802   7.683
22490WAT      O67711   7.862   0.536   0.949
22490WAT     H167712   7.797   0.506   1.019
22490WAT     H267713   7.862   0.636   0.944
22491WAT      O67714   5.336   0.154   9.164
22491WAT     H167715   5.296   0.186   9.250
22491WAT     H267716   5.277   0.083   9.125
22492WAT      O67717   3.267   3.633   1.674
22492WAT     H167718   3.233   3.583   1.753
22492WAT     H267719   3.341   3.582   1.630
22493WAT      O67720   8.638   8.255   1.058
22493WAT     H167721   8.633   8.310   1.141
22493WAT     H267722   8.688   8.170   1.077
22494WAT      O67723   8.411   7.480   3.141
22494WAT     H167724   8.361   7.419   3.202
22494WAT     H267725   8.482   7.429   3.092
22495WAT      O67726   5.799   0.671   5.658
22495WAT     H167727   5.861   0.728   5.712
22495WAT     H267728   5.852   0.603   5.607
22496WAT      O67729   3.599   4.573   7.406
22496WAT     H167730   3.649   4.568   7.493
22496WAT     H267731   3.663   4.571   7.330
22497WAT      O67732   8.613   8.489   2.768
22497WAT     H167733   8.547   8.555   2.732
22497WAT     H267734   8.659   8.444   2.691
22498WAT      O67735   3.691   9.491   1.598
22498WAT     H167736   3.600   9.475   1.636
22498WAT     H267737   3.690   9.575   1.544
22499WAT      O67738   6.723   1.860   4.053
22499WAT     H167739   6.796   1.830   4.114
22499WAT     H267740   6.748   1.840   3.958
22500WAT      O67741   4.561   4.084   4.444
22500WAT     H167742   4.594   3.993   4.469
22500WAT     H267743   4.462   4.081   4.432
22501WAT      O67744   9.447   9.079   4.914
22501WAT     H167745   9.407   8.992   4.884
22501WAT     H267746   9.526   9.062   4.972
22502WAT      O67747   0.167   6.407   1.662
22502WAT     H167748   0.138   6.429   1.755
22502WAT     H267749   0.128   6.319   1.634
22503WAT      O67750   1.805   4.311   3.064
22503WAT     H167751   1.878   4.253   3.028
22503WAT     H267752   1.844   4.390   3.110
22504WAT      O67753   5.221   2.577   7.829
22504WAT     H167754   5.246   2.632   7.909
22504WAT     H267755   5.124   2.553   7.834
22505WAT      O67756   0.559   7.879   6.004
22505WAT     H167757   0.473   7.928   6.013
22505WAT     H267758   0.542   7.780   6.004
22506WAT      O67759   7.696   8.415   9.640
22506WAT     H167760   7.614   8.441   9.690
22506WAT     H267761   7.724   8.490   9.580
22507WAT      O67762   7.863   8.290   2.593
22507WAT     H167763   7.951   8.335   2.608
22507WAT     H267764   7.812   8.340   2.523
22508WAT      O67765   4.044   5.997   9.234
22508WAT     H167766   4.039   5.922   9.168
22508WAT     H267767   4.134   5.997   9.278
22509WAT      O67768   6.523   1.285   6.284
22509WAT     H167769   6.430   1.289   6.246
22509WAT     H267770   6.577   1.361   6.250
22510WAT      O67771   4.133   0.858   1.092
22510WAT     H167772   4.077   0.840   1.011
22510WAT     H267773   4.162   0.953   1.092
22511WAT      O67774   0.527   3.321   4.017
22511WAT     H167775   0.446   3.292   4.067
22511WAT     H267776   0.544   3.418   4.035
22512WAT      O67777   9.622   3.129   1.255
22512WAT     H167778   9.642   3.202   1.189
22512WAT     H267779   9.583   3.051   1.207
22513WAT      O67780   6.629   4.205   7.516
22513WAT     H167781   6.626   4.106   7.503
22513WAT     H267782   6.717   4.240   7.483
22514WAT      O67783   5.975   5.378   9.836
22514WAT     H167784   6.030   5.445   9.786
22514WAT     H267785   6.016   5.361   9.926
22515WAT      O67786   2.568   7.183   9.202
22515WAT     H167787   2.532   7.249   9.267
22515WAT     H267788   2.502   7.170   9.127
22516WAT      O67789   8.871   1.722   1.411
22516WAT     H167790   8.969   1.735   1.421
22516WAT     H267791   8.828   1.722   1.501
22517WAT      O67792   2.363   9.814   7.219
22517WAT     H167793   2.374   9.765   7.305
22517WAT     H267794   2.451   9.815   7.170
22518WAT      O67795   9.038   9.052   5.481
22518WAT     H167796   8.988   9.128   5.439
22518WAT     H267797   9.127   9.043   5.436
22519WAT      O67798   4.397   9.409   5.223
22519WAT     H167799   4.329   9.479   5.201
22519WAT     H267800   4.478   9.453   5.261
22520WAT      O67801   8.876   7.269   4.806
22520WAT     H167802   8.939   7.215   4.750
22520WAT     H267803   8.850   7.216   4.886
22521WAT      O67804   0.564   0.160   7.994
22521WAT     H167805   0.500   0.084   8.005
22521WAT     H267806   0.613   0.150   7.907
22522WAT      O67807   1.643   4.100   2.306
22522WAT     H167808   1.687   4.158   2.375
22522WAT     H267809   1.678   4.124   2.215
22523WAT      O67810   1.976   3.361   4.786
22523WAT     H167811   1.887   3.320   4.764
22523WAT     H267812   2.046   3.318   4.729
22524WAT      O67813   1.542   5.659   5.448
22524WAT     H167814   1.621   5.599   5.457
22524WAT     H267815   1.511   5.658   5.353
22525WAT      O67816   5.389   2.094   6.591
22525WAT     H167817   5.340   2.173   6.554
22525WAT     H267818   5.328   2.042   6.650
22526WAT      O67819   1.533   0.413   8.006
22526WAT     H167820   1.591   0.343   8.046
22526WAT     H267821   1.491   0.378   7.922
22527WAT      O67822   6.701   6.699   2.169
22527WAT     H167823   6.799   6.696   2.151
22527WAT     H267824   6.685   6.718   2.266
22528WAT      O67825   6.170   5.511   7.857
22528WAT     H167826   6.096   5.445   7.850
22528WAT     H267827   6.194   5.545   7.766
22529WAT      O67828   7.079   8.240   8.752
22529WAT     H167829   7.077   8.273   8.846
22529WAT     H267830   7.089   8.318   8.690
22530WAT      O67831   7.813   2.039   2.277
22530WAT     H167832   7.896   2.049   2.222
22530WAT     H267833   7.733   2.059   2.221
22531WAT      O67834   9.608   7.916   2.683
22531WAT     H167835   9.591   8.015   2.680
22531WAT     H267836   9.527   7.869   2.717
22532WAT      O67837   0.510   1.548   0.600
22532WAT     H167838   0.471   1.467   0.556
22532WAT     H267839   0.437   1.615   0.617
22533WAT      O67840   6.487   8.774   0.782
22533WAT     H167841   6.490   8.874   0.793
22533WAT     H267842   6.541   8.748   0.702
22534WAT      O67843   0.645   4.284   8.688
22534WAT     H167844   0.627   4.186   8.677
22534WAT     H267845   0.658   4.325   8.598
22535WAT      O67846   2.438   7.463   9.052
22535WAT     H167847   2.402   7.483   9.142
22535WAT     H267848   2.532   7.428   9.060
22536WAT      O67849   9.115   0.526   2.566
22536WAT     H167850   9.023   0.563   2.570
22536WAT     H267851   9.118   0.437   2.611
22537WAT      O67852   0.046   9.737   2.335
22537WAT     H167853   0.061   9.826   2.292
22537WAT     H267854   0.013   9.672   2.267
22538WAT      O67855   9.274   0.646   2.783
22538WAT     H167856   9.233   0.658   2.692
22538WAT     H267857   9.276   0.549   2.806
22539WAT      O67858   6.056   5.575   7.364
22539WAT     H167859   6.063   5.646   7.295
22539WAT     H267860   6.040   5.487   7.319
22540WAT      O67861   6.815   2.644   4.616
22540WAT     H167862   6.724   2.677   4.592
22540WAT     H267863   6.841   2.570   4.553
22541WAT      O67864   9.532   2.652   9.692
22541WAT     H167865   9.470   2.728   9.711
22541WAT     H267866   9.532   2.633   9.593
22542WAT      O67867   3.956   1.626   5.060
22542WAT     H167868   4.054   1.618   5.043
22542WAT     H267869   3.938   1.710   5.111
22543WAT      O67870   5.567   7.430   8.120
22543WAT     H167871   5.486   7.428   8.062
22543WAT     H267872   5.557   7.363   8.193
22544WAT      O67873   8.304   8.709   7.608
22544WAT     H167874   8.213   8.709   7.566
22544WAT     H267875   8.295   8.692   7.706
22545WAT      O67876   0.284   3.165   6.558
22545WAT     H167877   0.282   3.107   6.639
22545WAT     H267878   0.351   3.129   6.493
22546WAT      O67879   8.116   2.664   9.519
22546WAT     H167880   8.125   2.594   9.448
22546WAT     H267881   8.162   2.748   9.489
22547WAT      O67882   4.526   2.589   8.982
22547WAT     H167883   4.453   2.634   9.033
22547WAT     H267884   4.519   2.613   8.885
22548WAT      O67885   7.866   4.490   4.293
22548WAT     H167886   7.949   4.522   4.246
22548WAT     H267887   7.879   4.396   4.322
22549WAT      O67888   1.939   3.804   6.240
22549WAT     H167889   2.034   3.814   6.269
22549WAT     H267890   1.887   3.885   6.266
22550WAT      O67891   7.524   2.677   1.488
22550WAT     H167892   7.486   2.620   1.416
22550WAT     H267893   7.592   2.739   1.450
22551WAT      O67894   8.352   1.329   1.411
22551WAT     H167895   8.363   1.244   1.463
22551WAT     H267896   8.273   1.379   1.446
22552WAT      O67897   7.098   9.567   0.737
22552WAT     H167898   7.096   9.665   0.757
22552WAT     H267899   7.021   9.523   0.784
22553WAT      O67900   0.639   8.102   5.859
22553WAT     H167901   0.725   8.133   5.899
22553WAT     H267902   0.609   8.019   5.906
22554WAT      O67903   3.836   2.014   6.930
22554WAT     H167904   3.913   1.952   6.943
22554WAT     H267905   3.848   2.096   6.986
22555WAT      O67906   2.095   6.389   2.186
22555WAT     H167907   2.058   6.425   2.272
22555WAT     H267908   2.021   6.379   2.120
22556WAT      O67909   2.160   9.312   9.557
22556WAT     H167910   2.198   9.383   9.498
22556WAT     H267911   2.234   9.264   9.605
22557WAT      O67912   1.588   6.798   2.178
22557WAT     H167913   1.501   6.751   2.165
22557WAT     H267914   1.577   6.895   2.157
22558WAT      O67915   3.735   2.715   5.666
22558WAT     H167916   3.664   2.646   5.679
22558WAT     H267917   3.694   2.797   5.625
22559WAT      O67918   3.995   0.261   6.856
22559WAT     H167919   4.040   0.172   6.857
22559WAT     H267920   3.990   0.296   6.950
22560WAT      O67921   0.600   2.632   6.604
22560WAT     H167922   0.514   2.597   6.567
22560WAT     H267923   0.642   2.694   6.538
22561WAT      O67924   0.820   7.838   7.249
22561WAT     H167925   0.814   7.938   7.242
22561WAT     H267926   0.730   7.800   7.269
22562WAT      O67927   4.714   4.679   7.348
22562WAT     H167928   4.723   4.767   7.301
22562WAT     H267929   4.662   4.691   7.433
22563WAT      O67930   9.373   3.498   9.811
22563WAT     H167931   9.418   3.567   9.754
22563WAT     H267932   9.274   3.511   9.807
22564WAT      O67933   9.223   9.381   9.600
22564WAT     H167934   9.281   9.418   9.527
22564WAT     H267935   9.230   9.281   9.600
22565WAT      O67936   8.638   3.246   8.882
22565WAT     H167937   8.567   3.299   8.835
22565WAT     H267938   8.708   3.219   8.816
22566WAT      O67939   0.389   3.572   9.233
22566WAT     H167940   0.391   3.532   9.325
22566WAT     H267941   0.306   3.628   9.223
22567WAT      O67942   9.791   6.235   6.790
22567WAT     H167943   9.739   6.251   6.706
22567WAT     H267944   9.729   6.237   6.869
22568WAT      O67945   9.063   1.275   0.178
22568WAT     H167946   8.991   1.309   0.118
22568WAT     H267947   9.082   1.343   0.249
22569WAT      O67948   4.322   2.086   6.388
22569WAT     H167949   4.422   2.086   6.381
22569WAT     H267950   4.283   2.042   6.307
22570WAT      O67951   3.384   0.494   3.937
22570WAT     H167952   3.471   0.460   3.974
22570WAT     H267953   3.398   0.587   3.901
22571WAT      O67954   8.160   1.476   3.456
22571WAT     H167955   8.192   1.401   3.398
22571WAT     H267956   8.193   1.563   3.421
22572WAT      O67957   3.651   7.091   5.021
22572WAT     H167958   3.650   7.054   5.113
22572WAT     H267959   3.573   7.055   4.969
22573WAT      O67960   0.834   8.341   0.636
22573WAT     H167961   0.766   8.328   0.564
22573WAT     H267962   0.792   8.386   0.715
22574WAT      O67963   0.813   5.691   4.514
22574WAT     H167964   0.794   5.617   4.578
22574WAT     H267965   0.801   5.659   4.420
22575WAT      O67966   6.321   2.689   3.228
22575WAT     H167967   6.397   2.624   3.237
22575WAT     H267968   6.242   2.656   3.280
22576WAT      O67969   2.221   1.734   3.144
22576WAT     H167970   2.277   1.772   3.218
22576WAT     H267971   2.212   1.801   3.071
22577WAT      O67972   1.744   5.476   9.228
22577WAT     H167973   1.664   5.416   9.232
22577WAT     H267974   1.736   5.537   9.149
22578WAT      O67975   1.017   6.373   3.971
22578WAT     H167976   1.026   6.274   3.979
22578WAT     H267977   1.017   6.414   4.062
22579WAT      O67978   0.669   3.311   5.972
22579WAT     H167979   0.619   3.226   5.955
22579WAT     H267980   0.766   3.291   5.986
22580WAT      O67981   6.853   4.872   3.034
22580WAT     H167982   6.900   4.803   3.089
22580WAT     H267983   6.763   4.837   3.007
22581WAT      O67984   6.492   7.253   3.282
22581WAT     H167985   6.456   7.317   3.350
22581WAT     H267986   6.442   7.167   3.288
22582WAT      O67987   5.504   8.907   4.781
22582WAT     H167988   5.599   8.916   4.810
22582WAT     H267989   5.449   8.871   4.856
22583WAT      O67990   7.330   1.576   4.343
22583WAT     H167991   7.407   1.592   4.404
22583WAT     H267992   7.337   1.636   4.263
22584WAT      O67993   9.139   1.762   1.465
22584WAT     H167994   9.147   1.705   1.547
22584WAT     H267995   9.141   1.858   1.491
22585WAT      O67996   7.172   7.397   1.244
22585WAT     H167997   7.145   7.462   1.173
22585WAT     H267998   7.255   7.349   1.215
22586WAT      O67999   2.565   4.369   2.538
22586WAT     H168000   2.589   4.276   2.566
22586WAT     H268001   2.537   4.422   2.618
22587WAT      O68002   4.784   6.469   0.470
22587WAT     H168003   4.775   6.381   0.424
22587WAT     H268004   4.826   6.455   0.560
22588WAT      O68005   2.040   5.630   1.303
22588WAT     H168006   2.105   5.628   1.379
22588WAT     H268007   1.967   5.694   1.323
22589WAT      O68008   7.016   4.542   1.485
22589WAT     H168009   6.997   4.586   1.573
22589WAT     H268010   7.030   4.444   1.499
22590WAT      O68011   9.751   9.285   4.276
22590WAT     H168012   9.773   9.258   4.370
22590WAT     H268013   9.722   9.204   4.225
22591WAT      O68014   9.350   3.612   4.991
22591WAT     H168015   9.356   3.567   5.080
22591WAT     H268016   9.282   3.685   4.994
22592WAT      O68017   1.213   2.275   4.262
22592WAT     H168018   1.292   2.259   4.202
22592WAT     H268019   1.130   2.279   4.206
22593WAT      O68020   0.774   8.097   0.199
22593WAT     H168021   0.808   8.189   0.216
22593WAT     H268022   0.761   8.049   0.286
22594WAT      O68023   2.086   2.363   3.347
22594WAT     H168024   2.169   2.310   3.365
22594WAT     H268025   2.020   2.345   3.419
22595WAT      O68026   4.428   0.090   0.274
22595WAT     H168027   4.341   0.120   0.313
22595WAT     H268028   4.466   0.016   0.330
22596WAT      O68029   8.686   4.517   7.404
22596WAT     H168030   8.782   4.542   7.415
22596WAT     H268031   8.630   4.600   7.403
22597WAT      O68032   7.659   7.887   5.658
22597WAT     H168033   7.674   7.985   5.673
22597WAT     H268034   7.683   7.864   5.563
22598WAT      O68035   9.348   0.284   5.271
22598WAT     H168036   9.334   0.382   5.260
22598WAT     H268037   9.260   0.238   5.281
22599WAT      O68038   5.195   4.932   5.685
22599WAT     H168039   5.121   4.996   5.706
22599WAT     H268040   5.252   4.920   5.767
22600WAT      O68041   5.473   1.492   2.044
22600WAT     H168042   5.549   1.458   1.988
22600WAT     H268043   5.451   1.425   2.115
22601WAT      O68044   2.010   9.112   8.309
22601WAT     H168045   2.073   9.189   8.295
22601WAT     H268046   1.967   9.088   8.222
22602WAT      O68047   0.774   0.348   5.975
22602WAT     H168048   0.786   0.260   6.023
22602WAT     H268049   0.864   0.386   5.953
22603WAT      O68050   7.923   0.701   1.778
22603WAT     H168051   7.963   0.777   1.727
22603WAT     H268052   7.869   0.644   1.716
22604WAT      O68053   9.765   3.583   3.597
22604WAT     H168054   9.861   3.568   3.573
22604WAT     H268055   9.755   3.582   3.697
22605WAT      O68056   1.052   4.074   7.361
22605WAT     H168057   1.023   4.170   7.361
22605WAT     H268058   1.130   4.064   7.299
22606WAT      O68059   1.932   9.372   4.634
22606WAT     H168060   1.870   9.324   4.697
22606WAT     H268061   1.887   9.385   4.546
22607WAT      O68062   6.560   6.389   0.042
22607WAT     H168063   6.463   6.400   0.065
22607WAT     H268064   6.575   6.417  -0.052
22608WAT      O68065   1.322   5.109   7.683
22608WAT     H168066   1.301   5.054   7.764
22608WAT     H268067   1.271   5.074   7.605
22609WAT      O68068   3.920   4.397   0.849
22609WAT     H168069   3.979   4.417   0.927
22609WAT     H268070   3.877   4.482   0.817
22610WAT      O68071   5.873   3.531   7.772
22610WAT     H168072   5.819   3.491   7.846
22610WAT     H268073   5.845   3.626   7.758
22611WAT      O68074   9.419   7.575   0.570
22611WAT     H168075   9.421   7.662   0.520
22611WAT     H268076   9.325   7.547   0.585
22612WAT      O68077   6.260   7.251   9.493
22612WAT     H168078   6.308   7.309   9.558
22612WAT     H268079   6.161   7.269   9.499
22613WAT      O68080   0.053   3.719   6.227
22613WAT     H168081   0.078   3.625   6.251
22613WAT     H268082  -0.002   3.718   6.143
22614WAT      O68083   0.436   1.877   0.229
22614WAT     H168084   0.512   1.878   0.294
22614WAT     H268085   0.455   1.810   0.157
22615WAT      O68086   6.401   0.802   9.486
22615WAT     H168087   6.321   0.746   9.460
22615WAT     H268088   6.407   0.806   9.586
22616WAT      O68089   5.265   6.044   8.518
22616WAT     H168090   5.230   5.978   8.452
22616WAT     H268091   5.355   6.015   8.550
22617WAT      O68092   4.257   6.197   1.512
22617WAT     H168093   4.277   6.101   1.535
22617WAT     H268094   4.178   6.200   1.451
22618WAT      O68095   7.994   4.942   1.059
22618WAT     H168096   8.026   4.881   0.987
22618WAT     H268097   7.899   4.923   1.080
22619WAT      O68098   2.571   2.788   8.416
22619WAT     H168099   2.487   2.842   8.420
22619WAT     H268100   2.549   2.692   8.435
22620WAT      O68101   2.375   5.659   3.888
22620WAT     H168102   2.445   5.678   3.818
22620WAT     H268103   2.322   5.579   3.861
22621WAT      O68104   9.218   7.541   5.884
22621WAT     H168105   9.297   7.488   5.854
22621WAT     H268106   9.136   7.511   5.834
22622WAT      O68107   6.995   2.724   8.235
22622WAT     H168108   6.967   2.669   8.313
22622WAT     H268109   6.927   2.717   8.162
22623WAT      O68110   9.009   2.984   1.015
22623WAT     H168111   8.961   3.009   0.932
22623WAT     H268112   9.051   2.894   1.004
22624WAT      O68113   8.198   6.585   5.345
22624WAT     H168114   8.137   6.566   5.268
22624WAT     H268115   8.214   6.684   5.350
22625WAT      O68116   5.570   1.641   4.257
22625WAT     H168117   5.603   1.562   4.205
22625WAT     H268118   5.646   1.681   4.308
22626WAT      O68119   7.122   7.455   4.950
22626WAT     H168120   7.159   7.364   4.967
22626WAT     H268121   7.122   7.507   5.036
22627WAT      O68122   7.070   5.385   6.413
22627WAT     H168123   6.993   5.322   6.399
22627WAT     H268124   7.051   5.471   6.366
22628WAT      O68125   4.105   4.422   1.036
22628WAT     H168126   4.114   4.323   1.043
22628WAT     H268127   4.173   4.457   0.971
22629WAT      O68128   7.661   9.757   6.794
22629WAT     H168129   7.648   9.657   6.792
22629WAT     H268130   7.655   9.789   6.888
22630WAT      O68131   8.041   0.990   1.205
22630WAT     H168132   8.045   1.059   1.277
22630WAT     H268133   8.100   1.018   1.129
22631WAT      O68134   7.693   6.275   3.418
22631WAT     H168135   7.771   6.282   3.356
22631WAT     H268136   7.724   6.239   3.506
22632WAT      O68137   6.720   1.305   1.130
22632WAT     H168138   6.630   1.345   1.144
22632WAT     H268139   6.711   1.218   1.082
22633WAT      O68140   8.966   3.562   4.868
22633WAT     H168141   8.896   3.496   4.895
22633WAT     H268142   8.988   3.620   4.946
22634WAT      O68143   5.929   6.418   5.454
22634WAT     H168144   5.831   6.412   5.476
22634WAT     H268145   5.972   6.330   5.472
22635WAT      O68146   9.547   6.700   0.043
22635WAT     H168147   9.638   6.715   0.081
22635WAT     H268148   9.552   6.631  -0.030
22636WAT      O68149   5.754   8.415   7.058
22636WAT     H168150   5.679   8.368   7.104
22636WAT     H268151   5.831   8.425   7.121
22637WAT      O68152   0.570   5.765   2.438
22637WAT     H168153   0.662   5.802   2.448
22637WAT     H268154   0.519   5.779   2.523
22638WAT      O68155   5.391   3.072   7.726
22638WAT     H168156   5.481   3.077   7.681
22638WAT     H268157   5.321   3.099   7.660
22639WAT      O68158   8.498   3.962   3.644
22639WAT     H168159   8.440   3.884   3.664
22639WAT     H268160   8.457   4.016   3.570
22640WAT      O68161   8.007   0.244   8.045
22640WAT     H168162   7.938   0.228   7.974
22640WAT     H268163   7.963   0.241   8.135
22641WAT      O68164   5.943   3.344   1.525
22641WAT     H168165   5.956   3.442   1.509
22641WAT     H268166   5.909   3.329   1.618
22642WAT      O68167   0.725   5.048   1.010
22642WAT     H168168   0.746   4.966   1.063
22642WAT     H268169   0.798   5.063   0.943
22643WAT      O68170   7.231   0.953   3.042
22643WAT     H168171   7.253   0.856   3.056
22643WAT     H268172   7.313   1.001   3.011
22644WAT      O68173   6.889   5.433   5.420
22644WAT     H168174   6.877   5.410   5.323
22644WAT     H268175   6.817   5.495   5.449
22645WAT      O68176   8.589   6.974   9.637
22645WAT     H168177   8.514   6.919   9.601
22645WAT     H268178   8.616   6.940   9.728
22646WAT      O68179   1.855   9.071   4.083
22646WAT     H168180   1.910   9.057   4.165
22646WAT     H268181   1.870   8.997   4.018
22647WAT      O68182   8.405   1.853   5.418
22647WAT     H168183   8.352   1.829   5.499
22647WAT     H268184   8.343   1.875   5.342
22648WAT      O68185   3.810   4.662   0.345
22648WAT     H168186   3.773   4.577   0.307
22648WAT     H268187   3.758   4.740   0.311
22649WAT      O68188   5.983   0.732   6.900
22649WAT     H168189   6.020   0.781   6.979
22649WAT     H268190   5.894   0.694   6.923
22650WAT      O68191   6.968   1.467   5.588
22650WAT     H168192   6.948   1.458   5.685
22650WAT     H268193   7.007   1.381   5.554
22651WAT      O68194   6.155   6.341   7.293
22651WAT     H168195   6.111   6.413   7.238
22651WAT     H268196   6.198   6.275   7.233
22652WAT      O68197   3.715   9.831   9.103
22652WAT     H168198   3.701   9.888   9.022
22652WAT     H268199   3.762   9.747   9.077
22653WAT      O68200   6.814   1.289   7.436
22653WAT     H168201   6.743   1.246   7.380
22653WAT     H268202   6.776   1.369   7.483
22654WAT      O68203   9.049   3.273   5.215
22654WAT     H168204   9.027   3.301   5.308
22654WAT     H268205   8.977   3.303   5.153
22655WAT      O68206   0.492   7.596   6.007
22655WAT     H168207   0.486   7.601   5.908
22655WAT     H268208   0.516   7.503   6.034
22656WAT      O68209   6.483   2.511   4.481
22656WAT     H168210   6.481   2.590   4.542
22656WAT     H268211   6.518   2.539   4.391
22657WAT      O68212   3.083   8.190   1.129
22657WAT     H168213   3.098   8.286   1.152
22657WAT     H268214   3.011   8.184   1.060
22658WAT      O68215   2.059   9.699   0.803
22658WAT     H168216   2.011   9.765   0.861
22658WAT     H268217   2.047   9.607   0.841
22659WAT      O68218   3.949   5.228   5.884
22659WAT     H168219   3.936   5.305   5.945
22659WAT     H268220   4.024   5.171   5.917
22660WAT      O68221   3.627   6.423   9.148
22660WAT     H168222   3.679   6.400   9.066
22660WAT     H268223   3.687   6.468   9.214
22661WAT      O68224   4.850   4.213   5.586
22661WAT     H168225   4.882   4.133   5.534
22661WAT     H268226   4.827   4.286   5.522
22662WAT      O68227   1.804   5.931   8.402
22662WAT     H168228   1.783   6.008   8.340
22662WAT     H268229   1.901   5.909   8.396
22663WAT      O68230   1.197   0.679   8.120
22663WAT     H168231   1.291   0.669   8.088
22663WAT     H268232   1.146   0.595   8.100
22664WAT      O68233   2.587   4.979   4.660
22664WAT     H168234   2.667   4.990   4.719
22664WAT     H268235   2.589   4.888   4.618
22665WAT      O68236   6.449   6.686   8.607
22665WAT     H168237   6.493   6.605   8.646
22665WAT     H268238   6.380   6.659   8.541
22666WAT      O68239   7.881   7.042   3.889
22666WAT     H168240   7.878   7.136   3.855
22666WAT     H268241   7.820   6.985   3.834
22667WAT      O68242   4.676   6.533   7.194
22667WAT     H168243   4.646   6.629   7.191
22667WAT     H268244   4.705   6.505   7.103
22668WAT      O68245   7.606   1.537   8.312
22668WAT     H168246   7.689   1.482   8.316
22668WAT     H268247   7.530   1.481   8.278
22669WAT      O68248   1.002   3.429   0.692
22669WAT     H168249   0.930   3.420   0.761
22669WAT     H268250   1.034   3.524   0.690
22670WAT      O68251   8.356   8.891   0.988
22670WAT     H168252   8.322   8.935   1.072
22670WAT     H268253   8.438   8.940   0.957
22671WAT      O68254   3.457   5.390   8.355
22671WAT     H168255   3.447   5.473   8.300
22671WAT     H268256   3.511   5.323   8.305
22672WAT      O68257   3.242   6.131   3.784
22672WAT     H168258   3.259   6.180   3.699
22672WAT     H268259   3.298   6.048   3.788
22673WAT      O68260   4.085   2.578   2.186
22673WAT     H168261   4.031   2.561   2.268
22673WAT     H268262   4.058   2.666   2.146
22674WAT      O68263   1.169   1.563   8.296
22674WAT     H168264   1.200   1.578   8.202
22674WAT     H268265   1.188   1.469   8.323
22675WAT      O68266   2.462   7.052   7.830
22675WAT     H168267   2.511   6.976   7.873
22675WAT     H268268   2.485   7.055   7.733
22676WAT      O68269   4.106   6.825   3.287
22676WAT     H168270   4.043   6.787   3.218
22676WAT     H268271   4.139   6.751   3.345
22677WAT      O68272   7.324   1.981   1.427
22677WAT     H168273   7.301   1.900   1.373
22677WAT     H268274   7.272   2.059   1.394
22678WAT      O68275   6.746   9.228   2.912
22678WAT     H168276   6.676   9.299   2.917
22678WAT     H268277   6.771   9.199   3.004
22679WAT      O68278   5.020   8.124   0.251
22679WAT     H168279   5.057   8.115   0.158
22679WAT     H268280   5.033   8.219   0.281
22680WAT      O68281   5.372   3.977   8.646
22680WAT     H168282   5.324   4.058   8.678
22680WAT     H268283   5.425   3.999   8.564
22681WAT      O68284   9.670   4.144   9.694
22681WAT     H168285   9.707   4.236   9.706
22681WAT     H268286   9.583   4.136   9.743
22682WAT      O68287   7.314   4.118   6.890
22682WAT     H168288   7.247   4.128   6.816
22682WAT     H268289   7.284   4.170   6.969
22683WAT      O68290   7.950   8.935   9.017
22683WAT     H168291   8.023   8.879   8.977
22683WAT     H268292   7.909   8.993   8.947
22684WAT      O68293   8.871   0.994   6.049
22684WAT     H168294   8.967   0.987   6.078
22684WAT     H268295   8.813   1.002   6.130
22685WAT      O68296   4.508   8.053   2.568
22685WAT     H168297   4.448   7.984   2.609
22685WAT     H268298   4.604   8.029   2.587
22686WAT      O68299   2.745   5.565   3.363
22686WAT     H168300   2.771   5.468   3.355
22686WAT     H268301   2.780   5.602   3.449
22687WAT      O68302   9.530   1.160   2.292
22687WAT     H168303   9.556   1.133   2.385
22687WAT     H268304   9.591   1.115   2.226
22688WAT      O68305   2.950   9.091   6.746
22688WAT     H168306   2.886   9.026   6.706
22688WAT     H268307   2.973   9.161   6.679
22689WAT      O68308   7.418   7.181   6.818
22689WAT     H168309   7.358   7.215   6.746
22689WAT     H268310   7.375   7.197   6.907
22690WAT      O68311   0.282   3.819   8.337
22690WAT     H168312   0.367   3.775   8.306
22690WAT     H268313   0.254   3.888   8.271
22691WAT      O68314   6.927   1.525   2.736
22691WAT     H168315   6.910   1.437   2.693
22691WAT     H268316   6.844   1.581   2.732
22692WAT      O68317   2.125   4.488   5.840
22692WAT     H168318   2.135   4.555   5.914
22692WAT     H268319   2.036   4.444   5.847
22693WAT      O68320   5.595   5.703   8.281
22693WAT     H168321   5.611   5.606   8.261
22693WAT     H268322   5.515   5.735   8.230
22694WAT      O68323   9.674   2.587   7.598
22694WAT     H168324   9.655   2.492   7.620
22694WAT     H268325   9.771   2.597   7.575
22695WAT      O68326   8.153   5.671   1.176
22695WAT     H168327   8.216   5.648   1.250
22695WAT     H268328   8.090   5.742   1.208
22696WAT      O68329   5.319   7.554   6.767
22696WAT     H168330   5.289   7.625   6.702
22696WAT     H268331   5.303   7.464   6.727
22697WAT      O68332   1.984   6.980   6.299
22697WAT     H168333   2.063   6.948   6.246
22697WAT     H268334   1.906   6.919   6.282
22698WAT      O68335   3.661   1.634   5.826
22698WAT     H168336   3.577   1.665   5.871
22698WAT     H268337   3.740   1.665   5.878
22699WAT      O68338   6.454   9.655   1.638
22699WAT     H168339   6.468   9.582   1.705
22699WAT     H268340   6.494   9.628   1.551
22700WAT      O68341   4.577   7.369   0.440
22700WAT     H168342   4.623   7.337   0.357
22700WAT     H268343   4.620   7.454   0.472
22701WAT      O68344   0.552   7.308   6.815
22701WAT     H168345   0.617   7.365   6.866
22701WAT     H268346   0.462   7.315   6.857
22702WAT      O68347   7.193   0.310   4.646
22702WAT     H168348   7.125   0.314   4.720
22702WAT     H268349   7.145   0.307   4.558
22703WAT      O68350   5.560   7.490   3.688
22703WAT     H168351   5.578   7.587   3.707
22703WAT     H268352   5.509   7.482   3.603
22704WAT      O68353   9.319   3.041   6.291
22704WAT     H168354   9.394   3.100   6.324
22704WAT     H268355   9.300   3.063   6.195
22705WAT      O68356   1.974   6.203   7.152
22705WAT     H168357   1.960   6.243   7.243
22705WAT     H268358   1.891   6.212   7.098
22706WAT      O68359   5.491   1.180   7.532
22706WAT     H168360   5.443   1.117   7.592
22706WAT     H268361   5.590   1.168   7.543
22707WAT      O68362   3.961   4.061   1.292
22707WAT     H168363   3.879   4.106   1.327
22707WAT     H268364   4.039   4.123   1.301
22708WAT      O68365   3.369   2.595   3.695
22708WAT     H168366   3.456   2.548   3.677
22708WAT     H268367   3.386   2.679   3.746
22709WAT      O68368   1.077   9.041   7.537
22709WAT     H168369   0.985   9.036   7.576
22709WAT     H268370   1.080   9.111   7.466
22710WAT      O68371   0.839   7.226   5.480
22710WAT     H168372   0.858   7.158   5.409
22710WAT     H268373   0.816   7.180   5.566
22711WAT      O68374   0.691   8.697   1.554
22711WAT     H168375   0.628   8.639   1.503
22711WAT     H268376   0.775   8.710   1.501
22712WAT      O68377   1.934   6.462   4.516
22712WAT     H168378   1.945   6.534   4.447
22712WAT     H268379   2.022   6.445   4.561
22713WAT      O68380   7.169   6.828   9.731
22713WAT     H168381   7.074   6.846   9.706
22713WAT     H268382   7.171   6.765   9.809
22714WAT      O68383   3.254   3.657   7.975
22714WAT     H168384   3.157   3.669   7.998
22714WAT     H268385   3.298   3.746   7.966
22715WAT      O68386   7.647   5.449   9.794
22715WAT     H168387   7.601   5.370   9.754
22715WAT     H268388   7.607   5.469   9.884
22716WAT      O68389   1.058   7.187   4.671
22716WAT     H168390   1.040   7.285   4.677
22716WAT     H268391   1.023   7.151   4.585
22717WAT      O68392   1.447   9.263   8.450
22717WAT     H168393   1.365   9.301   8.408
22717WAT     H268394   1.514   9.336   8.463
22718WAT      O68395   3.419   8.028   2.980
22718WAT     H168396   3.440   8.018   3.078
22718WAT     H268397   3.330   7.988   2.962
22719WAT      O68398   8.369   1.952   4.941
22719WAT     H168399   8.368   1.853   4.929
22719WAT     H268400   8.390   1.996   4.854
22720WAT      O68401   6.678   6.773   3.566
22720WAT     H168402   6.579   6.761   3.558
22720WAT     H268403   6.706   6.856   3.518
22721WAT      O68404   0.565   5.779   7.409
22721WAT     H168405   0.607   5.826   7.331
22721WAT     H268406   0.505   5.842   7.458
22722WAT      O68407   4.871   5.989   4.173
22722WAT     H168408   4.901   5.963   4.265
22722WAT     H268409   4.779   6.027   4.178
22723WAT      O68410   3.076   5.678   5.162
22723WAT     H168411   3.106   5.604   5.222
22723WAT     H268412   3.121   5.669   5.074
22724WAT      O68413   0.904   3.581   8.322
22724WAT     H168414   0.993   3.610   8.356
22724WAT     H268415   0.916   3.512   8.250
22725WAT      O68416   0.595   1.124   1.434
22725WAT     H168417   0.505   1.109   1.394
22725WAT     H268418   0.587   1.128   1.534
22726WAT      O68419   9.267   8.102   9.170
22726WAT     H168420   9.314   8.141   9.249
22726WAT     H268421   9.169   8.118   9.179
22727WAT      O68422   2.306   8.050   2.246
22727WAT     H168423   2.218   8.007   2.226
22727WAT     H268424   2.300   8.148   2.229
22728WAT      O68425   1.617   7.072   2.125
22728WAT     H168426   1.659   7.154   2.164
22728WAT     H268427   1.567   7.097   2.042
22729WAT      O68428   4.480   4.458   9.821
22729WAT     H168429   4.578   4.474   9.832
22729WAT     H268430   4.437   4.541   9.785
22730WAT      O68431   0.121   7.110   7.046
22730WAT     H168432   0.133   7.200   7.004
22730WAT     H268433   0.056   7.057   6.993
22731WAT      O68434   7.332   2.794   9.345
22731WAT     H168435   7.431   2.797   9.332
22731WAT     H268436   7.296   2.886   9.353
22732WAT      O68437   5.811   5.102   9.219
22732WAT     H168438   5.835   5.199   9.227
22732WAT     H268439   5.729   5.084   9.274
22733WAT      O68440   0.720   7.138   2.252
22733WAT     H168441   0.640   7.099   2.206
22733WAT     H268442   0.754   7.073   2.320
22734WAT      O68443   1.204   1.212   1.796
22734WAT     H168444   1.186   1.193   1.893
22734WAT     H268445   1.162   1.300   1.771
22735WAT      O68446   9.640   1.768   9.813
22735WAT     H168447   9.681   1.684   9.848
22735WAT     H268448   9.630   1.833   9.887
22736WAT      O68449   7.556   8.819   1.636
22736WAT     H168450   7.596   8.896   1.587
22736WAT     H268451   7.492   8.770   1.576
22737WAT      O68452   0.974   7.561   2.508
22737WAT     H168453   0.923   7.601   2.432
22737WAT     H268454   0.960   7.616   2.590
22738WAT      O68455   6.651   5.003   2.122
22738WAT     H168456   6.587   5.005   2.199
22738WAT     H268457   6.703   5.088   2.120
22739WAT      O68458   5.164   2.979   7.918
22739WAT     H168459   5.228   3.014   7.850
22739WAT     H268460   5.206   2.905   7.969
22740WAT      O68461   0.567   3.140   5.329
22740WAT     H168462   0.666   3.150   5.318
22740WAT     H268463   0.539   3.180   5.416
22741WAT      O68464   4.544   3.353   2.075
22741WAT     H168465   4.604   3.432   2.086
22741WAT     H268466   4.593   3.279   2.029
22742WAT      O68467   8.823   0.069   1.924
22742WAT     H168468   8.779   0.158   1.915
22742WAT     H268469   8.862   0.042   1.836
22743WAT      O68470   5.189   5.069   1.606
22743WAT     H168471   5.233   4.981   1.624
22743WAT     H268472   5.090   5.058   1.607
22744WAT      O68473   3.959   1.903   4.673
22744WAT     H168474   4.007   1.908   4.761
22744WAT     H268475   3.903   1.985   4.661
22745WAT      O68476   6.881   8.410   3.489
22745WAT     H168477   6.960   8.471   3.477
22745WAT     H268478   6.800   8.451   3.448
22746WAT      O68479   8.543   4.486   3.250
22746WAT     H168480   8.517   4.576   3.216
22746WAT     H268481   8.487   4.462   3.330
22747WAT      O68482   3.275   4.755   2.118
22747WAT     H168483   3.279   4.833   2.181
22747WAT     H268484   3.367   4.726   2.095
22748WAT      O68485   5.038   4.032   9.306
22748WAT     H168486   5.001   4.037   9.399
22748WAT     H268487   4.972   4.068   9.241
22749WAT      O68488   5.237   1.924   5.103
22749WAT     H168489   5.257   2.019   5.078
22749WAT     H268490   5.171   1.923   5.178
22750WAT      O68491   4.047   4.431   2.558
22750WAT     H168492   4.077   4.354   2.614
22750WAT     H268493   3.991   4.493   2.614
22751WAT      O68494   7.756   3.890   5.348
22751WAT     H168495   7.803   3.944   5.279
22751WAT     H268496   7.741   3.797   5.313
22752WAT      O68497   2.313   5.829   1.147
22752WAT     H168498   2.318   5.897   1.074
22752WAT     H268499   2.241   5.762   1.126
22753WAT      O68500   8.886   0.208   5.388
22753WAT     H168501   8.839   0.297   5.384
22753WAT     H268502   8.866   0.164   5.475
22754WAT      O68503   9.025   3.150   5.686
22754WAT     H168504   8.958   3.104   5.745
22754WAT     H268505   9.040   3.243   5.720
22755WAT      O68506   2.557   3.943   4.770
22755WAT     H168507   2.489   3.997   4.820
22755WAT     H268508   2.570   3.855   4.814
22756WAT      O68509   2.561   1.109   9.230
22756WAT     H168510   2.496   1.185   9.237
22756WAT     H268511   2.650   1.137   9.266
22757WAT      O68512   0.393   2.785   5.686
22757WAT     H168513   0.412   2.818   5.593
22757WAT     H268514   0.457   2.711   5.708
22758WAT      O68515   4.209   6.411   4.097
22758WAT     H168516   4.276   6.361   4.153
22758WAT     H268517   4.217   6.381   4.002
22759WAT      O68518   4.062   0.056   0.000
22759WAT     H168519   4.066  -0.010   0.075
22759WAT     H268520   4.155   0.078  -0.029
22760WAT      O68521   4.453   1.504   0.546
22760WAT     H168522   4.468   1.406   0.560
22760WAT     H268523   4.370   1.533   0.593
22761WAT      O68524   2.499   4.848   7.995
22761WAT     H168525   2.531   4.908   8.068
22761WAT     H268526   2.402   4.827   8.008
22762WAT      O68527   7.589   8.341   4.987
22762WAT     H168528   7.492   8.363   4.981
22762WAT     H268529   7.638   8.419   5.028
22763WAT      O68530   7.241   2.879   1.553
22763WAT     H168531   7.232   2.979   1.550
22763WAT     H268532   7.298   2.853   1.631
22764WAT      O68533   3.386   3.994   2.956
22764WAT     H168534   3.397   4.069   2.891
22764WAT     H268535   3.322   3.927   2.919
22765WAT      O68536   0.365   9.827   9.364
22765WAT     H168537   0.357   9.782   9.453
22765WAT     H268538   0.343   9.762   9.292
22766WAT      O68539   5.545   0.230   3.966
22766WAT     H168540   5.465   0.278   4.002
22766WAT     H268541   5.609   0.209   4.040
22767WAT      O68542   9.246   3.108   5.079
22767WAT     H168543   9.245   3.009   5.097
22767WAT     H268544   9.175   3.153   5.133
22768WAT      O68545   7.451   3.198   8.549
22768WAT     H168546   7.469   3.150   8.635
22768WAT     H268547   7.526   3.262   8.529
22769WAT      O68548   8.158   5.306   7.645
22769WAT     H168549   8.109   5.288   7.559
22769WAT     H268550   8.152   5.225   7.704
22770WAT      O68551   8.674   5.216   9.191
22770WAT     H168552   8.611   5.289   9.218
22770WAT     H268553   8.627   5.128   9.194
22771WAT      O68554   3.591   5.481   7.441
22771WAT     H168555   3.512   5.434   7.401
22771WAT     H268556   3.582   5.481   7.540
22772WAT      O68557   6.475   8.590   1.897
22772WAT     H168558   6.555   8.543   1.860
22772WAT     H268559   6.476   8.686   1.867
22773WAT      O68560   0.364   5.403   4.523
22773WAT     H168561   0.463   5.411   4.533
22773WAT     H268562   0.330   5.328   4.580
22774WAT      O68563   4.477   3.350   8.066
22774WAT     H168564   4.392   3.362   8.118
22774WAT     H268565   4.553   3.336   8.130
22775WAT      O68566   7.790   6.995   4.819
22775WAT     H168567   7.838   7.076   4.849
22775WAT     H268568   7.806   6.981   4.721
22776WAT      O68569   5.828   2.885   6.684
22776WAT     H168570   5.820   2.821   6.760
22776WAT     H268571   5.904   2.857   6.625
22777WAT      O68572   8.550   3.720   6.860
22777WAT     H168573   8.586   3.652   6.924
22777WAT     H268574   8.482   3.677   6.800
22778WAT      O68575   5.046   8.274   8.809
22778WAT     H168576   5.142   8.285   8.785
22778WAT     H268577   5.037   8.265   8.908
22779WAT      O68578   3.045   8.581   6.149
22779WAT     H168579   2.969   8.579   6.214
22779WAT     H268580   3.015   8.620   6.062
22780WAT      O68581   5.069   8.026   8.675
22780WAT     H168582   5.059   8.119   8.710
22780WAT     H268583   5.025   7.961   8.738
22781WAT      O68584   1.627   5.314   2.886
22781WAT     H168585   1.632   5.386   2.817
22781WAT     H268586   1.627   5.355   2.977
22782WAT      O68587   0.684   0.202   7.446
22782WAT     H168588   0.704   0.262   7.369
22782WAT     H268589   0.586   0.205   7.467
22783WAT      O68590   9.429   9.812   7.944
22783WAT     H168591   9.375   9.884   7.989
22783WAT     H268592   9.525   9.841   7.939
22784WAT      O68593   4.956   0.846   7.870
22784WAT     H168594   4.877   0.786   7.856
22784WAT     H268595   5.030   0.820   7.808
22785WAT      O68596   4.038   7.466   9.723
22785WAT     H168597   3.959   7.420   9.763
22785WAT     H268598   4.064   7.543   9.781
22786WAT      O68599   2.259   0.039   0.332
22786WAT     H168600   2.258  -0.007   0.421
22786WAT     H268601   2.328  -0.004   0.273
22787WAT      O68602   9.860   4.260   2.359
22787WAT     H168603   9.865   4.303   2.449
22787WAT     H268604   9.905   4.171   2.362
22788WAT      O68605   6.352   7.784   8.011
22788WAT     H168606   6.335   7.849   7.937
22788WAT     H268607   6.269   7.772   8.065
22789WAT      O68608   8.012   9.454   9.700
22789WAT     H168609   7.940   9.475   9.634
22789WAT     H268610   7.977   9.391   9.770
22790WAT      O68611   7.932   5.773   6.447
22790WAT     H168612   7.838   5.762   6.413
22790WAT     H268613   7.979   5.685   6.442
22791WAT      O68614   6.581   9.369   6.056
22791WAT     H168615   6.521   9.366   6.136
22791WAT     H268616   6.558   9.293   5.995
22792WAT      O68617   6.270   9.225   6.377
22792WAT     H168618   6.182   9.240   6.422
22792WAT     H268619   6.255   9.205   6.281
22793WAT      O68620   4.149   4.895   3.524
22793WAT     H168621   4.065   4.886   3.469
22793WAT     H268622   4.204   4.812   3.513
22794WAT      O68623   4.419   5.008   9.627
22794WAT     H168624   4.457   5.053   9.707
22794WAT     H268625   4.391   5.077   9.560
22795WAT      O68626   1.837   7.487   9.574
22795WAT     H168627   1.800   7.395   9.572
22795WAT     H268628   1.881   7.507   9.486
22796WAT      O68629   6.997   9.029   2.049
22796WAT     H168630   6.967   9.114   2.092
22796WAT     H268631   7.082   9.046   1.998
22797WAT      O68632   4.908   3.603   0.586
22797WAT     H168633   4.994   3.643   0.620
22797WAT     H268634   4.892   3.516   0.632
22798WAT      O68635   2.915   0.687   9.295
22798WAT     H168636   2.929   0.601   9.246
22798WAT     H268637   2.818   0.713   9.288
22799WAT      O68638   0.338   6.012   0.763
22799WAT     H168639   0.379   6.025   0.854
22799WAT     H268640   0.238   6.021   0.770
22800WAT      O68641   4.355   9.613   6.524
22800WAT     H168642   4.382   9.699   6.565
22800WAT     H268643   4.260   9.618   6.494
22801WAT      O68644   5.135   0.377   3.348
22801WAT     H168645   5.137   0.278   3.357
22801WAT     H268646   5.041   0.410   3.350
22802WAT      O68647   3.671   2.027   7.167
22802WAT     H168648   3.740   1.975   7.116
22802WAT     H268649   3.717   2.089   7.231
22803WAT      O68650   5.345   6.462   0.564
22803WAT     H168651   5.397   6.492   0.644
22803WAT     H268652   5.358   6.364   0.550
22804WAT      O68653   6.784   6.782   4.993
22804WAT     H168654   6.845   6.802   5.069
22804WAT     H268655   6.692   6.815   5.015
22805WAT      O68656   6.058   8.904   4.807
22805WAT     H168657   6.094   8.990   4.844
22805WAT     H268658   6.103   8.827   4.852
22806WAT      O68659   6.454   6.851   9.349
22806WAT     H168660   6.526   6.919   9.337
22806WAT     H268661   6.401   6.844   9.265
22807WAT      O68662   4.544   5.383   4.181
22807WAT     H168663   4.499   5.324   4.247
22807WAT     H268664   4.525   5.352   4.088
22808WAT      O68665   1.499   3.236   6.501
22808WAT     H168666   1.591   3.207   6.475
22808WAT     H268667   1.442   3.155   6.519
22809WAT      O68668   1.503   7.013   4.056
22809WAT     H168669   1.436   7.012   4.131
22809WAT     H268670   1.578   6.951   4.078
22810WAT      O68671   5.703   2.566   7.073
22810WAT     H168672   5.708   2.639   7.141
22810WAT     H268673   5.778   2.501   7.088
22811WAT      O68674   1.269   1.466   5.451
22811WAT     H168675   1.201   1.463   5.378
22811WAT     H268676   1.225   1.451   5.539
22812WAT      O68677   3.962   2.154   4.214
22812WAT     H168678   4.029   2.081   4.224
22812WAT     H268679   4.007   2.243   4.226
22813WAT      O68680   4.234   5.419   0.670
22813WAT     H168681   4.219   5.444   0.575
22813WAT     H268682   4.200   5.326   0.685
22814WAT      O68683   6.713   4.699   0.696
22814WAT     H168684   6.714   4.636   0.617
22814WAT     H268685   6.633   4.679   0.752
22815WAT      O68686   4.799   7.659   5.298
22815WAT     H168687   4.850   7.598   5.236
22815WAT     H268688   4.735   7.714   5.245
22816WAT      O68689   5.547   7.517   6.134
22816WAT     H168690   5.531   7.451   6.060
22816WAT     H268691   5.463   7.569   6.151
22817WAT      O68692   7.249   4.709   6.612
22817WAT     H168693   7.231   4.770   6.689
22817WAT     H268694   7.347   4.692   6.604
22818WAT      O68695   2.039   4.195   7.800
22818WAT     H168696   1.975   4.257   7.845
22818WAT     H268697   1.989   4.122   7.755
22819WAT      O68698   0.250   7.622   1.713
22819WAT     H168699   0.279   7.625   1.808
22819WAT     H268700   0.154   7.651   1.706
22820WAT      O68701   8.122   6.338   6.354
22820WAT     H168702   8.037   6.288   6.335
22820WAT     H268703   8.100   6.422   6.404
22821WAT      O68704   3.474   4.281   9.400
22821WAT     H168705   3.459   4.358   9.338
22821WAT     H268706   3.408   4.209   9.380
22822WAT      O68707   1.099   3.036   9.046
22822WAT     H168708   1.085   3.112   8.983
22822WAT     H268709   1.018   2.978   9.047
22823WAT      O68710   9.273   8.913   5.705
22823WAT     H168711   9.267   8.837   5.769
22823WAT     H268712   9.219   8.990   5.739
22824WAT      O68713   1.988   5.624   4.765
22824WAT     H168714   1.893   5.598   4.780
22824WAT     H268715   2.025   5.571   4.688
22825WAT      O68716   4.251   5.637   9.403
22825WAT     H168717   4.180   5.569   9.421
22825WAT     H268718   4.249   5.707   9.475
22826WAT      O68719   0.174   3.207   0.223
22826WAT     H168720   0.187   3.181   0.127
22826WAT     H268721   0.256   3.253   0.256
22827WAT      O68722   1.302   9.541   3.457
22827WAT     H168723   1.377   9.506   3.513
22827WAT     H268724   1.217   9.497   3.483
22828WAT      O68725   3.594   5.153   8.660
22828WAT     H168726   3.561   5.248   8.662
22828WAT     H268727   3.601   5.123   8.565
22829WAT      O68728   0.111   4.953   4.850
22829WAT     H168729   0.201   4.946   4.893
22829WAT     H268730   0.041   4.972   4.920
22830WAT      O68731   6.898   0.326   0.327
22830WAT     H168732   6.880   0.230   0.348
22830WAT     H268733   6.816   0.368   0.289
22831WAT      O68734   1.872   5.605   8.019
22831WAT     H168735   1.850   5.651   8.105
22831WAT     H268736   1.802   5.536   7.999
22832WAT      O68737   4.038   8.137   3.693
22832WAT     H168738   4.009   8.128   3.788
22832WAT     H268739   4.126   8.090   3.680
22833WAT      O68740   4.071   4.243   6.383
22833WAT     H168741   4.095   4.208   6.292
22833WAT     H268742   4.088   4.172   6.452
22834WAT      O68743   5.373   8.197   8.022
22834WAT     H168744   5.325   8.283   8.008
22834WAT     H268745   5.397   8.188   8.119
22835WAT      O68746   5.783   7.276   4.193
22835WAT     H168747   5.710   7.319   4.139
22835WAT     H268748   5.753   7.269   4.288
22836WAT      O68749   5.269   0.196   0.830
22836WAT     H168750   5.279   0.097   0.828
22836WAT     H268751   5.253   0.226   0.924
22837WAT      O68752   1.870   3.703   3.541
22837WAT     H168753   1.796   3.764   3.570
22837WAT     H268754   1.887   3.714   3.443
22838WAT      O68755   1.538   6.648   1.144
22838WAT     H168756   1.552   6.742   1.114
22838WAT     H268757   1.458   6.609   1.099
22839WAT      O68758   8.953   2.210   5.913
22839WAT     H168759   8.891   2.203   5.836
22839WAT     H268760   9.021   2.281   5.895
22840WAT      O68761   8.814   8.416   4.113
22840WAT     H168762   8.913   8.399   4.114
22840WAT     H268763   8.767   8.339   4.157
22841WAT      O68764   0.115   9.280   7.356
22841WAT     H168765   0.030   9.293   7.305
22841WAT     H268766   0.108   9.196   7.410
22842WAT      O68767   8.897   3.801   6.851
22842WAT     H168768   8.825   3.864   6.823
22842WAT     H268769   8.935   3.756   6.770
22843WAT      O68770   5.448   8.312   6.306
22843WAT     H168771   5.381   8.238   6.315
22843WAT     H268772   5.502   8.318   6.390
22844WAT      O68773   7.515   6.844   6.829
22844WAT     H168774   7.586   6.913   6.846
22844WAT     H268775   7.461   6.870   6.749
22845WAT      O68776   2.945   3.640   1.918
22845WAT     H168777   2.898   3.591   1.845
22845WAT     H268778   2.975   3.575   1.988
22846WAT      O68779   1.561   2.109   1.406
22846WAT     H168780   1.630   2.042   1.376
22846WAT     H268781   1.559   2.186   1.343
22847WAT      O68782   1.426   9.296   3.309
22847WAT     H168783   1.486   9.334   3.380
22847WAT     H268784   1.482   9.260   3.235
22848WAT      O68785   3.625   3.474   0.878
22848WAT     H168786   3.615   3.475   0.978
22848WAT     H268787   3.555   3.532   0.837
22849WAT      O68788   0.431   9.535   8.666
22849WAT     H168789   0.357   9.596   8.693
22849WAT     H268790   0.455   9.552   8.570
22850WAT      O68791   9.565   0.094   1.709
22850WAT     H168792   9.596   0.169   1.651
22850WAT     H268793   9.642   0.060   1.763
22851WAT      O68794   8.522   7.589   7.140
22851WAT     H168795   8.616   7.589   7.105
22851WAT     H268796   8.458   7.579   7.064
22852WAT      O68797   7.018   8.452   5.297
22852WAT     H168798   6.999   8.359   5.266
22852WAT     H268799   7.117   8.463   5.308
22853WAT      O68800   2.301   4.674   0.976
22853WAT     H168801   2.227   4.622   1.018
22853WAT     H268802   2.277   4.771   0.975
22854WAT      O68803   1.378   6.833   6.346
22854WAT     H168804   1.461   6.881   6.316
22854WAT     H268805   1.404   6.749   6.394
22855WAT      O68806   4.899   1.239   8.625
22855WAT     H168807   4.838   1.294   8.682
22855WAT     H268808   4.989   1.281   8.623
22856WAT      O68809   9.472   9.488   5.077
22856WAT     H168810   9.422   9.573   5.091
22856WAT     H268811   9.542   9.478   5.147
22857WAT      O68812   5.866   2.190   6.853
22857WAT     H168813   5.859   2.091   6.865
22857WAT     H268814   5.960   2.219   6.872
22858WAT      O68815   9.501   0.681   7.573
22858WAT     H168816   9.424   0.627   7.539
22858WAT     H268817   9.508   0.766   7.521
22859WAT      O68818   5.660   6.758   4.107
22859WAT     H168819   5.725   6.817   4.155
22859WAT     H268820   5.674   6.663   4.135
22860WAT      O68821   5.055   9.433   6.469
22860WAT     H168822   5.114   9.393   6.538
22860WAT     H268823   5.089   9.523   6.444
22861WAT      O68824   5.907   0.911   0.805
22861WAT     H168825   5.932   0.931   0.900
22861WAT     H268826   5.809   0.931   0.792
22862WAT      O68827   2.784   5.415   9.498
22862WAT     H168828   2.691   5.396   9.530
22862WAT     H268829   2.813   5.341   9.437
22863WAT      O68830   3.873   2.132   2.349
22863WAT     H168831   3.897   2.209   2.409
22863WAT     H268832   3.798   2.159   2.289
22864WAT      O68833   9.483   4.331   8.869
22864WAT     H168834   9.530   4.417   8.847
22864WAT     H268835   9.438   4.339   8.958
22865WAT      O68836   6.581   9.578   7.525
22865WAT     H168837   6.500   9.527   7.552
22865WAT     H268838   6.554   9.668   7.491
22866WAT      O68839   8.147   9.787   3.092
22866WAT     H168840   8.205   9.779   3.011
22866WAT     H268841   8.166   9.873   3.139
22867WAT      O68842   4.206   5.820   7.188
22867WAT     H168843   4.254   5.785   7.107
22867WAT     H268844   4.260   5.894   7.229
22868WAT      O68845   0.558   7.285   3.216
22868WAT     H168846   0.575   7.336   3.300
22868WAT     H268847   0.490   7.333   3.161
22869WAT      O68848   7.004   5.794   1.060
22869WAT     H168849   6.905   5.795   1.046
22869WAT     H268850   7.050   5.784   0.973
22870WAT      O68851   7.051   7.324   3.066
22870WAT     H168852   7.108   7.264   3.121
22870WAT     H268853   7.012   7.396   3.123
22871WAT      O68854   6.973   3.440   5.191
22871WAT     H168855   6.994   3.538   5.191
22871WAT     H268856   6.875   3.427   5.174
22872WAT      O68857   3.356   1.763   9.444
22872WAT     H168858   3.445   1.718   9.442
22872WAT     H268859   3.286   1.700   9.411
22873WAT      O68860   8.260   8.215   8.776
22873WAT     H168861   8.211   8.300   8.798
22873WAT     H268862   8.287   8.217   8.680
22874WAT      O68863   7.114   6.392   3.738
22874WAT     H168864   7.192   6.336   3.712
22874WAT     H268865   7.095   6.459   3.666
22875WAT      O68866   9.222   8.229   1.906
22875WAT     H168867   9.304   8.263   1.859
22875WAT     H268868   9.216   8.130   1.894
22876WAT      O68869   4.745   4.426   5.424
22876WAT     H168870   4.786   4.423   5.332
22876WAT     H268871   4.649   4.452   5.417
22877WAT      O68872   2.808   3.711   9.209
22877WAT     H168873   2.872   3.786   9.227
22877WAT     H268874   2.787   3.664   9.295
22878WAT      O68875   8.016   0.119   9.137
22878WAT     H168876   8.016   0.019   9.143
22878WAT     H268877   7.945   0.148   9.072
22879WAT      O68878   1.947   1.918   4.804
22879WAT     H168879   1.957   2.003   4.753
22879WAT     H268880   1.958   1.840   4.742
22880WAT      O68881   8.951   2.441   5.438
22880WAT     H168882   8.895   2.523   5.444
22880WAT     H268883   9.005   2.443   5.353
22881WAT      O68884   0.752   0.136   4.156
22881WAT     H168885   0.717   0.105   4.245
22881WAT     H268886   0.802   0.061   4.113
22882WAT      O68887   5.219   8.538   4.446
22882WAT     H168888   5.158   8.497   4.514
22882WAT     H268889   5.183   8.520   4.355
22883WAT      O68890   4.474   9.377   6.456
22883WAT     H168891   4.440   9.470   6.465
22883WAT     H268892   4.412   9.325   6.397
22884WAT      O68893   7.260   8.533   3.689
22884WAT     H168894   7.205   8.471   3.745
22884WAT     H268895   7.357   8.513   3.703
22885WAT      O68896   1.153   4.269   5.014
22885WAT     H168897   1.203   4.356   5.007
22885WAT     H268898   1.203   4.199   4.962
22886WAT      O68899   6.369   7.231   5.312
22886WAT     H168900   6.317   7.162   5.362
22886WAT     H268901   6.311   7.312   5.299
22887WAT      O68902   6.356   5.299   7.333
22887WAT     H168903   6.321   5.266   7.421
22887WAT     H268904   6.361   5.399   7.334
22888WAT      O68905   8.224   5.262   0.148
22888WAT     H168906   8.228   5.203   0.068
22888WAT     H268907   8.295   5.332   0.142
22889WAT      O68908   8.027   0.548   0.701
22889WAT     H168909   7.946   0.567   0.755
22889WAT     H268910   8.044   0.449   0.697
22890WAT      O68911   8.481   8.259   2.821
22890WAT     H168912   8.386   8.282   2.841
22890WAT     H268913   8.524   8.333   2.770
22891WAT      O68914   8.027   8.887   8.212
22891WAT     H168915   7.931   8.878   8.186
22891WAT     H268916   8.084   8.848   8.140
22892WAT      O68917   6.233   3.840   4.028
22892WAT     H168918   6.254   3.752   3.986
22892WAT     H268919   6.157   3.829   4.092
22893WAT      O68920   2.996   9.288   1.393
22893WAT     H168921   3.006   9.220   1.320
22893WAT     H268922   2.919   9.348   1.372
22894WAT      O68923   4.928   3.367   5.576
22894WAT     H168924   5.012   3.355   5.628
22894WAT     H268925   4.851   3.329   5.627
22895WAT      O68926   4.845   5.550   1.221
22895WAT     H168927   4.844   5.497   1.136
22895WAT     H268928   4.932   5.598   1.230
22896WAT      O68929   7.673   4.352   4.878
22896WAT     H168930   7.714   4.438   4.846
22896WAT     H268931   7.581   4.343   4.840
22897WAT      O68932   3.263   3.845   6.714
22897WAT     H168933   3.339   3.895   6.672
22897WAT     H268934   3.178   3.896   6.700
22898WAT      O68935   5.919   8.172   0.267
22898WAT     H168936   5.948   8.132   0.180
22898WAT     H268937   5.930   8.271   0.264
22899WAT      O68938   4.965   7.544   1.712
22899WAT     H168939   5.052   7.583   1.744
22899WAT     H268940   4.982   7.486   1.633
22900WAT      O68941   5.961   4.493   2.061
22900WAT     H168942   6.001   4.573   2.104
22900WAT     H268943   5.928   4.430   2.132
22901WAT      O68944   7.323   7.928   1.464
22901WAT     H168945   7.364   8.007   1.510
22901WAT     H268946   7.395   7.865   1.436
22902WAT      O68947   3.414   6.195   7.965
22902WAT     H168948   3.372   6.164   7.880
22902WAT     H268949   3.447   6.116   8.017
22903WAT      O68950   7.622   8.090   2.240
22903WAT     H168951   7.700   8.148   2.265
22903WAT     H268952   7.647   7.994   2.252
22904WAT      O68953   7.137   8.409   8.436
22904WAT     H168954   7.182   8.478   8.379
22904WAT     H268955   7.075   8.354   8.381
22905WAT      O68956   7.368   0.839   0.135
22905WAT     H168957   7.297   0.773   0.112
22905WAT     H268958   7.332   0.932   0.128
22906WAT      O68959   9.368   3.069   7.238
22906WAT     H168960   9.452   3.015   7.245
22906WAT     H268961   9.299   3.016   7.188
22907WAT      O68962   4.631   8.328   1.366
22907WAT     H168963   4.648   8.269   1.287
22907WAT     H268964   4.679   8.415   1.353
22908WAT      O68965   1.345   7.808   0.356
22908WAT     H168966   1.423   7.847   0.308
22908WAT     H268967   1.267   7.803   0.293
22909WAT      O68968   9.714   2.282   0.788
22909WAT     H168969   9.617   2.305   0.777
22909WAT     H268970   9.726   2.184   0.774
22910WAT      O68971   4.178   3.634   6.535
22910WAT     H168972   4.130   3.647   6.448
22910WAT     H268973   4.276   3.627   6.517
22911WAT      O68974   0.669   4.099   8.977
22911WAT     H168975   0.739   4.168   8.992
22911WAT     H268976   0.683   4.055   8.888
22912WAT      O68977   8.549   4.324   9.067
22912WAT     H168978   8.631   4.374   9.095
22912WAT     H268979   8.553   4.231   9.103
22913WAT      O68980   7.886   2.671   9.661
22913WAT     H168981   7.868   2.579   9.695
22913WAT     H268982   7.977   2.674   9.619
22914WAT      O68983   7.617   5.073   6.746
22914WAT     H168984   7.715   5.085   6.732
22914WAT     H268985   7.599   5.046   6.840
22915WAT      O68986   0.783   7.044   6.209
22915WAT     H168987   0.762   7.133   6.251
22915WAT     H268988   0.740   7.039   6.119
22916WAT      O68989   5.410   8.308   0.232
22916WAT     H168990   5.500   8.352   0.225
22916WAT     H268991   5.397   8.245   0.156
22917WAT      O68992   7.142   0.885   7.560
22917WAT     H168993   7.230   0.839   7.547
22917WAT     H268994   7.092   0.884   7.473
22918WAT      O68995   2.046   7.475   4.083
22918WAT     H168996   2.130   7.455   4.032
22918WAT     H268997   1.997   7.551   4.039
22919WAT      O68998   6.494   0.989   6.631
22919WAT     H168999   6.568   0.929   6.602
22919WAT     H269000   6.431   1.003   6.555
22920WAT      O69001   0.916   3.720   0.279
22920WAT     H169002   0.901   3.819   0.284
22920WAT     H269003   1.014   3.701   0.285
22921WAT      O69004   0.160   5.175   9.483
22921WAT     H169005   0.195   5.173   9.390
22921WAT     H269006   0.072   5.128   9.487
22922WAT      O69007   5.338   3.418   1.626
22922WAT     H169008   5.297   3.446   1.539
22922WAT     H269009   5.437   3.413   1.616
22923WAT      O69010   5.756   2.992   8.922
22923WAT     H169011   5.828   3.029   8.980
22923WAT     H269012   5.667   3.021   8.957
22924WAT      O69013   7.195   4.317   8.651
22924WAT     H169014   7.233   4.262   8.577
22924WAT     H269015   7.238   4.407   8.652
22925WAT      O69016   5.128   8.362   7.012
22925WAT     H169017   5.074   8.324   6.937
22925WAT     H269018   5.099   8.456   7.030
22926WAT      O69019   8.927   0.958   2.090
22926WAT     H169020   8.879   0.896   2.028
22926WAT     H269021   8.872   1.040   2.106
22927WAT      O69022   1.431   8.082   2.103
22927WAT     H169023   1.498   8.013   2.130
22927WAT     H269024   1.399   8.131   2.185
22928WAT      O69025   9.597   4.223   2.933
22928WAT     H169026   9.679   4.280   2.927
22928WAT     H269027   9.553   4.238   3.022
22929WAT      O69028   1.327   5.853   6.386
22929WAT     H169029   1.389   5.824   6.313
22929WAT     H269030   1.313   5.951   6.381
22930WAT      O69031   6.791   7.960   4.832
22930WAT     H169032   6.787   7.930   4.928
22930WAT     H269033   6.753   7.889   4.774
22931WAT      O69034   4.321   1.767   8.056
22931WAT     H169035   4.246   1.827   8.026
22931WAT     H269036   4.328   1.688   7.995
22932WAT      O69037   8.128   1.075   4.032
22932WAT     H169038   8.033   1.053   4.008
22932WAT     H269039   8.165   1.139   3.965
22933WAT      O69040   8.409   2.126   0.804
22933WAT     H169041   8.472   2.203   0.814
22933WAT     H269042   8.341   2.129   0.877
22934WAT      O69043   5.897   8.212   2.150
22934WAT     H169044   5.815   8.155   2.143
22934WAT     H269045   5.965   8.166   2.206
22935WAT      O69046   6.488   8.538   2.320
22935WAT     H169047   6.428   8.513   2.244
22935WAT     H269048   6.545   8.615   2.293
22936WAT      O69049   9.737   3.642   1.115
22936WAT     H169050   9.713   3.621   1.210
22936WAT     H269051   9.734   3.741   1.101
22937WAT      O69052   1.019   9.770   2.342
22937WAT     H169053   1.021   9.816   2.253
22937WAT     H269054   1.080   9.691   2.340
22938WAT      O69055   2.568   6.526   9.750
22938WAT     H169056   2.587   6.457   9.820
22938WAT     H269057   2.646   6.532   9.687
22939WAT      O69058   8.029   5.326   9.476
22939WAT     H169059   7.973   5.360   9.551
22939WAT     H269060   8.118   5.296   9.511
22940WAT      O69061   1.068   5.927   0.980
22940WAT     H169062   1.057   5.923   0.881
22940WAT     H269063   1.036   5.842   1.021
22941WAT      O69064   7.420   5.422   8.594
22941WAT     H169065   7.410   5.445   8.691
22941WAT     H269066   7.382   5.331   8.577
22942WAT      O69067   7.546   2.600   2.416
22942WAT     H169068   7.583   2.525   2.471
22942WAT     H269069   7.565   2.687   2.462
22943WAT      O69070   8.097   2.865   4.271
22943WAT     H169071   8.175   2.826   4.222
22943WAT     H269072   8.123   2.884   4.365
22944WAT      O69073   0.633   4.594   4.147
22944WAT     H169074   0.706   4.555   4.203
22944WAT     H269075   0.547   4.549   4.169
22945WAT      O69076   0.730   0.532   8.737
22945WAT     H169077   0.643   0.485   8.741
22945WAT     H269078   0.745   0.567   8.644
22946WAT      O69079   7.261   8.989   5.969
22946WAT     H169080   7.208   9.049   6.029
22946WAT     H269081   7.214   8.981   5.881
22947WAT      O69082   9.459   3.566   3.721
22947WAT     H169083   9.403   3.580   3.803
22947WAT     H269084   9.554   3.549   3.748
22948WAT      O69085   4.716   0.051   3.298
22948WAT     H169086   4.745   0.102   3.379
22948WAT     H269087   4.628   0.087   3.267
22949WAT      O69088   2.998   2.537   8.880
22949WAT     H169089   2.922   2.593   8.846
22949WAT     H269090   2.971   2.441   8.879
22950WAT      O69091   7.371   6.290   9.566
22950WAT     H169092   7.326   6.379   9.564
22950WAT     H269093   7.429   6.284   9.647
22951WAT      O69094   5.187   6.489   9.073
22951WAT     H169095   5.131   6.489   8.990
22951WAT     H269096   5.176   6.577   9.120
22952WAT      O69097   9.067   2.541   6.507
22952WAT     H169098   9.040   2.454   6.547
22952WAT     H269099   9.156   2.531   6.461
22953WAT      O69100   0.802   4.962   9.477
22953WAT     H169101   0.725   4.935   9.535
22953WAT     H269102   0.870   5.010   9.533
22954WAT      O69103   2.207   9.692   1.732
22954WAT     H169104   2.197   9.785   1.768
22954WAT     H269105   2.123   9.641   1.748
22955WAT      O69106   7.153   5.212   8.004
22955WAT     H169107   7.212   5.229   7.925
22955WAT     H269108   7.165   5.118   8.036
22956WAT      O69109   8.344   3.708   3.750
22956WAT     H169110   8.386   3.633   3.699
22956WAT     H269111   8.280   3.671   3.817
22957WAT      O69112   4.587   4.845   5.693
22957WAT     H169113   4.678   4.838   5.652
22957WAT     H269114   4.519   4.807   5.630
22958WAT      O69115   1.997   7.359   2.517
22958WAT     H169116   1.970   7.298   2.443
22958WAT     H269117   1.925   7.363   2.586
22959WAT      O69118   5.242   7.071   8.747
22959WAT     H169119   5.162   7.098   8.801
22959WAT     H269120   5.325   7.091   8.799
22960WAT      O69121   2.658   3.006   8.199
22960WAT     H169122   2.560   2.990   8.191
22960WAT     H269123   2.683   3.016   8.295
22961WAT      O69124   2.970   8.477   9.171
22961WAT     H169125   2.987   8.402   9.108
22961WAT     H269126   2.951   8.441   9.262
22962WAT      O69127   7.728   5.744   6.267
22962WAT     H169128   7.743   5.744   6.168
22962WAT     H269129   7.642   5.791   6.288
22963WAT      O69130   1.266   0.266   0.996
22963WAT     H169131   1.275   0.177   0.952
22963WAT     H269132   1.184   0.312   0.963
22964WAT      O69133   8.713   0.606   6.790
22964WAT     H169134   8.637   0.558   6.835
22964WAT     H269135   8.675   0.674   6.726
22965WAT      O69136   0.273   7.330   1.198
22965WAT     H169137   0.199   7.272   1.163
22965WAT     H269138   0.265   7.421   1.158
22966WAT      O69139   3.933   6.558   8.434
22966WAT     H169140   3.885   6.610   8.505
22966WAT     H269141   3.999   6.496   8.477
22967WAT      O69142   9.026   1.919   3.364
22967WAT     H169143   9.107   1.932   3.421
22967WAT     H269144   9.049   1.863   3.284
22968WAT      O69145   2.884   0.613   2.893
22968WAT     H169146   2.830   0.684   2.938
22968WAT     H269147   2.844   0.524   2.911
22969WAT      O69148   5.296   2.108   9.456
22969WAT     H169149   5.257   2.145   9.540
22969WAT     H269150   5.303   2.008   9.463
22970WAT      O69151   5.501   2.314   1.189
22970WAT     H169152   5.439   2.246   1.149
22970WAT     H269153   5.549   2.273   1.266
22971WAT      O69154   2.674   2.606   1.575
22971WAT     H169155   2.606   2.644   1.512
22971WAT     H269156   2.669   2.506   1.572
22972WAT      O69157   7.120   4.687   0.556
22972WAT     H169158   7.122   4.780   0.592
22972WAT     H269159   7.050   4.681   0.485
22973WAT      O69160   7.633   7.775   0.329
22973WAT     H169161   7.704   7.728   0.381
22973WAT     H269162   7.557   7.712   0.314
22974WAT      O69163   7.213   2.393   1.683
22974WAT     H169164   7.196   2.446   1.600
22974WAT     H269165   7.138   2.408   1.747
22975WAT      O69166   3.116   8.143   2.582
22975WAT     H169167   3.032   8.170   2.536
22975WAT     H269168   3.148   8.056   2.546
22976WAT      O69169   8.951   7.795   0.241
22976WAT     H169170   9.015   7.810   0.317
22976WAT     H269171   8.947   7.697   0.220
22977WAT      O69172   7.543   8.476   8.172
22977WAT     H169173   7.472   8.502   8.106
22977WAT     H269174   7.555   8.549   8.239
22978WAT      O69175   5.848   4.024   1.663
22978WAT     H169176   5.798   4.106   1.695
22978WAT     H269177   5.927   4.052   1.610
22979WAT      O69178   8.655   8.872   4.916
22979WAT     H169179   8.720   8.831   4.852
22979WAT     H269180   8.564   8.834   4.900
22980WAT      O69181   9.282   5.589   3.712
22980WAT     H169182   9.285   5.627   3.804
22980WAT     H269183   9.291   5.490   3.716
22981WAT      O69184   8.541   1.905   4.229
22981WAT     H169185   8.555   1.930   4.325
22981WAT     H269186   8.470   1.834   4.223
22982WAT      O69187   7.155   4.103   1.139
22982WAT     H169188   7.111   4.116   1.050
22982WAT     H269189   7.198   4.013   1.142
22983WAT      O69190   9.474   8.218   6.966
22983WAT     H169191   9.571   8.241   6.975
22983WAT     H269192   9.436   8.263   6.884
22984WAT      O69193   1.130   4.071   3.337
22984WAT     H169194   1.092   4.097   3.248
22984WAT     H269195   1.215   4.122   3.354
22985WAT      O69196   1.700   3.512   9.244
22985WAT     H169197   1.793   3.476   9.259
22985WAT     H269198   1.703   3.612   9.239
22986WAT      O69199   8.387   9.723   9.702
22986WAT     H169200   8.455   9.651   9.708
22986WAT     H269201   8.404   9.777   9.619
22987WAT      O69202   2.263   5.349   7.031
22987WAT     H169203   2.283   5.305   6.944
22987WAT     H269204   2.291   5.445   7.027
22988WAT      O69205   0.468   6.943   6.230
22988WAT     H169206   0.546   6.888   6.258
22988WAT     H269207   0.481   6.977   6.136
22989WAT      O69208   1.146   9.102   7.158
22989WAT     H169209   1.215   9.035   7.129
22989WAT     H269210   1.191   9.185   7.191
22990WAT      O69211   0.618   6.810   8.096
22990WAT     H169212   0.670   6.759   8.166
22990WAT     H269213   0.651   6.785   8.005
22991WAT      O69214   4.451   8.710   4.461
22991WAT     H169215   4.402   8.678   4.380
22991WAT     H269216   4.400   8.786   4.502
22992WAT      O69217   2.853   2.454   7.127
22992WAT     H169218   2.896   2.484   7.212
22992WAT     H269219   2.769   2.405   7.149
22993WAT      O69220   4.318   6.690   0.956
22993WAT     H169221   4.317   6.750   1.036
22993WAT     H269222   4.282   6.740   0.877
22994WAT      O69223   4.392   4.311   9.022
22994WAT     H169224   4.352   4.340   9.108
22994WAT     H269225   4.394   4.211   9.017
22995WAT      O69226   2.301   3.735   7.253
22995WAT     H169227   2.391   3.695   7.235
22995WAT     H269228   2.281   3.805   7.184
22996WAT      O69229   1.293   7.763   5.946
22996WAT     H169230   1.361   7.818   5.897
22996WAT     H269231   1.224   7.732   5.881
22997WAT      O69232   2.231   4.581   4.379
22997WAT     H169233   2.223   4.504   4.315
22997WAT     H269234   2.317   4.629   4.362
22998WAT      O69235   6.895   8.648   6.370
22998WAT     H169236   6.933   8.616   6.283
22998WAT     H269237   6.801   8.681   6.355
22999WAT      O69238   2.578   0.381   5.355
22999WAT     H169239   2.618   0.471   5.337
22999WAT     H269240   2.529   0.383   5.442
23000WAT      O69241   9.056   9.820   0.415
23000WAT     H169242   9.116   9.850   0.490
23000WAT     H269243   9.040   9.722   0.423
23001WAT      O69244   9.751   8.795   4.170
23001WAT     H169245   9.841   8.775   4.131
23001WAT     H269246   9.693   8.715   4.165
23002WAT      O69247   6.774   0.001   7.311
23002WAT     H169248   6.768  -0.061   7.234
23002WAT     H269249   6.817   0.087   7.282
23003WAT      O69250   1.149   1.239   4.158
23003WAT     H169251   1.130   1.331   4.124
23003WAT     H269252   1.086   1.217   4.232
23004WAT      O69253   8.830   9.177   8.428
23004WAT     H169254   8.860   9.091   8.471
23004WAT     H269255   8.820   9.247   8.498
23005WAT      O69256   2.312   5.241   6.795
23005WAT     H169257   2.290   5.170   6.727
23005WAT     H269258   2.374   5.308   6.754
23006WAT      O69259   4.242   0.225   7.507
23006WAT     H169260   4.265   0.243   7.602
23006WAT     H269261   4.302   0.153   7.471
23007WAT      O69262   9.121   4.458   6.895
23007WAT     H169263   9.154   4.381   6.949
23007WAT     H269264   9.155   4.544   6.934
23008WAT      O69265   9.099   3.910   7.004
23008WAT     H169266   9.022   3.876   6.950
23008WAT     H269267   9.117   3.847   7.079
23009WAT      O69268   2.838   4.280   3.473
23009WAT     H169269   2.859   4.335   3.554
23009WAT     H269270   2.913   4.217   3.455
23010WAT      O69271   5.187   0.505   1.770
23010WAT     H169272   5.182   0.577   1.701
23010WAT     H269273   5.118   0.435   1.751
23011WAT      O69274   1.931   1.024   8.131
23011WAT     H169275   1.856   1.043   8.068
23011WAT     H269276   1.942   1.101   8.194
23012WAT      O69277   0.762   9.229   7.669
23012WAT     H169278   0.783   9.153   7.608
23012WAT     H269279   0.708   9.196   7.746
23013WAT      O69280   6.630   4.162   3.338
23013WAT     H169281   6.592   4.070   3.322
23013WAT     H269282   6.729   4.156   3.345
23014WAT      O69283   8.399   2.249   7.665
23014WAT     H169284   8.374   2.153   7.655
23014WAT     H269285   8.319   2.303   7.691
23015WAT      O69286   4.169   1.893   5.458
23015WAT     H169287   4.233   1.963   5.426
23015WAT     H269288   4.192   1.868   5.552
23016WAT      O69289   0.912   1.143   0.350
23016WAT     H169290   0.930   1.077   0.423
23016WAT     H269291   0.997   1.160   0.300
23017WAT      O69292   2.264   9.076   1.682
23017WAT     H169293   2.327   9.099   1.608
23017WAT     H269294   2.291   8.989   1.723
23018WAT      O69295   8.048   6.494   8.425
23018WAT     H169296   8.025   6.522   8.518
23018WAT     H269297   8.144   6.513   8.407
23019WAT      O69298   5.938   5.935   8.561
23019WAT     H169299   5.963   5.936   8.658
23019WAT     H269300   5.870   5.863   8.545
23020WAT      O69301   7.185   3.646   1.395
23020WAT     H169302   7.099   3.679   1.357
23020WAT     H269303   7.172   3.553   1.432
23021WAT      O69304   5.036   8.172   4.062
23021WAT     H169305   5.129   8.195   4.032
23021WAT     H269306   5.030   8.073   4.077
23022WAT      O69307   8.187   8.996   0.780
23022WAT     H169308   8.094   8.964   0.759
23022WAT     H269309   8.224   8.941   0.856
23023WAT      O69310   8.437   1.102   6.802
23023WAT     H169311   8.484   1.070   6.884
23023WAT     H269312   8.499   1.158   6.748
23024WAT      O69313   5.265   1.275   4.004
23024WAT     H169314   5.292   1.369   3.984
23024WAT     H269315   5.197   1.245   3.938
23025WAT      O69316   6.962   8.582   1.018
23025WAT     H169317   6.874   8.566   0.975
23025WAT     H269318   7.017   8.642   0.960
23026WAT      O69319   6.760   4.840   7.326
23026WAT     H169320   6.814   4.869   7.405
23026WAT     H269321   6.783   4.898   7.247
23027WAT      O69322   6.946   1.144   9.234
23027WAT     H169323   7.007   1.106   9.304
23027WAT     H269324   6.946   1.244   9.240
23028WAT      O69325   0.510   8.685   5.057
23028WAT     H169326   0.516   8.761   4.993
23028WAT     H269327   0.446   8.708   5.130
23029WAT      O69328   1.109   8.224   3.155
23029WAT     H169329   1.172   8.183   3.221
23029WAT     H269330   1.020   8.236   3.198
23030WAT      O69331   6.205   5.161   9.767
23030WAT     H169332   6.232   5.252   9.801
23030WAT     H269333   6.196   5.099   9.845
23031WAT      O69334   2.173   3.477   7.328
23031WAT     H169335   2.203   3.386   7.302
23031WAT     H269336   2.228   3.546   7.281
23032WAT      O69337   7.812   3.036   9.484
23032WAT     H169338   7.798   3.090   9.401
23032WAT     H269339   7.822   3.098   9.563
23033WAT      O69340   5.639   7.628   0.601
23033WAT     H169341   5.548   7.591   0.581
23033WAT     H269342   5.665   7.603   0.694
23034WAT      O69343   1.342   4.621   4.351
23034WAT     H169344   1.411   4.574   4.406
23034WAT     H269345   1.282   4.554   4.308
23035WAT      O69346   1.462   3.385   6.738
23035WAT     H169347   1.533   3.453   6.755
23035WAT     H269348   1.471   3.351   6.644
23036WAT      O69349   1.349   9.075   0.484
23036WAT     H169350   1.351   8.976   0.498
23036WAT     H269351   1.422   9.118   0.537
23037WAT      O69352   7.047   1.202   7.357
23037WAT     H169353   7.045   1.212   7.258
23037WAT     H269354   6.966   1.244   7.397
23038WAT      O69355   6.290   1.007   1.667
23038WAT     H169356   6.209   0.979   1.717
23038WAT     H269357   6.277   0.987   1.569
23039WAT      O69358   8.927   8.322   8.986
23039WAT     H169359   9.026   8.331   8.977
23039WAT     H269360   8.882   8.387   8.925
23040WAT      O69361   7.411   5.665   3.953
23040WAT     H169362   7.373   5.577   3.924
23040WAT     H269363   7.509   5.667   3.930
23041WAT      O69364   8.676   4.353   0.428
23041WAT     H169365   8.688   4.311   0.517
23041WAT     H269366   8.733   4.435   0.421
23042WAT      O69367   7.288   9.706   7.595
23042WAT     H169368   7.266   9.660   7.680
23042WAT     H269369   7.205   9.720   7.541
23043WAT      O69370   9.047   8.636   7.228
23043WAT     H169371   9.028   8.539   7.244
23043WAT     H269372   9.108   8.670   7.300
23044WAT      O69373   4.680   1.059   4.093
23044WAT     H169374   4.732   1.108   4.163
23044WAT     H269375   4.647   1.125   4.025
23045WAT      O69376   1.334   6.769   1.366
23045WAT     H169377   1.350   6.810   1.456
23045WAT     H269378   1.338   6.840   1.296
23046WAT      O69379   9.756   5.217   9.801
23046WAT     H169380   9.702   5.164   9.866
23046WAT     H269381   9.852   5.214   9.828
23047WAT      O69382   7.479   1.419   7.106
23047WAT     H169383   7.494   1.415   7.205
23047WAT     H269384   7.441   1.332   7.075
23048WAT      O69385   6.831   3.601   6.350
23048WAT     H169386   6.741   3.632   6.379
23048WAT     H269387   6.895   3.609   6.426
23049WAT      O69388   0.475   7.049   5.971
23049WAT     H169389   0.489   7.002   5.884
23049WAT     H269390   0.378   7.073   5.981
23050WAT      O69391   4.881   9.316   2.613
23050WAT     H169392   4.961   9.308   2.553
23050WAT     H269393   4.872   9.410   2.645
23051WAT      O69394   0.627   8.024   0.918
23051WAT     H169395   0.669   7.933   0.912
23051WAT     H269396   0.603   8.044   1.013
23052WAT      O69397   8.612   6.372   8.232
23052WAT     H169398   8.528   6.318   8.222
23052WAT     H269399   8.629   6.422   8.146
23053WAT      O69400   9.158   7.934   7.492
23053WAT     H169401   9.208   7.883   7.422
23053WAT     H269402   9.090   7.874   7.534
23054WAT      O69403   9.014   6.307   2.865
23054WAT     H169404   9.059   6.384   2.910
23054WAT     H269405   8.982   6.242   2.934
23055WAT      O69406   5.854   7.828   9.556
23055WAT     H169407   5.801   7.792   9.632
23055WAT     H269408   5.888   7.753   9.499
23056WAT      O69409   9.297   4.290   1.854
23056WAT     H169410   9.229   4.248   1.913
23056WAT     H269411   9.319   4.228   1.779
23057WAT      O69412   7.744   4.852   1.089
23057WAT     H169413   7.717   4.811   1.176
23057WAT     H269414   7.697   4.805   1.013
23058WAT      O69415   8.732   4.600   5.346
23058WAT     H169416   8.790   4.520   5.364
23058WAT     H269417   8.683   4.624   5.430
23059WAT      O69418   3.466   5.668   5.918
23059WAT     H169419   3.371   5.686   5.944
23059WAT     H269420   3.485   5.570   5.926
23060WAT      O69421   3.958   9.791   4.212
23060WAT     H169422   3.941   9.812   4.308
23060WAT     H269423   3.872   9.794   4.161
23061WAT      O69424   8.485   9.072   3.221
23061WAT     H169425   8.578   9.053   3.253
23061WAT     H269426   8.434   9.117   3.294
23062WAT      O69427   8.089   1.465   2.448
23062WAT     H169428   8.094   1.513   2.361
23062WAT     H269429   7.995   1.435   2.465
23063WAT      O69430   4.720   5.492   0.291
23063WAT     H169431   4.732   5.470   0.388
23063WAT     H269432   4.721   5.408   0.237
23064WAT      O69433   6.169   8.564   5.222
23064WAT     H169434   6.255   8.537   5.179
23064WAT     H269435   6.113   8.612   5.155
23065WAT      O69436   8.475   5.471   0.513
23065WAT     H169437   8.552   5.532   0.533
23065WAT     H269438   8.389   5.518   0.534
23066WAT      O69439   9.749   2.582   6.888
23066WAT     H169440   9.737   2.503   6.828
23066WAT     H269441   9.663   2.632   6.895
23067WAT      O69442   7.855   1.728   7.947
23067WAT     H169443   7.787   1.685   7.886
23067WAT     H269444   7.879   1.664   8.020
23068WAT      O69445   1.388   1.486   6.786
23068WAT     H169446   1.303   1.537   6.798
23068WAT     H269447   1.466   1.548   6.792
23069WAT      O69448   3.225   9.497   2.794
23069WAT     H169449   3.186   9.588   2.806
23069WAT     H269450   3.198   9.460   2.705
23070WAT      O69451   7.852   7.544   9.445
23070WAT     H169452   7.800   7.459   9.432
23070WAT     H269453   7.837   7.577   9.538
23071WAT      O69454   4.285   5.677   4.747
23071WAT     H169455   4.302   5.634   4.658
23071WAT     H269456   4.279   5.776   4.735
23072WAT      O69457   8.421   5.521   2.236
23072WAT     H169458   8.391   5.426   2.225
23072WAT     H269459   8.391   5.555   2.326
23073WAT      O69460   6.693   0.650   5.695
23073WAT     H169461   6.768   0.585   5.713
23073WAT     H269462   6.721   0.742   5.724
23074WAT      O69463   8.253   1.158   0.443
23074WAT     H169464   8.351   1.144   0.435
23074WAT     H269465   8.226   1.235   0.386
23075WAT      O69466   2.143   9.487   8.471
23075WAT     H169467   2.059   9.538   8.451
23075WAT     H269468   2.154   9.479   8.570
23076WAT      O69469   4.594   2.065   1.579
23076WAT     H169470   4.691   2.042   1.568
23076WAT     H269471   4.577   2.154   1.537
23077WAT      O69472   6.614   5.584   7.793
23077WAT     H169473   6.543   5.647   7.823
23077WAT     H269474   6.704   5.624   7.814
23078WAT      O69475   1.009   8.078   1.381
23078WAT     H169476   1.007   8.048   1.286
23078WAT     H269477   1.094   8.046   1.424
23079WAT      O69478   6.471   5.235   6.780
23079WAT     H169479   6.490   5.290   6.861
23079WAT     H269480   6.507   5.281   6.699
23080WAT      O69481   6.409   1.367   2.253
23080WAT     H169482   6.507   1.351   2.241
23080WAT     H269483   6.362   1.280   2.264
23081WAT      O69484   0.779   4.136   3.116
23081WAT     H169485   0.848   4.092   3.058
23081WAT     H269486   0.821   4.164   3.202
23082WAT      O69487   6.045   9.101   3.234
23082WAT     H169488   6.027   9.039   3.310
23082WAT     H269489   6.137   9.138   3.243
23083WAT      O69490   9.483   2.195   8.505
23083WAT     H169491   9.445   2.127   8.443
23083WAT     H269492   9.578   2.171   8.526
23084WAT      O69493   0.901   5.668   4.096
23084WAT     H169494   0.979   5.658   4.034
23084WAT     H269495   0.903   5.759   4.138
23085WAT      O69496   4.664   6.764   2.082
23085WAT     H169497   4.735   6.702   2.050
23085WAT     H269498   4.656   6.842   2.019
23086WAT      O69499   0.467   4.902   0.389
23086WAT     H169500   0.508   4.831   0.445
23086WAT     H269501   0.368   4.895   0.393
23087WAT      O69502   3.326   0.075   1.992
23087WAT     H169503   3.398   0.006   1.996
23087WAT     H269504   3.239   0.031   1.968
23088WAT      O69505   4.129   4.357   6.051
23088WAT     H169506   4.094   4.391   5.963
23088WAT     H269507   4.193   4.424   6.089
23089WAT      O69508   4.359   5.437   6.778
23089WAT     H169509   4.321   5.499   6.709
23089WAT     H269510   4.459   5.446   6.779
23090WAT      O69511   4.474   8.922   4.660
23090WAT     H169512   4.567   8.955   4.675
23090WAT     H269513   4.444   8.869   4.739
23091WAT      O69514   9.412   2.338   0.284
23091WAT     H169515   9.317   2.363   0.303
23091WAT     H269516   9.442   2.385   0.201
23092WAT      O69517   0.469   6.245   5.698
23092WAT     H169518   0.510   6.236   5.789
23092WAT     H269519   0.461   6.343   5.675
23093WAT      O69520   1.795   1.861   3.262
23093WAT     H169521   1.842   1.806   3.193
23093WAT     H269522   1.786   1.955   3.229
23094WAT      O69523   7.144   1.227   2.710
23094WAT     H169524   7.113   1.160   2.779
23094WAT     H269525   7.200   1.181   2.642
23095WAT      O69526   4.318   3.972   2.401
23095WAT     H169527   4.300   4.064   2.437
23095WAT     H269528   4.241   3.943   2.344
23096WAT      O69529   8.198   1.095   9.349
23096WAT     H169530   8.291   1.117   9.380
23096WAT     H269531   8.195   1.001   9.316
23097WAT      O69532   1.571   5.313   1.861
23097WAT     H169533   1.506   5.389   1.860
23097WAT     H269534   1.624   5.314   1.777
23098WAT      O69535   1.446   9.419   2.310
23098WAT     H169536   1.469   9.393   2.216
23098WAT     H269537   1.465   9.343   2.372
23099WAT      O69538   7.454   3.704   0.337
23099WAT     H169539   7.367   3.712   0.386
23099WAT     H269540   7.527   3.685   0.402
23100WAT      O69541   2.558   3.418   4.958
23100WAT     H169542   2.551   3.412   5.058
23100WAT     H269543   2.469   3.401   4.917
23101WAT      O69544   5.096   4.906   7.742
23101WAT     H169545   5.176   4.871   7.694
23101WAT     H269546   5.089   5.005   7.730
23102WAT      O69547   3.162   5.044   6.670
23102WAT     H169548   3.141   4.951   6.702
23102WAT     H269549   3.078   5.089   6.640
23103WAT      O69550   9.862   0.068   2.896
23103WAT     H169551   9.798   0.126   2.947
23103WAT     H269552   9.819   0.039   2.810
23104WAT      O69553   6.438   7.850   4.915
23104WAT     H169554   6.509   7.856   4.844
23104WAT     H269555   6.374   7.778   4.891
23105WAT      O69556   7.490   5.007   7.835
23105WAT     H169557   7.475   4.932   7.899
23105WAT     H269558   7.551   4.977   7.762
23106WAT      O69559   4.380   8.516   2.346
23106WAT     H169560   4.344   8.546   2.434
23106WAT     H269561   4.323   8.553   2.272
23107WAT      O69562   0.096   2.266   2.748
23107WAT     H169563   0.136   2.272   2.840
23107WAT     H269564   0.111   2.353   2.700
23108WAT      O69565   2.133   4.049   8.826
23108WAT     H169566   2.058   3.985   8.839
23108WAT     H269567   2.214   4.000   8.794
23109WAT      O69568   1.886   2.612   7.452
23109WAT     H169569   1.805   2.572   7.409
23109WAT     H269570   1.964   2.550   7.442
23110WAT      O69571   5.120   0.657   0.651
23110WAT     H169572   5.165   0.583   0.603
23110WAT     H269573   5.153   0.745   0.617
23111WAT      O69574   3.088   8.058   7.412
23111WAT     H169575   3.024   8.103   7.350
23111WAT     H269576   3.180   8.095   7.398
23112WAT      O69577   6.344   2.335   4.912
23112WAT     H169578   6.267   2.374   4.962
23112WAT     H269579   6.398   2.277   4.974
23113WAT      O69580   0.114   7.763   4.200
23113WAT     H169581   0.122   7.707   4.117
23113WAT     H269582   0.136   7.858   4.178
23114WAT      O69583   3.514   8.411   4.579
23114WAT     H169584   3.467   8.442   4.661
23114WAT     H269585   3.498   8.313   4.565
23115WAT      O69586   3.494   3.266   6.069
23115WAT     H169587   3.457   3.174   6.084
23115WAT     H269588   3.575   3.260   6.010
23116WAT      O69589   8.382   2.188   1.759
23116WAT     H169590   8.339   2.257   1.816
23116WAT     H269591   8.481   2.187   1.776
23117WAT      O69592   2.497   9.263   7.335
23117WAT     H169593   2.467   9.255   7.240
23117WAT     H269594   2.595   9.283   7.336
23118WAT      O69595   5.657   9.468   6.284
23118WAT     H169596   5.660   9.547   6.223
23118WAT     H269597   5.565   9.461   6.324
23119WAT      O69598   3.237   0.864   0.066
23119WAT     H169599   3.228   0.768   0.089
23119WAT     H269600   3.269   0.873  -0.029
23120WAT      O69601   3.101   2.794   3.415
23120WAT     H169602   3.060   2.857   3.349
23120WAT     H269603   3.138   2.846   3.492
23121WAT      O69604   7.907   6.920   9.290
23121WAT     H169605   7.843   6.882   9.357
23121WAT     H269606   7.885   7.016   9.274
23122WAT      O69607   9.278   9.816   2.583
23122WAT     H169608   9.359   9.768   2.549
23122WAT     H269609   9.201   9.753   2.590
23123WAT      O69610   0.242   7.932   1.649
23123WAT     H169611   0.339   7.907   1.643
23123WAT     H269612   0.210   7.916   1.742
23124WAT      O69613   7.124   6.024   0.408
23124WAT     H169614   7.151   6.118   0.387
23124WAT     H269615   7.133   5.967   0.326
23125WAT      O69616   0.493   7.996   8.623
23125WAT     H169617   0.426   7.929   8.656
23125WAT     H269618   0.580   7.951   8.604
23126WAT      O69619   0.663   0.659   0.426
23126WAT     H169620   0.756   0.696   0.433
23126WAT     H269621   0.631   0.632   0.517
23127WAT      O69622   1.257   2.271   6.839
23127WAT     H169623   1.174   2.286   6.786
23127WAT     H269624   1.233   2.255   6.935
23128WAT      O69625   1.111   3.233   8.475
23128WAT     H169626   1.044   3.302   8.445
23128WAT     H269627   1.072   3.180   8.550
23129WAT      O69628   1.873   3.372   2.828
23129WAT     H169629   1.930   3.310   2.882
23129WAT     H269630   1.777   3.358   2.853
23130WAT      O69631   9.763   5.699   3.326
23130WAT     H169632   9.760   5.736   3.418
23130WAT     H269633   9.832   5.747   3.272
23131WAT      O69634   0.290   2.934   1.913
23131WAT     H169635   0.253   2.845   1.939
23131WAT     H269636   0.289   2.944   1.814
23132WAT      O69637   5.318   6.968   2.139
23132WAT     H169638   5.359   6.987   2.050
23132WAT     H269639   5.347   7.039   2.204
23133WAT      O69640   0.546   2.254   3.461
23133WAT     H169641   0.459   2.207   3.450
23133WAT     H269642   0.607   2.232   3.385
23134WAT      O69643   1.242   0.243   3.031
23134WAT     H169644   1.302   0.179   3.078
23134WAT     H269645   1.275   0.337   3.047
23135WAT      O69646   6.461   6.863   2.645
23135WAT     H169647   6.401   6.944   2.648
23135WAT     H269648   6.414   6.786   2.688
23136WAT      O69649   8.354   5.056   3.516
23136WAT     H169650   8.353   5.156   3.508
23136WAT     H269651   8.387   5.016   3.431
23137WAT      O69652   4.954   1.402   5.812
23137WAT     H169653   4.880   1.402   5.744
23137WAT     H269654   4.914   1.400   5.904
23138WAT      O69655   5.357   8.385   6.875
23138WAT     H169656   5.403   8.299   6.854
23138WAT     H269657   5.266   8.366   6.912
23139WAT      O69658   8.877   2.022   6.153
23139WAT     H169659   8.864   2.073   6.238
23139WAT     H269660   8.898   2.086   6.079
23140WAT      O69661   2.279   0.470   6.743
23140WAT     H169662   2.307   0.519   6.826
23140WAT     H269663   2.272   0.535   6.667
23141WAT      O69664   7.294   1.405   2.858
23141WAT     H169665   7.377   1.371   2.903
23141WAT     H269666   7.252   1.330   2.806
23142WAT      O69667   1.462   2.389   4.098
23142WAT     H169668   1.520   2.340   4.163
23142WAT     H269669   1.517   2.453   4.046
23143WAT      O69670   1.054   5.220   0.607
23143WAT     H169671   1.027   5.316   0.615
23143WAT     H269672   1.142   5.207   0.653
23144WAT      O69673   9.541   9.014   3.760
23144WAT     H169674   9.455   8.968   3.782
23144WAT     H269675   9.538   9.108   3.794
23145WAT      O69676   7.978   6.981   6.923
23145WAT     H169677   8.044   7.016   6.856
23145WAT     H269678   8.027   6.936   6.998
23146WAT      O69679   4.648   6.929   1.874
23146WAT     H169680   4.592   6.873   1.813
23146WAT     H269681   4.712   6.983   1.821
23147WAT      O69682   6.361   4.756   3.628
23147WAT     H169683   6.304   4.839   3.632
23147WAT     H269684   6.437   4.771   3.565
23148WAT      O69685   0.809   9.739   7.865
23148WAT     H169686   0.790   9.788   7.950
23148WAT     H269687   0.827   9.643   7.885
23149WAT      O69688   4.400   1.431   9.040
23149WAT     H169689   4.432   1.523   9.014
23149WAT     H269690   4.349   1.392   8.964
23150WAT      O69691   0.740   0.281   9.530
23150WAT     H169692   0.790   0.325   9.455
23150WAT     H269693   0.805   0.244   9.596
23151WAT      O69694   6.801   2.452   6.209
23151WAT     H169695   6.827   2.513   6.284
23151WAT     H269696   6.846   2.481   6.125
23152WAT      O69697   9.213   1.007   1.222
23152WAT     H169698   9.169   1.039   1.139
23152WAT     H269699   9.207   1.078   1.293
23153WAT      O69700   4.077   5.483   9.629
23153WAT     H169701   3.995   5.428   9.615
23153WAT     H269702   4.053   5.580   9.633
23154WAT      O69703   1.537   7.040   4.947
23154WAT     H169704   1.632   7.070   4.942
23154WAT     H269705   1.532   6.952   4.995
23155WAT      O69706   3.830   6.058   0.938
23155WAT     H169707   3.924   6.044   0.970
23155WAT     H269708   3.831   6.088   0.843
23156WAT      O69709   2.642   0.462   0.095
23156WAT     H169710   2.589   0.379   0.083
23156WAT     H269711   2.626   0.524   0.018
23157WAT      O69712   9.557   3.362   5.996
23157WAT     H169713   9.611   3.280   5.976
23157WAT     H269714   9.460   3.340   5.987
23158WAT      O69715   8.337   8.156   4.835
23158WAT     H169716   8.374   8.237   4.881
23158WAT     H269717   8.412   8.094   4.811
23159WAT      O69718   6.069   9.609   1.160
23159WAT     H169719   5.981   9.611   1.208
23159WAT     H269720   6.077   9.689   1.102
23160WAT      O69721   6.121   2.953   9.820
23160WAT     H169722   6.183   2.887   9.862
23160WAT     H269723   6.162   3.044   9.822
23161WAT      O69724   5.652   3.855   1.023
23161WAT     H169725   5.739   3.896   1.050
23161WAT     H269726   5.662   3.755   1.018
23162WAT      O69727   9.818   6.159   6.240
23162WAT     H169728   9.875   6.230   6.282
23162WAT     H269729   9.778   6.194   6.155
23163WAT      O69730   2.745   7.714   8.100
23163WAT     H169731   2.789   7.684   8.016
23163WAT     H269732   2.647   7.695   8.096
23164WAT      O69733   1.877   3.238   8.424
23164WAT     H169734   1.804   3.190   8.472
23164WAT     H269735   1.952   3.175   8.404
23165WAT      O69736   0.676   9.618   4.578
23165WAT     H169737   0.640   9.646   4.667
23165WAT     H269738   0.607   9.564   4.530
23166WAT      O69739   3.191   7.939   6.864
23166WAT     H169740   3.130   7.910   6.937
23166WAT     H269741   3.204   8.038   6.868
23167WAT      O69742   3.085   4.222   5.268
23167WAT     H169743   3.017   4.234   5.196
23167WAT     H269744   3.081   4.300   5.331
23168WAT      O69745   2.145   2.472   8.859
23168WAT     H169746   2.163   2.373   8.853
23168WAT     H269747   2.091   2.501   8.779
23169WAT      O69748   0.104   7.842   2.372
23169WAT     H169749   0.026   7.836   2.309
23169WAT     H269750   0.132   7.937   2.382
23170WAT      O69751   8.015   1.729   8.474
23170WAT     H169752   7.974   1.799   8.417
23170WAT     H269753   7.947   1.693   8.538
23171WAT      O69754   3.930   4.108   9.303
23171WAT     H169755   3.998   4.179   9.285
23171WAT     H269756   3.946   4.069   9.393
23172WAT      O69757   1.595   7.032   6.418
23172WAT     H169758   1.568   7.065   6.327
23172WAT     H269759   1.619   7.109   6.476
23173WAT      O69760   3.323   7.977   7.151
23173WAT     H169761   3.394   7.914   7.118
23173WAT     H269762   3.244   7.974   7.090
23174WAT      O69763   1.302   9.060   4.587
23174WAT     H169764   1.225   9.079   4.649
23174WAT     H269765   1.381   9.032   4.640
23175WAT      O69766   0.919   3.561   8.750
23175WAT     H169767   1.015   3.535   8.758
23175WAT     H269768   0.861   3.479   8.754
23176WAT      O69769   3.842   1.730   8.320
23176WAT     H169770   3.846   1.829   8.310
23176WAT     H269771   3.770   1.694   8.261
23177WAT      O69772   6.429   2.525   5.467
23177WAT     H169773   6.495   2.482   5.530
23177WAT     H269774   6.433   2.625   5.478
23178WAT      O69775   9.092   7.800   2.083
23178WAT     H169776   9.165   7.869   2.076
23178WAT     H269777   9.104   7.731   2.012
23179WAT      O69778   6.668   2.632   7.250
23179WAT     H169779   6.586   2.632   7.192
23179WAT     H269780   6.679   2.542   7.292
23180WAT      O69781   4.719   8.271   1.665
23180WAT     H169782   4.703   8.181   1.625
23180WAT     H269783   4.672   8.340   1.610
23181WAT      O69784   1.149   9.156   4.373
23181WAT     H169785   1.218   9.114   4.432
23181WAT     H269786   1.150   9.112   4.284
23182WAT      O69787   6.067   9.356   2.932
23182WAT     H169788   6.062   9.388   2.837
23182WAT     H269789   5.981   9.375   2.978
23183WAT      O69790   6.606   7.530   3.876
23183WAT     H169791   6.516   7.514   3.914
23183WAT     H269792   6.628   7.456   3.811
23184WAT      O69793   8.028   4.871   7.576
23184WAT     H169794   8.025   4.850   7.479
23184WAT     H269795   7.948   4.833   7.622
23185WAT      O69796   2.879   1.718   9.682
23185WAT     H169797   2.864   1.720   9.781
23185WAT     H269798   2.966   1.671   9.663
23186WAT      O69799   0.928   8.244   9.422
23186WAT     H169800   0.851   8.184   9.439
23186WAT     H269801   1.010   8.189   9.404
23187WAT      O69802   2.241   3.304   1.242
23187WAT     H169803   2.334   3.333   1.225
23187WAT     H269804   2.237   3.255   1.330
23188WAT      O69805   5.144   3.045   9.033
23188WAT     H169806   5.185   2.956   9.012
23188WAT     H269807   5.214   3.109   9.062
23189WAT      O69808   5.102   8.705   1.797
23189WAT     H169809   5.184   8.708   1.741
23189WAT     H269810   5.021   8.721   1.739
23190WAT      O69811   7.357   4.566   9.435
23190WAT     H169812   7.316   4.476   9.422
23190WAT     H269813   7.346   4.620   9.351
23191WAT      O69814   1.766   6.300   7.537
23191WAT     H169815   1.715   6.361   7.598
23191WAT     H269816   1.717   6.213   7.528
23192WAT      O69817   5.059   5.891   9.471
23192WAT     H169818   5.106   5.807   9.498
23192WAT     H269819   5.078   5.911   9.375
23193WAT      O69820   9.733   2.144   8.625
23193WAT     H169821   9.716   2.047   8.641
23193WAT     H269822   9.754   2.189   8.712
23194WAT      O69823   5.711   2.497   2.097
23194WAT     H169824   5.660   2.421   2.056
23194WAT     H269825   5.690   2.503   2.194
23195WAT      O69826   0.872   2.132   0.049
23195WAT     H169827   0.939   2.121   0.122
23195WAT     H269828   0.812   2.052   0.048
23196WAT      O69829   0.470   1.582   3.182
23196WAT     H169830   0.548   1.526   3.212
23196WAT     H269831   0.389   1.524   3.174
23197WAT      O69832   5.113   4.890   6.418
23197WAT     H169833   5.174   4.951   6.469
23197WAT     H269834   5.021   4.929   6.415
23198WAT      O69835   7.804   4.636   2.582
23198WAT     H169836   7.748   4.623   2.501
23198WAT     H269837   7.766   4.711   2.637
23199WAT      O69838   4.311   8.306   7.770
23199WAT     H169839   4.224   8.347   7.797
23199WAT     H269840   4.294   8.218   7.726
23200WAT      O69841   0.510   0.668   2.694
23200WAT     H169842   0.544   0.671   2.600
23200WAT     H269843   0.439   0.598   2.702
23201WAT      O69844   6.715   4.551   0.452
23201WAT     H169845   6.710   4.452   0.435
23201WAT     H269846   6.623   4.590   0.445
23202WAT      O69847   5.969   5.630   9.732
23202WAT     H169848   6.058   5.617   9.688
23202WAT     H269849   5.964   5.722   9.771
23203WAT      O69850   5.512   2.056   8.997
23203WAT     H169851   5.413   2.066   8.985
23203WAT     H269852   5.559   2.131   8.951
23204WAT      O69853   2.462   2.537   8.438
23204WAT     H169854   2.429   2.443   8.443
23204WAT     H269855   2.405   2.589   8.375
23205WAT      O69856   2.700   5.357   8.819
23205WAT     H169857   2.799   5.352   8.834
23205WAT     H269858   2.660   5.425   8.880
23206WAT      O69859   2.119   2.297   6.334
23206WAT     H169860   2.063   2.309   6.251
23206WAT     H269861   2.185   2.372   6.340
23207WAT      O69862   2.488   3.275   1.699
23207WAT     H169863   2.422   3.292   1.627
23207WAT     H269864   2.441   3.267   1.787
23208WAT      O69865   8.054   7.869   7.992
23208WAT     H169866   8.134   7.924   8.013
23208WAT     H269867   8.054   7.786   8.047
23209WAT      O69868   7.444   5.599   6.930
23209WAT     H169869   7.368   5.539   6.905
23209WAT     H269870   7.530   5.556   6.903
23210WAT      O69871   6.115   6.765   4.431
23210WAT     H169872   6.143   6.675   4.465
23210WAT     H269873   6.193   6.828   4.437
23211WAT      O69874   6.024   4.293   4.692
23211WAT     H169875   6.065   4.369   4.642
23211WAT     H269876   6.002   4.219   4.629
23212WAT      O69877   4.923   2.040   5.138
23212WAT     H169878   4.956   1.953   5.175
23212WAT     H269879   4.923   2.035   5.038
23213WAT      O69880   7.827   0.182   8.959
23213WAT     H169881   7.735   0.175   8.999
23213WAT     H269882   7.824   0.149   8.865
23214WAT      O69883   6.554   4.080   3.698
23214WAT     H169884   6.615   4.023   3.643
23214WAT     H269885   6.467   4.090   3.651
23215WAT      O69886   6.831   1.189   2.724
23215WAT     H169887   6.930   1.184   2.730
23215WAT     H269888   6.802   1.161   2.632
23216WAT      O69889   2.179   2.233   4.864
23216WAT     H169890   2.099   2.193   4.820
23216WAT     H269891   2.165   2.332   4.873
23217WAT      O69892   4.567   4.821   0.916
23217WAT     H169893   4.617   4.863   0.840
23217WAT     H269894   4.573   4.722   0.910
23218WAT      O69895   9.364   7.581   2.633
23218WAT     H169896   9.426   7.506   2.657
23218WAT     H269897   9.356   7.586   2.533
23219WAT      O69898   5.926   9.429   7.467
23219WAT     H169899   5.885   9.354   7.416
23219WAT     H269900   5.856   9.472   7.524
23220WAT      O69901   6.378   8.474   9.725
23220WAT     H169902   6.279   8.487   9.732
23220WAT     H269903   6.417   8.464   9.817
23221WAT      O69904   3.620   9.782   6.791
23221WAT     H169905   3.684   9.856   6.811
23221WAT     H269906   3.557   9.810   6.719
23222WAT      O69907   7.952   8.183   0.448
23222WAT     H169908   7.928   8.089   0.425
23222WAT     H269909   7.908   8.208   0.535
23223WAT      O69910   2.620   3.519   6.733
23223WAT     H169911   2.526   3.508   6.766
23223WAT     H269912   2.681   3.460   6.786
23224WAT      O69913   2.434   4.162   6.404
23224WAT     H169914   2.395   4.173   6.495
23224WAT     H269915   2.361   4.159   6.336
23225WAT      O69916   4.935   6.484   8.283
23225WAT     H169917   4.950   6.438   8.196
23225WAT     H269918   4.839   6.479   8.308
23226WAT      O69919   4.997   0.718   4.062
23226WAT     H169920   4.958   0.751   4.148
23226WAT     H269921   5.087   0.760   4.048
23227WAT      O69922   4.722   3.869   5.248
23227WAT     H169923   4.767   3.781   5.258
23227WAT     H269924   4.785   3.934   5.204
23228WAT      O69925   0.655   8.583   8.969
23228WAT     H169926   0.626   8.625   8.883
23228WAT     H269927   0.755   8.585   8.975
23229WAT      O69928   3.896   6.082   1.724
23229WAT     H169929   3.818   6.057   1.667
23229WAT     H269930   3.919   6.006   1.784
23230WAT      O69931   5.596   1.692   9.881
23230WAT     H169932   5.657   1.737   9.816
23230WAT     H269933   5.526   1.756   9.912
23231WAT      O69934   0.320   0.566   1.377
23231WAT     H169935   0.309   0.487   1.437
23231WAT     H269936   0.284   0.545   1.286
23232WAT      O69937   8.187   8.481   7.455
23232WAT     H169938   8.100   8.527   7.440
23232WAT     H269939   8.247   8.539   7.510
23233WAT      O69940   8.748   3.748   2.176
23233WAT     H169941   8.795   3.736   2.089
23233WAT     H269942   8.808   3.794   2.241
23234WAT      O69943   0.921   9.476   7.812
23234WAT     H169944   0.983   9.467   7.734
23234WAT     H269945   0.870   9.391   7.823
23235WAT      O69946   5.173   5.355   3.084
23235WAT     H169947   5.238   5.362   3.159
23235WAT     H269948   5.127   5.266   3.088
23236WAT      O69949   0.148   2.149   8.347
23236WAT     H169950   0.221   2.085   8.322
23236WAT     H269951   0.074   2.099   8.392
23237WAT      O69952   2.335   4.587   5.722
23237WAT     H169953   2.263   4.528   5.759
23237WAT     H269954   2.362   4.654   5.792
23238WAT      O69955   0.173   8.033   6.594
23238WAT     H169956   0.097   7.975   6.623
23238WAT     H269957   0.259   7.991   6.621
23239WAT      O69958   1.149   1.174   2.844
23239WAT     H169959   1.132   1.247   2.910
23239WAT     H269960   1.115   1.203   2.754
23240WAT      O69961   5.422   1.294   4.287
23240WAT     H169962   5.492   1.365   4.284
23240WAT     H269963   5.361   1.303   4.209
23241WAT      O69964   7.955   3.940   9.052
23241WAT     H169965   7.925   3.847   9.074
23241WAT     H269966   8.042   3.936   9.002
23242WAT      O69967   3.836   8.715   0.025
23242WAT     H169968   3.810   8.798  -0.024
23242WAT     H269969   3.810   8.635  -0.028
23243WAT      O69970   4.079   3.978   4.748
23243WAT     H169971   4.095   3.993   4.650
23243WAT     H269972   4.051   4.065   4.790
23244WAT      O69973   4.839   7.732   1.041
23244WAT     H169974   4.819   7.739   0.943
23244WAT     H269975   4.757   7.754   1.093
23245WAT      O69976   8.009   8.618   8.297
23245WAT     H169977   8.071   8.695   8.282
23245WAT     H269978   8.062   8.540   8.333
23246WAT      O69979   7.320   8.768   6.621
23246WAT     H169980   7.245   8.783   6.557
23246WAT     H269981   7.295   8.803   6.712
23247WAT      O69982   1.333   1.258   7.422
23247WAT     H169983   1.246   1.244   7.469
23247WAT     H269984   1.326   1.226   7.328
23248WAT      O69985   7.948   9.258   9.865
23248WAT     H169986   7.910   9.166   9.870
23248WAT     H269987   7.926   9.309   9.948
23249WAT      O69988   3.690   5.593   3.866
23249WAT     H169989   3.654   5.508   3.904
23249WAT     H269990   3.785   5.605   3.895
23250WAT      O69991   9.070   2.690   3.768
23250WAT     H169992   9.103   2.751   3.696
23250WAT     H269993   9.006   2.624   3.729
23251WAT      O69994   3.527   5.934   5.368
23251WAT     H169995   3.436   5.900   5.393
23251WAT     H269996   3.592   5.908   5.439
23252WAT      O69997   4.552   2.708   0.073
23252WAT     H169998   4.537   2.763   0.155
23252WAT     H269999   4.638   2.735   0.030
23253WAT      O70000   9.309   2.196   3.692
23253WAT     H170001   9.263   2.283   3.709
23253WAT     H270002   9.347   2.161   3.778
23254WAT      O70003   3.731   4.626   7.168
23254WAT     H170004   3.808   4.689   7.162
23254WAT     H270005   3.676   4.633   7.084
23255WAT      O70006   6.854   5.883   6.113
23255WAT     H170007   6.946   5.855   6.087
23255WAT     H270008   6.849   5.892   6.212
23256WAT      O70009   7.410   2.940   9.019
23256WAT     H170010   7.463   2.923   8.936
23256WAT     H270011   7.327   2.885   9.018
23257WAT      O70012   9.336   1.762   9.524
23257WAT     H170013   9.386   1.706   9.458
23257WAT     H270014   9.339   1.858   9.497
23258WAT      O70015   7.688   4.385   9.112
23258WAT     H170016   7.689   4.432   9.200
23258WAT     H270017   7.749   4.306   9.117
23259WAT      O70018   9.690   3.536   5.334
23259WAT     H170019   9.737   3.617   5.300
23259WAT     H270020   9.664   3.550   5.429
23260WAT      O70021   6.772   9.662   8.363
23260WAT     H170022   6.776   9.722   8.283
23260WAT     H270023   6.811   9.573   8.339
23261WAT      O70024   5.599   1.530   9.121
23261WAT     H170025   5.692   1.519   9.086
23261WAT     H270026   5.571   1.625   9.111
23262WAT      O70027   9.000   9.421   7.310
23262WAT     H170028   8.910   9.438   7.268
23262WAT     H270029   8.992   9.343   7.373
23263WAT      O70030   4.318   3.535   3.120
23263WAT     H170031   4.249   3.481   3.072
23263WAT     H270032   4.361   3.599   3.056
23264WAT      O70033   0.715   8.183   8.346
23264WAT     H170034   0.759   8.247   8.410
23264WAT     H270035   0.619   8.170   8.374
23265WAT      O70036   9.398   1.711   4.391
23265WAT     H170037   9.349   1.782   4.340
23265WAT     H270038   9.358   1.701   4.482
23266WAT      O70039   1.125   6.877   6.475
23266WAT     H170040   1.042   6.862   6.422
23266WAT     H270041   1.205   6.867   6.416
23267WAT      O70042   0.819   4.904   8.212
23267WAT     H170043   0.822   4.999   8.183
23267WAT     H270044   0.900   4.856   8.179
23268WAT      O70045   5.092   9.352   5.856
23268WAT     H170046   5.191   9.361   5.868
23268WAT     H270047   5.072   9.339   5.759
23269WAT      O70048   0.005   0.877   8.365
23269WAT     H170049   0.043   0.870   8.273
23269WAT     H270050  -0.053   0.959   8.371
23270WAT      O70051   9.446   1.909   8.123
23270WAT     H170052   9.399   1.827   8.090
23270WAT     H270053   9.432   1.917   8.222
23271WAT      O70054   4.851   9.113   4.903
23271WAT     H170055   4.932   9.171   4.911
23271WAT     H270056   4.769   9.171   4.904
23272WAT      O70057   0.141   4.300   4.416
23272WAT     H170058   0.239   4.293   4.396
23272WAT     H270059   0.089   4.257   4.343
23273WAT      O70060   6.070   2.660   5.929
23273WAT     H170061   6.149   2.706   5.968
23273WAT     H270062   5.986   2.698   5.968
23274WAT      O70063   7.830   1.919   6.004
23274WAT     H170064   7.823   1.838   5.947
23274WAT     H270065   7.744   1.934   6.052
23275WAT      O70066   0.597   0.335   5.785
23275WAT     H170067   0.668   0.351   5.854
23275WAT     H270068   0.640   0.306   5.699
23276WAT      O70069   4.255   6.827   1.207
23276WAT     H170070   4.253   6.926   1.220
23276WAT     H270071   4.329   6.788   1.262
23277WAT      O70072   0.762   6.189   1.515
23277WAT     H170073   0.702   6.123   1.471
23277WAT     H270074   0.841   6.208   1.456
23278WAT      O70075   0.204   4.044   1.201
23278WAT     H170076   0.115   4.004   1.222
23278WAT     H270077   0.191   4.136   1.162
23279WAT      O70078   9.384   6.235   8.348
23279WAT     H170079   9.372   6.253   8.445
23279WAT     H270080   9.476   6.199   8.332
23280WAT      O70081   1.928   6.520   6.222
23280WAT     H170082   1.984   6.463   6.162
23280WAT     H270083   1.971   6.523   6.313
23281WAT      O70084   4.513   8.324   6.262
23281WAT     H170085   4.608   8.331   6.232
23281WAT     H270086   4.509   8.267   6.344
23282WAT      O70087   2.064   0.665   8.171
23282WAT     H170088   2.140   0.724   8.144
23282WAT     H270089   1.983   0.688   8.117
23283WAT      O70090   8.949   8.956   0.068
23283WAT     H170091   8.996   8.880   0.114
23283WAT     H270092   8.873   8.920   0.014
23284WAT      O70093   2.786   7.600   7.125
23284WAT     H170094   2.788   7.695   7.157
23284WAT     H270095   2.723   7.547   7.182
23285WAT      O70096   6.067   0.826   7.200
23285WAT     H170097   6.138   0.884   7.161
23285WAT     H270098   6.107   0.741   7.235
23286WAT      O70099   8.072   4.547   9.822
23286WAT     H170100   8.054   4.546   9.920
23286WAT     H270101   8.160   4.502   9.804
23287WAT      O70102   8.342   3.988   8.106
23287WAT     H170103   8.310   3.953   8.017
23287WAT     H270104   8.280   4.061   8.137
23288WAT      O70105   1.947   7.570   7.512
23288WAT     H170106   2.012   7.505   7.470
23288WAT     H270107   1.872   7.587   7.449
23289WAT      O70108   3.871   9.558   6.554
23289WAT     H170109   3.801   9.566   6.483
23289WAT     H270110   3.896   9.650   6.586
23290WAT      O70111   3.691   6.872   2.126
23290WAT     H170112   3.684   6.971   2.139
23290WAT     H270113   3.764   6.853   2.060
23291WAT      O70114   2.974   2.140   2.765
23291WAT     H170115   3.009   2.183   2.681
23291WAT     H270116   3.010   2.047   2.772
23292WAT      O70117   4.387   3.728   6.713
23292WAT     H170118   4.380   3.632   6.740
23292WAT     H270119   4.310   3.753   6.654
23293WAT      O70120   3.018   5.189   4.178
23293WAT     H170121   3.071   5.269   4.207
23293WAT     H270122   2.920   5.207   4.192
23294WAT      O70123   2.403   1.946   1.297
23294WAT     H170124   2.424   1.933   1.394
23294WAT     H270125   2.478   1.996   1.254
23295WAT      O70126   6.311   6.098   4.129
23295WAT     H170127   6.355   6.061   4.047
23295WAT     H270128   6.335   6.041   4.208
23296WAT      O70129   8.017   8.773   0.371
23296WAT     H170130   7.938   8.796   0.428
23296WAT     H270131   7.992   8.780   0.274
23297WAT      O70132   8.846   3.777   6.088
23297WAT     H170133   8.781   3.799   6.015
23297WAT     H270134   8.839   3.845   6.161
23298WAT      O70135   9.821   3.370   9.242
23298WAT     H170136   9.819   3.296   9.309
23298WAT     H270137   9.738   3.425   9.250
23299WAT      O70138   1.827   0.791   3.492
23299WAT     H170139   1.770   0.735   3.431
23299WAT     H270140   1.897   0.838   3.438
23300WAT      O70141   8.888   5.748   9.876
23300WAT     H170142   8.955   5.728   9.947
23300WAT     H270143   8.835   5.829   9.901
23301WAT      O70144   9.408   9.383   0.759
23301WAT     H170145   9.337   9.417   0.822
23301WAT     H270146   9.485   9.446   0.760
23302WAT      O70147   1.210   0.657   0.497
23302WAT     H170148   1.273   0.735   0.497
23302WAT     H270149   1.254   0.578   0.539
23303WAT      O70150   9.474   2.726   2.750
23303WAT     H170151   9.545   2.655   2.759
23303WAT     H270152   9.511   2.804   2.701
23304WAT      O70153   2.012   6.680   3.642
23304WAT     H170154   1.956   6.625   3.580
23304WAT     H270155   2.107   6.647   3.640
23305WAT      O70156   3.040   7.970   4.192
23305WAT     H170157   3.129   7.989   4.151
23305WAT     H270158   2.970   8.023   4.144
23306WAT      O70159   0.462   3.576   3.240
23306WAT     H170160   0.405   3.494   3.239
23306WAT     H270161   0.473   3.610   3.146
23307WAT      O70162   6.301   8.258   2.499
23307WAT     H170163   6.294   8.317   2.580
23307WAT     H270164   6.286   8.163   2.526
23308WAT      O70165   1.598   0.830   4.821
23308WAT     H170166   1.612   0.922   4.785
23308WAT     H270167   1.570   0.836   4.917
23309WAT      O70168   9.556   6.541   4.794
23309WAT     H170169   9.617   6.474   4.753
23309WAT     H270170   9.469   6.498   4.816
23310WAT      O70171   1.252   2.378   8.614
23310WAT     H170172   1.280   2.355   8.707
23310WAT     H270173   1.188   2.309   8.580
23311WAT      O70174   0.125   0.313   4.082
23311WAT     H170175   0.169   0.326   4.170
23311WAT     H270176   0.173   0.242   4.030
23312WAT      O70177   0.691   0.027   1.300
23312WAT     H170178   0.601  -0.001   1.332
23312WAT     H270179   0.705  -0.007   1.207
23313WAT      O70180   2.169   6.530   2.814
23313WAT     H170181   2.186   6.576   2.901
23313WAT     H270182   2.256   6.522   2.764
23314WAT      O70183   1.929   2.316   3.119
23314WAT     H170184   1.990   2.331   3.197
23314WAT     H270185   1.944   2.386   3.050
23315WAT      O70186   2.566   9.354   7.649
23315WAT     H170187   2.488   9.291   7.643
23315WAT     H270188   2.647   9.304   7.680
23316WAT      O70189   3.898   9.324   6.701
23316WAT     H170190   3.826   9.257   6.680
23316WAT     H270191   3.880   9.409   6.652
23317WAT      O70192   7.666   0.941   6.747
23317WAT     H170193   7.609   0.959   6.667
23317WAT     H270194   7.742   0.881   6.722
23318WAT      O70195   7.991   7.275   6.233
23318WAT     H170196   8.015   7.309   6.324
23318WAT     H270197   7.955   7.182   6.241
23319WAT      O70198   8.320   0.651   6.218
23319WAT     H170199   8.371   0.638   6.303
23319WAT     H270200   8.227   0.615   6.229
23320WAT      O70201   3.811   6.160   0.325
23320WAT     H170202   3.730   6.120   0.367
23320WAT     H270203   3.883   6.170   0.394
23321WAT      O70204   3.860   6.459   6.445
23321WAT     H170205   3.864   6.511   6.531
23321WAT     H270206   3.950   6.458   6.402
23322WAT      O70207   9.574   9.201   7.414
23322WAT     H170208   9.621   9.290   7.415
23322WAT     H270209   9.626   9.135   7.467
23323WAT      O70210   5.415   0.845   3.834
23323WAT     H170211   5.511   0.867   3.851
23323WAT     H270212   5.410   0.767   3.770
23324WAT      O70213   3.581   0.095   3.162
23324WAT     H170214   3.483   0.106   3.152
23324WAT     H270215   3.626   0.114   3.074
23325WAT      O70216   2.635   5.536   9.010
23325WAT     H170217   2.552   5.571   8.966
23325WAT     H270218   2.658   5.594   9.089
23326WAT      O70219   5.272   1.678   6.643
23326WAT     H170220   5.269   1.771   6.679
23326WAT     H270221   5.246   1.614   6.715
23327WAT      O70222   2.963   5.839   5.335
23327WAT     H170223   2.987   5.783   5.256
23327WAT     H270224   3.046   5.874   5.377
23328WAT      O70225   1.115   6.154   0.205
23328WAT     H170226   1.030   6.206   0.213
23328WAT     H270227   1.102   6.078   0.142
23329WAT      O70228   7.326   3.672   4.721
23329WAT     H170229   7.369   3.583   4.704
23329WAT     H270230   7.251   3.686   4.656
23330WAT      O70231   4.111   5.775   2.623
23330WAT     H170232   4.094   5.845   2.692
23330WAT     H270233   4.058   5.795   2.540
23331WAT      O70234   3.168   3.619   9.711
23331WAT     H170235   3.177   3.521   9.691
23331WAT     H270236   3.151   3.669   9.626
23332WAT      O70237   4.005   1.745   0.602
23332WAT     H170238   4.098   1.710   0.613
23332WAT     H270239   3.941   1.686   0.651
23333WAT      O70240   3.458   7.480   8.284
23333WAT     H170241   3.532   7.535   8.244
23333WAT     H270242   3.372   7.501   8.237
23334WAT      O70243   1.765   5.316   6.040
23334WAT     H170244   1.797   5.329   5.947
23334WAT     H270245   1.841   5.326   6.104
23335WAT      O70246   1.375   4.201   4.173
23335WAT     H170247   1.454   4.195   4.234
23335WAT     H270248   1.404   4.231   4.083
23336WAT      O70249   9.075   3.533   9.341
23336WAT     H170250   8.986   3.518   9.298
23336WAT     H270251   9.062   3.580   9.428
23337WAT      O70252   6.660   9.408   0.985
23337WAT     H170253   6.625   9.403   1.078
23337WAT     H270254   6.583   9.406   0.921
23338WAT      O70255   8.326   8.602   7.886
23338WAT     H170256   8.247   8.567   7.937
23338WAT     H270257   8.384   8.526   7.858
23339WAT      O70258   0.303   0.385   7.239
23339WAT     H170259   0.313   0.435   7.153
23339WAT     H270260   0.212   0.344   7.243
23340WAT      O70261   9.027   3.232   1.665
23340WAT     H170262   8.990   3.252   1.574
23340WAT     H270263   9.008   3.136   1.689
23341WAT      O70264   4.244   2.276   4.031
23341WAT     H170265   4.276   2.261   3.937
23341WAT     H270266   4.158   2.328   4.028
23342WAT      O70267   4.460   6.975   0.764
23342WAT     H170268   4.465   7.045   0.693
23342WAT     H270269   4.394   7.003   0.834
23343WAT      O70270   3.901   1.590   3.913
23343WAT     H170271   3.877   1.493   3.917
23343WAT     H270272   3.828   1.645   3.954
23344WAT      O70273   6.625   0.676   3.195
23344WAT     H170274   6.664   0.636   3.112
23344WAT     H270275   6.691   0.671   3.269
23345WAT      O70276   6.908   7.315   8.416
23345WAT     H170277   6.815   7.280   8.430
23345WAT     H270278   6.914   7.409   8.448
23346WAT      O70279   2.365   5.836   6.971
23346WAT     H170280   2.335   5.915   7.024
23346WAT     H270281   2.462   5.847   6.949
23347WAT      O70282   5.201   2.556   9.726
23347WAT     H170283   5.230   2.647   9.694
23347WAT     H270284   5.256   2.486   9.681
23348WAT      O70285   1.314   0.572   9.657
23348WAT     H170286   1.394   0.610   9.704
23348WAT     H270287   1.311   0.473   9.669
23349WAT      O70288   4.803   8.035   0.380
23349WAT     H170289   4.894   8.062   0.347
23349WAT     H270290   4.748   8.117   0.397
23350WAT      O70291   3.751   5.620   4.440
23350WAT     H170292   3.777   5.529   4.407
23350WAT     H270293   3.822   5.656   4.500
23351WAT      O70294   6.418   4.564   2.713
23351WAT     H170295   6.368   4.532   2.632
23351WAT     H270296   6.485   4.495   2.739
23352WAT      O70297   2.856   7.254   7.316
23352WAT     H170298   2.777   7.278   7.373
23352WAT     H270299   2.853   7.307   7.231
23353WAT      O70300   6.075   0.036   9.267
23353WAT     H170301   6.175   0.040   9.257
23353WAT     H270302   6.032   0.052   9.179
23354WAT      O70303   6.762   8.022   8.458
23354WAT     H170304   6.798   8.023   8.551
23354WAT     H270305   6.718   7.933   8.440
23355WAT      O70306   7.286   7.110   7.499
23355WAT     H170307   7.232   7.069   7.426
23355WAT     H270308   7.278   7.055   7.582
23356WAT      O70309   6.880   3.650   3.615
23356WAT     H170310   6.824   3.569   3.600
23356WAT     H270311   6.886   3.669   3.713
23357WAT      O70312   5.790   1.811   6.658
23357WAT     H170313   5.708   1.864   6.635
23357WAT     H270314   5.765   1.735   6.717
23358WAT      O70315   5.034   1.597   8.393
23358WAT     H170316   5.113   1.626   8.446
23358WAT     H270317   5.063   1.529   8.325
23359WAT      O70318   8.951   0.270   8.041
23359WAT     H170319   8.869   0.289   7.986
23359WAT     H270320   9.022   0.336   8.017
23360WAT      O70321   8.943   4.797   5.514
23360WAT     H170322   9.035   4.827   5.536
23360WAT     H270323   8.924   4.814   5.418
23361WAT      O70324   2.010   6.777   5.444
23361WAT     H170325   2.078   6.730   5.388
23361WAT     H270326   2.030   6.875   5.447
23362WAT      O70327   6.186   5.622   0.522
23362WAT     H170328   6.106   5.594   0.468
23362WAT     H270329   6.184   5.575   0.610
23363WAT      O70330   8.540   4.563   5.565
23363WAT     H170331   8.612   4.599   5.623
23363WAT     H270332   8.462   4.626   5.565
23364WAT      O70333   0.541   5.237   2.891
23364WAT     H170334   0.507   5.262   2.801
23364WAT     H270335   0.521   5.141   2.910
23365WAT      O70336   6.239   3.194   0.230
23365WAT     H170337   6.248   3.097   0.254
23365WAT     H270338   6.214   3.246   0.311
23366WAT      O70339   9.502   1.153   8.743
23366WAT     H170340   9.415   1.162   8.694
23366WAT     H270341   9.548   1.069   8.714
23367WAT      O70342   4.071   4.316   7.251
23367WAT     H170343   4.110   4.226   7.268
23367WAT     H270344   3.976   4.306   7.220
23368WAT      O70345   6.183   9.129   8.444
23368WAT     H170346   6.282   9.143   8.433
23368WAT     H270347   6.134   9.178   8.372
23369WAT      O70348   3.655   5.062   4.983
23369WAT     H170349   3.663   5.055   5.082
23369WAT     H270350   3.594   5.137   4.959
23370WAT      O70351   6.052   4.001   6.937
23370WAT     H170352   6.115   3.982   6.862
23370WAT     H270353   6.103   4.003   7.024
23371WAT      O70354   0.551   3.783   1.659
23371WAT     H170355   0.605   3.725   1.720
23371WAT     H270356   0.516   3.862   1.710
23372WAT      O70357   1.910   7.950   5.998
23372WAT     H170358   1.870   7.865   6.034
23372WAT     H270359   1.997   7.929   5.953
23373WAT      O70360   1.968   1.641   7.302
23373WAT     H170361   1.881   1.689   7.308
23373WAT     H270362   2.023   1.680   7.228
23374WAT      O70363   9.596   0.257   7.479
23374WAT     H170364   9.498   0.242   7.494
23374WAT     H270365   9.622   0.346   7.517
23375WAT      O70366   7.971   1.806   6.642
23375WAT     H170367   7.986   1.821   6.739
23375WAT     H270368   8.007   1.883   6.590
23376WAT      O70369   5.806   9.396   4.367
23376WAT     H170370   5.887   9.365   4.417
23376WAT     H270371   5.731   9.411   4.431
23377WAT      O70372   6.041   8.200   3.592
23377WAT     H170373   6.124   8.190   3.537
23377WAT     H270374   6.003   8.110   3.610
23378WAT      O70375   9.225   0.233   7.765
23378WAT     H170376   9.277   0.265   7.845
23378WAT     H270377   9.208   0.135   7.774
23379WAT      O70378   9.543   6.517   9.623
23379WAT     H170379   9.631   6.563   9.627
23379WAT     H270380   9.540   6.444   9.692
23380WAT      O70381   7.432   4.540   6.191
23380WAT     H170382   7.498   4.614   6.191
23380WAT     H270383   7.444   4.484   6.274
23381WAT      O70384   1.692   4.248   7.372
23381WAT     H170385   1.785   4.221   7.397
23381WAT     H270386   1.640   4.166   7.347
23382WAT      O70387   9.439   3.392   3.330
23382WAT     H170388   9.388   3.437   3.404
23382WAT     H270389   9.445   3.454   3.252
23383WAT      O70390   8.312   8.834   3.227
23383WAT     H170391   8.374   8.913   3.219
23383WAT     H270392   8.243   8.838   3.155
23384WAT      O70393   0.364   5.905   7.528
23384WAT     H170394   0.408   5.994   7.514
23384WAT     H270395   0.265   5.915   7.522
23385WAT      O70396   6.031   7.247   4.643
23385WAT     H170397   6.044   7.340   4.678
23385WAT     H270398   6.119   7.209   4.617
23386WAT      O70399   4.961   8.325   3.828
23386WAT     H170400   4.969   8.296   3.924
23386WAT     H270401   4.985   8.422   3.821
23387WAT      O70402   4.734   5.212   4.763
23387WAT     H170403   4.823   5.246   4.793
23387WAT     H270404   4.736   5.113   4.756
23388WAT      O70405   8.131   8.956   6.215
23388WAT     H170406   8.102   8.866   6.182
23388WAT     H270407   8.053   9.018   6.218
23389WAT      O70408   7.496   2.494   4.343
23389WAT     H170409   7.562   2.419   4.341
23389WAT     H270410   7.492   2.538   4.254
23390WAT      O70411   2.581   2.177   8.668
23390WAT     H170412   2.678   2.166   8.646
23390WAT     H270413   2.571   2.219   8.758
23391WAT      O70414   5.551   9.764   7.948
23391WAT     H170415   5.528   9.701   7.874
23391WAT     H270416   5.524   9.723   8.036
23392WAT      O70417   0.116   2.667   6.278
23392WAT     H170418   0.033   2.640   6.327
23392WAT     H270419   0.106   2.645   6.181
23393WAT      O70420   7.975   0.625   6.444
23393WAT     H170421   7.946   0.700   6.504
23393WAT     H270422   7.901   0.558   6.436
23394WAT      O70423   6.437   8.102   5.817
23394WAT     H170424   6.516   8.087   5.756
23394WAT     H270425   6.380   8.175   5.779
23395WAT      O70426   2.199   6.244   1.903
23395WAT     H170427   2.141   6.320   1.873
23395WAT     H270428   2.263   6.276   1.973
23396WAT      O70429   8.941   4.742   1.557
23396WAT     H170430   8.883   4.732   1.637
23396WAT     H270431   8.957   4.653   1.515
23397WAT      O70432   6.407   8.409   0.467
23397WAT     H170433   6.469   8.370   0.398
23397WAT     H270434   6.459   8.428   0.550
23398WAT      O70435   7.999   0.542   6.998
23398WAT     H170436   7.923   0.479   7.011
23398WAT     H270437   7.972   0.634   7.028
23399WAT      O70438   8.449   9.493   9.445
23399WAT     H170439   8.545   9.479   9.422
23399WAT     H270440   8.438   9.498   9.544
23400WAT      O70441   4.869   0.771   8.893
23400WAT     H170442   4.799   0.827   8.937
23400WAT     H270443   4.841   0.675   8.896
23401WAT      O70444   3.445   1.936   8.987
23401WAT     H170445   3.366   1.888   8.948
23401WAT     H270446   3.518   1.941   8.919
23402WAT      O70447   6.870   3.801   2.501
23402WAT     H170448   6.822   3.766   2.581
23402WAT     H270449   6.881   3.727   2.434
23403WAT      O70450   8.450   0.116   0.930
23403WAT     H170451   8.401   0.162   1.004
23403WAT     H270452   8.391   0.107   0.850
23404WAT      O70453   9.023   6.975   9.409
23404WAT     H170454   9.015   6.876   9.409
23404WAT     H270455   9.102   7.001   9.352
23405WAT      O70456   2.557   8.140   4.798
23405WAT     H170457   2.538   8.135   4.700
23405WAT     H270458   2.533   8.231   4.832
23406WAT      O70459   2.368   3.527   3.140
23406WAT     H170460   2.307   3.557   3.213
23406WAT     H270461   2.370   3.427   3.136
23407WAT      O70462   0.996   1.406   6.088
23407WAT     H170463   0.933   1.347   6.037
23407WAT     H270464   1.047   1.350   6.154
23408WAT      O70465   1.928   6.344   6.846
23408WAT     H170466   1.829   6.334   6.842
23408WAT     H270467   1.951   6.441   6.855
23409WAT      O70468   8.766   2.302   4.416
23409WAT     H170469   8.696   2.367   4.446
23409WAT     H270470   8.831   2.287   4.490
23410WAT      O70471   6.248   0.574   3.142
23410WAT     H170472   6.229   0.573   3.044
23410WAT     H270473   6.297   0.658   3.166
23411WAT      O70474   6.289   2.655   6.855
23411WAT     H170475   6.261   2.730   6.915
23411WAT     H270476   6.216   2.634   6.790
23412WAT      O70477   1.053   4.299   1.121
23412WAT     H170478   0.987   4.374   1.131
23412WAT     H270479   1.004   4.213   1.111
23413WAT      O70480   4.011   2.577   9.659
23413WAT     H170481   4.054   2.660   9.695
23413WAT     H270482   3.975   2.523   9.735
23414WAT      O70483   7.974   3.195   4.920
23414WAT     H170484   8.009   3.109   4.883
23414WAT     H270485   7.984   3.195   5.020
23415WAT      O70486   9.348   4.942   6.745
23415WAT     H170487   9.443   4.922   6.721
23415WAT     H270488   9.318   5.024   6.696
23416WAT      O70489   1.395   4.589   8.374
23416WAT     H170490   1.424   4.493   8.367
23416WAT     H270491   1.375   4.624   8.283
23417WAT      O70492   8.808   7.821   2.825
23417WAT     H170493   8.754   7.749   2.867
23417WAT     H270494   8.905   7.798   2.831
23418WAT      O70495   3.482   4.463   0.927
23418WAT     H170496   3.495   4.371   0.964
23418WAT     H270497   3.437   4.456   0.837
23419WAT      O70498   9.578   5.966   7.742
23419WAT     H170499   9.607   5.890   7.685
23419WAT     H270500   9.542   6.039   7.684
23420WAT      O70501   4.382   1.640   7.581
23420WAT     H170502   4.297   1.665   7.534
23420WAT     H270503   4.423   1.722   7.622
23421WAT      O70504   4.934   0.406   8.166
23421WAT     H170505   4.857   0.466   8.144
23421WAT     H270506   4.900   0.316   8.191
23422WAT      O70507   2.703   4.986   0.120
23422WAT     H170508   2.664   5.065   0.072
23422WAT     H270509   2.649   4.967   0.202
23423WAT      O70510   1.933   2.908   3.320
23423WAT     H170511   1.898   2.999   3.343
23423WAT     H270512   2.029   2.901   3.348
23424WAT      O70513   4.862   1.382   6.049
23424WAT     H170514   4.931   1.412   6.116
23424WAT     H270515   4.779   1.355   6.097
23425WAT      O70516   6.111   0.707   5.022
23425WAT     H170517   6.166   0.777   5.068
23425WAT     H270518   6.101   0.627   5.082
23426WAT      O70519   9.211   5.347   9.461
23426WAT     H170520   9.230   5.317   9.367
23426WAT     H270521   9.293   5.335   9.517
23427WAT      O70522   7.327   3.929   4.827
23427WAT     H170523   7.338   3.832   4.806
23427WAT     H270524   7.348   3.983   4.745
23428WAT      O70525   7.609   1.689   0.955
23428WAT     H170526   7.653   1.622   0.894
23428WAT     H270527   7.679   1.735   1.010
23429WAT      O70528   5.634   7.130   9.396
23429WAT     H170529   5.705   7.143   9.327
23429WAT     H270530   5.597   7.220   9.422
23430WAT      O70531   8.168   1.258   9.599
23430WAT     H170532   8.210   1.340   9.562
23430WAT     H270533   8.130   1.202   9.525
23431WAT      O70534   2.145   9.299   1.764
23431WAT     H170535   2.193   9.214   1.739
23431WAT     H270536   2.149   9.363   1.687
23432WAT      O70537   2.666   6.580   8.908
23432WAT     H170538   2.607   6.635   8.848
23432WAT     H270539   2.682   6.491   8.865
23433WAT      O70540   1.978   2.261   8.314
23433WAT     H170541   1.885   2.292   8.332
23433WAT     H270542   2.031   2.265   8.398
23434WAT      O70543   4.574   5.551   5.675
23434WAT     H170544   4.559   5.573   5.772
23434WAT     H270545   4.507   5.483   5.646
23435WAT      O70546   1.501   1.314   0.950
23435WAT     H170547   1.451   1.372   0.885
23435WAT     H270548   1.506   1.360   1.038
23436WAT      O70549   3.089   2.166   5.726
23436WAT     H170550   3.161   2.102   5.753
23436WAT     H270551   3.002   2.139   5.767
23437WAT      O70552   5.904   1.936   5.014
23437WAT     H170553   5.913   2.004   4.941
23437WAT     H270554   5.807   1.922   5.034
23438WAT      O70555   2.829   9.238   6.501
23438WAT     H170556   2.763   9.208   6.570
23438WAT     H270557   2.782   9.291   6.431
23439WAT      O70558   4.243   0.376   8.676
23439WAT     H170559   4.207   0.303   8.734
23439WAT     H270560   4.170   0.441   8.655
23440WAT      O70561   9.246   3.961   9.240
23440WAT     H170562   9.262   3.863   9.251
23440WAT     H270563   9.149   3.981   9.256
23441WAT      O70564   5.875   1.815   7.412
23441WAT     H170565   5.906   1.873   7.487
23441WAT     H270566   5.901   1.857   7.325
23442WAT      O70567   8.119   3.291   0.836
23442WAT     H170568   8.166   3.243   0.910
23442WAT     H270569   8.111   3.231   0.757
23443WAT      O70570   6.897   4.074   7.100
23443WAT     H170571   6.807   4.043   7.071
23443WAT     H270572   6.903   4.072   7.199
23444WAT      O70573   7.668   2.854   1.839
23444WAT     H170574   7.722   2.840   1.756
23444WAT     H270575   7.701   2.794   1.912
23445WAT      O70576   4.535   7.696   3.038
23445WAT     H170577   4.494   7.645   3.114
23445WAT     H270578   4.493   7.668   2.952
23446WAT      O70579   6.254   7.444   7.477
23446WAT     H170580   6.162   7.480   7.487
23446WAT     H270581   6.317   7.494   7.536
23447WAT      O70582   0.574   6.525   8.780
23447WAT     H170583   0.529   6.598   8.729
23447WAT     H270584   0.591   6.447   8.719
23448WAT      O70585   8.897   1.674   2.215
23448WAT     H170586   8.834   1.695   2.140
23448WAT     H270587   8.978   1.733   2.208
23449WAT      O70588   7.771   0.271   0.476
23449WAT     H170589   7.837   0.210   0.433
23449WAT     H270590   7.810   0.311   0.559
23450WAT      O70591   1.532   8.737   6.205
23450WAT     H170592   1.564   8.673   6.134
23450WAT     H270593   1.432   8.741   6.203
23451WAT      O70594   7.072   1.816   0.364
23451WAT     H170595   7.142   1.777   0.304
23451WAT     H270596   6.981   1.791   0.330
23452WAT      O70597   4.961   6.460   7.392
23452WAT     H170598   4.974   6.483   7.488
23452WAT     H270599   5.049   6.464   7.345
23453WAT      O70600   5.042   8.452   9.282
23453WAT     H170601   5.041   8.552   9.270
23453WAT     H270602   4.990   8.428   9.364
23454WAT      O70603   8.719   0.928   1.183
23454WAT     H170604   8.632   0.902   1.225
23454WAT     H270605   8.794   0.886   1.235
23455WAT      O70606   2.291   9.511   5.250
23455WAT     H170607   2.293   9.574   5.172
23455WAT     H270608   2.256   9.422   5.220
23456WAT      O70609   7.739   9.538   9.082
23456WAT     H170610   7.716   9.483   9.163
23456WAT     H270611   7.793   9.617   9.110
23457WAT      O70612   0.481   6.788   3.738
23457WAT     H170613   0.569   6.780   3.786
23457WAT     H270614   0.497   6.811   3.643
23458WAT      O70615   3.680   8.326   7.130
23458WAT     H170616   3.778   8.343   7.117
23458WAT     H270617   3.633   8.338   7.042
23459WAT      O70618   6.355   8.006   7.814
23459WAT     H170619   6.266   8.051   7.818
23459WAT     H270620   6.372   7.975   7.720
23460WAT      O70621   9.715   0.997   3.226
23460WAT     H170622   9.680   0.916   3.274
23460WAT     H270623   9.731   1.070   3.293
23461WAT      O70624   7.067   4.330   6.117
23461WAT     H170625   7.105   4.420   6.136
23461WAT     H270626   7.133   4.260   6.144
23462WAT      O70627   0.202   8.223   8.543
23462WAT     H170628   0.233   8.176   8.626
23462WAT     H270629   0.152   8.306   8.568
23463WAT      O70630   8.207   9.591   5.192
23463WAT     H170631   8.188   9.503   5.148
23463WAT     H270632   8.122   9.628   5.229
23464WAT      O70633   2.524   6.887   6.509
23464WAT     H170634   2.584   6.910   6.587
23464WAT     H270635   2.434   6.926   6.524
23465WAT      O70636   0.207   5.242   7.897
23465WAT     H170637   0.264   5.272   7.974
23465WAT     H270638   0.264   5.225   7.817
23466WAT      O70639   6.306   0.066   2.917
23466WAT     H170640   6.227   0.047   2.860
23466WAT     H270641   6.308   0.002   2.994
23467WAT      O70642   5.821   3.470   9.262
23467WAT     H170643   5.779   3.548   9.307
23467WAT     H270644   5.919   3.470   9.279
23468WAT      O70645   1.577   8.055   7.986
23468WAT     H170646   1.633   8.007   7.918
23468WAT     H270647   1.493   8.003   8.002
23469WAT      O70648   9.689   6.483   3.914
23469WAT     H170649   9.589   6.480   3.909
23469WAT     H270650   9.717   6.527   3.999
23470WAT      O70651   9.625   8.179   5.911
23470WAT     H170652   9.666   8.120   5.842
23470WAT     H270653   9.573   8.124   5.976
23471WAT      O70654   6.797   4.996   8.656
23471WAT     H170655   6.712   5.031   8.695
23471WAT     H270656   6.838   5.065   8.597
23472WAT      O70657   0.527   1.134   6.304
23472WAT     H170658   0.608   1.095   6.259
23472WAT     H270659   0.554   1.217   6.354
23473WAT      O70660   2.572   7.274   3.857
23473WAT     H170661   2.630   7.337   3.909
23473WAT     H270662   2.595   7.281   3.760
23474WAT      O70663   5.828   9.160   5.084
23474WAT     H170664   5.791   9.238   5.134
23474WAT     H270665   5.837   9.184   4.987
23475WAT      O70666   1.298   3.376   7.718
23475WAT     H170667   1.230   3.449   7.730
23475WAT     H270668   1.328   3.373   7.623
23476WAT      O70669   1.708   7.245   0.477
23476WAT     H170670   1.765   7.262   0.397
23476WAT     H270671   1.649   7.166   0.459
23477WAT      O70672   2.289   8.244   2.658
23477WAT     H170673   2.357   8.272   2.590
23477WAT     H270674   2.308   8.290   2.745
23478WAT      O70675   3.586   8.105   7.670
23478WAT     H170676   3.541   8.033   7.618
23478WAT     H270677   3.657   8.148   7.614
23479WAT      O70678   2.823   8.219   4.306
23479WAT     H170679   2.840   8.309   4.266
23479WAT     H270680   2.746   8.176   4.260
23480WAT      O70681   4.655   3.810   2.057
23480WAT     H170682   4.629   3.818   1.961
23480WAT     H270683   4.597   3.871   2.112
23481WAT      O70684   8.939   2.209   4.602
23481WAT     H170685   8.863   2.217   4.666
23481WAT     H270686   9.019   2.173   4.649
23482WAT      O70687   0.394   2.147   4.002
23482WAT     H170688   0.410   2.143   4.101
23482WAT     H270689   0.297   2.129   3.985
23483WAT      O70690   3.496   3.816   9.337
23483WAT     H170691   3.450   3.901   9.359
23483WAT     H270692   3.494   3.801   9.238
23484WAT      O70693   5.641   8.442   0.240
23484WAT     H170694   5.616   8.488   0.325
23484WAT     H270695   5.740   8.429   0.237
23485WAT      O70696   6.463   6.281   6.795
23485WAT     H170697   6.477   6.188   6.829
23485WAT     H270698   6.406   6.279   6.712
23486WAT      O70699   7.248   6.308   4.477
23486WAT     H170700   7.148   6.302   4.485
23486WAT     H270701   7.275   6.404   4.480
23487WAT      O70702   2.671   8.929   9.138
23487WAT     H170703   2.573   8.921   9.150
23487WAT     H270704   2.715   8.842   9.159
23488WAT      O70705   4.698   7.024   3.852
23488WAT     H170706   4.693   7.100   3.787
23488WAT     H270707   4.794   7.000   3.868
23489WAT      O70708   7.881   8.133   9.166
23489WAT     H170709   7.978   8.110   9.175
23489WAT     H270710   7.828   8.049   9.155
23490WAT      O70711   2.389   1.348   7.862
23490WAT     H170712   2.373   1.437   7.820
23490WAT     H270713   2.463   1.301   7.815
23491WAT      O70714   6.357   5.858   4.285
23491WAT     H170715   6.318   5.770   4.259
23491WAT     H270716   6.455   5.848   4.300
23492WAT      O70717   2.447   6.772   4.600
23492WAT     H170718   2.461   6.860   4.644
23492WAT     H270719   2.432   6.702   4.670
23493WAT      O70720   1.086   1.452   9.513
23493WAT     H170721   1.030   1.535   9.511
23493WAT     H270722   1.149   1.453   9.436
23494WAT      O70723   3.125   8.370   4.581
23494WAT     H170724   3.065   8.380   4.661
23494WAT     H270725   3.172   8.456   4.564
23495WAT      O70726   8.487   2.505   9.059
23495WAT     H170727   8.518   2.507   9.154
23495WAT     H270728   8.490   2.598   9.021
23496WAT      O70729   1.758   3.545   8.720
23496WAT     H170730   1.747   3.446   8.713
23496WAT     H270731   1.718   3.576   8.806
23497WAT      O70732   8.052   7.515   7.801
23497WAT     H170733   8.012   7.572   7.729
23497WAT     H270734   7.982   7.495   7.870
23498WAT      O70735   5.637   6.678   4.500
23498WAT     H170736   5.545   6.639   4.496
23498WAT     H270737   5.690   6.649   4.420
23499WAT      O70738   7.631   9.420   9.852
23499WAT     H170739   7.640   9.360   9.772
23499WAT     H270740   7.647   9.367   9.935
23500WAT      O70741   1.961   7.505   8.138
23500WAT     H170742   2.020   7.460   8.071
23500WAT     H270743   1.897   7.566   8.091
23501WAT      O70744   1.774   2.510   3.397
23501WAT     H170745   1.760   2.478   3.303
23501WAT     H270746   1.817   2.601   3.395
23502WAT      O70747   5.695   3.911   8.485
23502WAT     H170748   5.601   3.913   8.452
23502WAT     H270749   5.714   3.994   8.537
23503WAT      O70750   6.608   3.069   6.192
23503WAT     H170751   6.560   3.078   6.279
23503WAT     H270752   6.567   2.995   6.138
23504WAT      O70753   1.366   5.052   0.756
23504WAT     H170754   1.375   5.083   0.662
23504WAT     H270755   1.457   5.036   0.795
23505WAT      O70756   9.405   9.291   7.940
23505WAT     H170757   9.323   9.309   7.886
23505WAT     H270758   9.432   9.375   7.988
23506WAT      O70759   8.950   9.647   5.621
23506WAT     H170760   8.950   9.601   5.532
23506WAT     H270761   8.856   9.660   5.651
23507WAT      O70762   1.340   3.470   6.378
23507WAT     H170763   1.426   3.506   6.413
23507WAT     H270764   1.313   3.390   6.431
23508WAT      O70765   8.675   4.093   8.007
23508WAT     H170766   8.664   4.083   7.908
23508WAT     H270767   8.640   4.011   8.053
23509WAT      O70768   4.062   8.258   4.994
23509WAT     H170769   3.993   8.306   5.047
23509WAT     H270770   4.152   8.296   5.015
23510WAT      O70771   7.680   4.128   1.719
23510WAT     H170772   7.739   4.106   1.641
23510WAT     H270773   7.596   4.073   1.713
23511WAT      O70774   4.011   1.083   6.288
23511WAT     H170775   4.063   1.142   6.226
23511WAT     H270776   3.994   1.132   6.374
23512WAT      O70777   7.578   4.039   9.758
23512WAT     H170778   7.544   3.957   9.711
23512WAT     H270779   7.676   4.049   9.742
23513WAT      O70780   3.614   4.028   0.097
23513WAT     H170781   3.690   4.057   0.156
23513WAT     H270782   3.588   3.934   0.119
23514WAT      O70783   2.880   6.974   3.354
23514WAT     H170784   2.927   7.052   3.313
23514WAT     H270785   2.945   6.899   3.369
23515WAT      O70786   4.268   2.432   9.546
23515WAT     H170787   4.359   2.472   9.560
23515WAT     H270788   4.199   2.489   9.592
23516WAT      O70789   8.664   4.792   3.752
23516WAT     H170790   8.568   4.769   3.767
23516WAT     H270791   8.722   4.723   3.796
23517WAT      O70792   9.352   5.217   7.215
23517WAT     H170793   9.429   5.211   7.278
23517WAT     H270794   9.284   5.148   7.238
23518WAT      O70795   3.721   9.774   2.455
23518WAT     H170796   3.624   9.793   2.467
23518WAT     H270797   3.775   9.837   2.510
23519WAT      O70798   0.159   4.898   2.529
23519WAT     H170799   0.166   4.960   2.451
23519WAT     H270800   0.205   4.938   2.609
23520WAT      O70801   1.328   8.502   2.605
23520WAT     H170802   1.306   8.415   2.649
23520WAT     H270803   1.421   8.529   2.628
23521WAT      O70804   2.889   5.415   4.607
23521WAT     H170805   2.895   5.316   4.593
23521WAT     H270806   2.925   5.438   4.698
23522WAT      O70807   6.623   4.517   3.037
23522WAT     H170808   6.596   4.474   2.951
23522WAT     H270809   6.548   4.510   3.102
23523WAT      O70810   7.892   6.725   4.108
23523WAT     H170811   7.834   6.700   4.030
23523WAT     H270812   7.911   6.823   4.105
23524WAT      O70813   4.651   7.630   7.482
23524WAT     H170814   4.741   7.656   7.516
23524WAT     H270815   4.585   7.631   7.557
23525WAT      O70816   8.171   6.392   8.964
23525WAT     H170817   8.144   6.308   8.919
23525WAT     H270818   8.200   6.459   8.896
23526WAT      O70819   3.699   1.361   4.854
23526WAT     H170820   3.748   1.370   4.767
23526WAT     H270821   3.691   1.264   4.877
23527WAT      O70822   8.969   0.813   1.651
23527WAT     H170823   9.048   0.752   1.640
23527WAT     H270824   8.999   0.908   1.639
23528WAT      O70825   5.431   2.459   0.126
23528WAT     H170826   5.410   2.444   0.029
23528WAT     H270827   5.350   2.494   0.173
23529WAT      O70828   4.098   0.234   8.315
23529WAT     H170829   4.046   0.238   8.230
23529WAT     H270830   4.195   0.223   8.294
23530WAT      O70831   8.521   1.239   3.861
23530WAT     H170832   8.605   1.282   3.896
23530WAT     H270833   8.442   1.287   3.900
23531WAT      O70834   5.530   9.354   7.650
23531WAT     H170835   5.496   9.323   7.739
23531WAT     H270836   5.594   9.286   7.614
23532WAT      O70837   6.344   0.083   0.973
23532WAT     H170838   6.342   0.122   0.880
23532WAT     H270839   6.412   0.132   1.027
23533WAT      O70840   6.391   5.067   9.597
23533WAT     H170841   6.298   5.082   9.630
23533WAT     H270842   6.456   5.094   9.668
23534WAT      O70843   2.520   7.920   0.849
23534WAT     H170844   2.573   7.915   0.765
23534WAT     H270845   2.447   7.988   0.838
23535WAT      O70846   0.816   6.262   6.785
23535WAT     H170847   0.734   6.206   6.795
23535WAT     H270848   0.836   6.277   6.688
23536WAT      O70849   8.455   1.316   4.668
23536WAT     H170850   8.470   1.225   4.629
23536WAT     H270851   8.479   1.315   4.765
23537WAT      O70852   4.444   0.039   7.061
23537WAT     H170853   4.398   0.054   7.148
23537WAT     H270854   4.389   0.076   6.986
23538WAT      O70855   2.222   2.256   1.228
23538WAT     H170856   2.193   2.205   1.147
23538WAT     H270857   2.199   2.353   1.216
23539WAT      O70858   4.352   2.670   2.568
23539WAT     H170859   4.421   2.616   2.617
23539WAT     H270860   4.396   2.749   2.525
23540WAT      O70861   1.282   3.159   7.877
23540WAT     H170862   1.372   3.119   7.859
23540WAT     H270863   1.254   3.214   7.798
23541WAT      O70864   5.552   8.082   2.686
23541WAT     H170865   5.506   8.170   2.676
23541WAT     H270866   5.531   8.023   2.608
23542WAT      O70867   6.203   2.158   4.075
23542WAT     H170868   6.191   2.248   4.116
23542WAT     H270869   6.298   2.129   4.086
23543WAT      O70870   0.459   7.939   6.589
23543WAT     H170871   0.504   7.986   6.513
23543WAT     H270872   0.447   7.842   6.566
23544WAT      O70873   5.753   4.222   6.571
23544WAT     H170874   5.837   4.171   6.590
23544WAT     H270875   5.752   4.252   6.476
23545WAT      O70876   5.911   9.084   4.641
23545WAT     H170877   5.842   9.037   4.586
23545WAT     H270878   5.973   9.016   4.680
23546WAT      O70879   3.154   8.331   7.651
23546WAT     H170880   3.082   8.394   7.679
23546WAT     H270881   3.176   8.269   7.727
23547WAT      O70882   9.378   9.648   0.358
23547WAT     H170883   9.430   9.575   0.313
23547WAT     H270884   9.323   9.609   0.432
23548WAT      O70885   2.014   6.834   1.404
23548WAT     H170886   1.923   6.796   1.391
23548WAT     H270887   2.019   6.879   1.493
23549WAT      O70888   5.005   4.714   9.558
23549WAT     H170889   4.912   4.730   9.523
23549WAT     H270890   5.004   4.639   9.624
23550WAT      O70891   6.211   4.059   3.872
23550WAT     H170892   6.238   3.973   3.916
23550WAT     H270893   6.127   4.092   3.914
23551WAT      O70894   2.991   5.895   8.794
23551WAT     H170895   3.053   5.915   8.718
23551WAT     H270896   3.044   5.875   8.876
23552WAT      O70897   2.309   6.243   1.377
23552WAT     H170898   2.211   6.231   1.362
23552WAT     H270899   2.327   6.336   1.410
23553WAT      O70900   1.743   3.339   5.873
23553WAT     H170901   1.659   3.390   5.892
23553WAT     H270902   1.723   3.266   5.807
23554WAT      O70903   8.619   4.258   3.427
23554WAT     H170904   8.659   4.167   3.439
23554WAT     H270905   8.657   4.300   3.344
23555WAT      O70906   9.247   3.620   5.785
23555WAT     H170907   9.186   3.652   5.857
23555WAT     H270908   9.197   3.615   5.698
23556WAT      O70909   3.612   0.324   3.986
23556WAT     H170910   3.623   0.293   3.892
23556WAT     H270911   3.701   0.328   4.031
23557WAT      O70912   9.159   3.593   4.271
23557WAT     H170913   9.134   3.550   4.184
23557WAT     H270914   9.196   3.684   4.254
23558WAT      O70915   1.254   0.757   2.327
23558WAT     H170916   1.317   0.712   2.264
23558WAT     H270917   1.174   0.698   2.341
23559WAT      O70918   5.571   1.437   5.525
23559WAT     H170919   5.556   1.339   5.512
23559WAT     H270920   5.485   1.481   5.550
23560WAT      O70921   4.831   6.761   7.049
23560WAT     H170922   4.742   6.755   7.004
23560WAT     H270923   4.823   6.815   7.132
23561WAT      O70924   9.027   8.110   2.227
23561WAT     H170925   9.059   8.027   2.183
23561WAT     H270926   9.044   8.105   2.326
23562WAT      O70927   4.911   8.395   8.443
23562WAT     H170928   4.898   8.296   8.432
23562WAT     H270929   4.890   8.420   8.538
23563WAT      O70930   7.933   5.910   8.417
23563WAT     H170931   7.885   5.997   8.409
23563WAT     H270932   8.009   5.919   8.481
23564WAT      O70933   3.846   6.810   6.910
23564WAT     H170934   3.857   6.795   7.009
23564WAT     H270935   3.933   6.791   6.864
23565WAT      O70936   1.164   2.771   8.521
23565WAT     H170937   1.208   2.697   8.471
23565WAT     H270938   1.216   2.793   8.602
23566WAT      O70939   6.100   6.235   7.553
23566WAT     H170940   6.115   6.268   7.460
23566WAT     H270941   6.077   6.138   7.551
23567WAT      O70942   4.121   2.349   1.536
23567WAT     H170943   4.075   2.434   1.560
23567WAT     H270944   4.204   2.339   1.591
23568WAT      O70945   3.149   7.687   1.637
23568WAT     H170946   3.117   7.613   1.696
23568WAT     H270947   3.184   7.648   1.552
23569WAT      O70948   7.545   3.320   2.161
23569WAT     H170949   7.514   3.244   2.218
23569WAT     H270950   7.524   3.406   2.206
23570WAT      O70951   2.651   4.410   4.992
23570WAT     H170952   2.683   4.339   4.930
23570WAT     H270953   2.710   4.414   5.073
23571WAT      O70954   8.989   0.214   2.131
23571WAT     H170955   8.909   0.265   2.163
23571WAT     H270956   9.073   0.260   2.162
23572WAT      O70957   2.330   7.820   1.750
23572WAT     H170958   2.333   7.755   1.825
23572WAT     H270959   2.371   7.906   1.779
23573WAT      O70960   3.061   9.200   5.468
23573WAT     H170961   3.044   9.274   5.404
23573WAT     H270962   3.046   9.112   5.422
23574WAT      O70963   6.984   2.676   8.867
23574WAT     H170964   6.917   2.714   8.804
23574WAT     H270965   7.024   2.749   8.922
23575WAT      O70966   9.308   7.158   2.785
23575WAT     H170967   9.268   7.067   2.770
23575WAT     H270968   9.239   7.219   2.822
23576WAT      O70969   6.099   0.509   8.642
23576WAT     H170970   6.118   0.500   8.740
23576WAT     H270971   6.078   0.419   8.604
23577WAT      O70972   4.309   1.145   9.476
23577WAT     H170973   4.382   1.209   9.501
23577WAT     H270974   4.227   1.165   9.529
23578WAT      O70975   8.904   1.305   4.541
23578WAT     H170976   8.943   1.340   4.456
23578WAT     H270977   8.875   1.381   4.598
23579WAT      O70978   3.379   7.710   4.414
23579WAT     H170979   3.477   7.688   4.406
23579WAT     H270980   3.361   7.752   4.502
23580WAT      O70981   5.081   1.870   5.338
23580WAT     H170982   5.105   1.864   5.435
23580WAT     H270983   5.010   1.803   5.316
23581WAT      O70984   7.838   0.346   7.789
23581WAT     H170985   7.836   0.402   7.872
23581WAT     H270986   7.830   0.250   7.814
23582WAT      O70987   9.765   1.127   3.647
23582WAT     H170988   9.733   1.034   3.627
23582WAT     H270989   9.733   1.155   3.737
23583WAT      O70990   2.584   6.240   7.899
23583WAT     H170991   2.484   6.235   7.896
23583WAT     H270992   2.615   6.314   7.841
23584WAT      O70993   8.685   8.096   0.400
23584WAT     H170994   8.610   8.089   0.334
23584WAT     H270995   8.759   8.151   0.362
23585WAT      O70996   9.472   2.205   4.908
23585WAT     H170997   9.520   2.293   4.910
23585WAT     H270998   9.450   2.177   5.002
23586WAT      O70999   3.160   5.587   2.786
23586WAT     H171000   3.208   5.507   2.750
23586WAT     H271001   3.074   5.558   2.829
23587WAT      O71002   7.287   1.529   1.922
23587WAT     H171003   7.320   1.569   1.836
23587WAT     H271004   7.288   1.430   1.916
23588WAT      O71005   5.709   0.023   6.310
23588WAT     H171006   5.766   0.104   6.292
23588WAT     H271007   5.740  -0.022   6.393
23589WAT      O71008   7.750   2.683   7.134
23589WAT     H171009   7.823   2.741   7.172
23589WAT     H271010   7.791   2.601   7.095
23590WAT      O71011   5.002   4.224   6.511
23590WAT     H171012   5.077   4.255   6.452
23590WAT     H271013   5.036   4.211   6.604
23591WAT      O71014   5.272   2.216   1.588
23591WAT     H171015   5.227   2.189   1.673
23591WAT     H271016   5.204   2.226   1.516
23592WAT      O71017   7.285   6.715   2.136
23592WAT     H171018   7.306   6.641   2.072
23592WAT     H271019   7.186   6.723   2.147
23593WAT      O71020   5.452   5.938   8.811
23593WAT     H171021   5.405   6.025   8.827
23593WAT     H271022   5.446   5.914   8.714
23594WAT      O71023   8.328   5.034   9.393
23594WAT     H171024   8.331   5.085   9.479
23594WAT     H271025   8.250   4.972   9.393
23595WAT      O71026   0.379   5.980   5.715
23595WAT     H171027   0.403   6.077   5.727
23595WAT     H271028   0.361   5.939   5.805
23596WAT      O71029   2.883   8.562   3.914
23596WAT     H171030   2.944   8.642   3.913
23596WAT     H271031   2.876   8.527   4.007
23597WAT      O71032   0.919   6.964   7.105
23597WAT     H171033   0.833   6.977   7.153
23597WAT     H271034   0.912   6.885   7.044
23598WAT      O71035   2.930   1.747   0.511
23598WAT     H171036   2.833   1.739   0.491
23598WAT     H271037   2.944   1.805   0.591
23599WAT      O71038   7.011   5.094   1.644
23599WAT     H171039   6.915   5.092   1.669
23599WAT     H271040   7.057   5.170   1.690
23600WAT      O71041   1.690   8.335   9.454
23600WAT     H171042   1.602   8.293   9.436
23600WAT     H271043   1.689   8.379   9.543
23601WAT      O71044   7.007   9.795   2.156
23601WAT     H171045   6.931   9.792   2.092
23601WAT     H271046   7.091   9.820   2.108
23602WAT      O71047   1.934   2.755   3.067
23602WAT     H171048   2.017   2.790   3.025
23602WAT     H271049   1.921   2.800   3.156
23603WAT      O71050   4.747   1.119   1.514
23603WAT     H171051   4.719   1.103   1.608
23603WAT     H271052   4.691   1.193   1.474
23604WAT      O71053   6.432   7.410   6.161
23604WAT     H171054   6.452   7.350   6.239
23604WAT     H271055   6.419   7.504   6.194
23605WAT      O71056   0.750   5.597   1.540
23605WAT     H171057   0.819   5.525   1.548
23605WAT     H271058   0.774   5.672   1.602
23606WAT      O71059   8.188   7.213   4.372
23606WAT     H171060   8.284   7.198   4.397
23606WAT     H271061   8.130   7.199   4.453
23607WAT      O71062   9.509   5.582   0.558
23607WAT     H171063   9.454   5.569   0.476
23607WAT     H271064   9.583   5.516   0.560
23608WAT      O71065   8.811   9.603   9.678
23608WAT     H171066   8.902   9.608   9.637
23608WAT     H271067   8.819   9.609   9.777
23609WAT      O71068   0.456   0.537   9.046
23609WAT     H171069   0.475   0.469   9.117
23609WAT     H271070   0.382   0.504   8.988
23610WAT      O71071   2.681   0.147   2.464
23610WAT     H171072   2.773   0.164   2.428
23610WAT     H271073   2.678   0.055   2.504
23611WAT      O71074   0.544   8.506   6.983
23611WAT     H171075   0.454   8.506   7.026
23611WAT     H271076   0.548   8.434   6.914
23612WAT      O71077   4.593   3.617   3.755
23612WAT     H171078   4.686   3.619   3.717
23612WAT     H271079   4.568   3.710   3.784
23613WAT      O71080   6.940   0.298   0.003
23613WAT     H171081   7.016   0.358   0.026
23613WAT     H271082   6.925   0.232   0.078
23614WAT      O71083   0.670   3.610   7.959
23614WAT     H171084   0.722   3.693   7.940
23614WAT     H271085   0.604   3.628   8.032
23615WAT      O71086   0.233   3.440   4.022
23615WAT     H171087   0.223   3.354   4.072
23615WAT     H271088   0.192   3.431   3.931
23616WAT      O71089   3.711   9.035   1.190
23616WAT     H171090   3.771   9.045   1.111
23616WAT     H271091   3.701   8.938   1.212
23617WAT      O71092   7.850   8.931   7.965
23617WAT     H171093   7.830   8.846   8.014
23617WAT     H271094   7.937   8.921   7.916
23618WAT      O71095   3.460   7.805   4.647
23618WAT     H171096   3.559   7.808   4.633
23618WAT     H271097   3.440   7.813   4.745
23619WAT      O71098   2.455   0.605   5.702
23619WAT     H171099   2.400   0.562   5.774
23619WAT     H271100   2.540   0.641   5.741
23620WAT      O71101   3.472   2.602   4.316
23620WAT     H171102   3.443   2.587   4.411
23620WAT     H271103   3.408   2.555   4.255
23621WAT      O71104   4.235   5.573   6.587
23621WAT     H171105   4.273   5.590   6.496
23621WAT     H271106   4.218   5.660   6.634
23622WAT      O71107   1.735   2.425   9.480
23622WAT     H171108   1.679   2.459   9.404
23622WAT     H271109   1.823   2.473   9.479
23623WAT      O71110   6.879   6.548   4.895
23623WAT     H171111   6.858   6.541   4.797
23623WAT     H271112   6.869   6.643   4.925
23624WAT      O71113   3.598   3.820   2.295
23624WAT     H171114   3.604   3.920   2.303
23624WAT     H271115   3.515   3.788   2.341
23625WAT      O71116   6.653   0.327   5.386
23625WAT     H171117   6.716   0.292   5.455
23625WAT     H271118   6.645   0.262   5.310
23626WAT      O71119   2.542   3.335   6.313
23626WAT     H171120   2.620   3.391   6.286
23626WAT     H271121   2.469   3.346   6.246
23627WAT      O71122   3.795   3.454   1.789
23627WAT     H171123   3.860   3.408   1.728
23627WAT     H271124   3.844   3.511   1.854
23628WAT      O71125   1.154   8.907   9.628
23628WAT     H171126   1.251   8.885   9.614
23628WAT     H271127   1.124   8.867   9.715
23629WAT      O71128   4.286   2.646   0.944
23629WAT     H171129   4.312   2.683   1.033
23629WAT     H271130   4.294   2.717   0.874
23630WAT      O71131   2.481   5.072   8.658
23630WAT     H171132   2.442   5.013   8.587
23630WAT     H271133   2.576   5.093   8.635
23631WAT      O71134   4.375   7.570   9.346
23631WAT     H171135   4.277   7.554   9.332
23631WAT     H271136   4.405   7.523   9.429
23632WAT      O71137   3.365   7.167   3.348
23632WAT     H171138   3.458   7.137   3.327
23632WAT     H271139   3.322   7.102   3.412
23633WAT      O71140   4.437   5.206   7.396
23633WAT     H171141   4.452   5.114   7.359
23633WAT     H271142   4.508   5.227   7.464
23634WAT      O71143   9.474   1.930   8.915
23634WAT     H171144   9.424   2.005   8.959
23634WAT     H271145   9.430   1.843   8.938
23635WAT      O71146   4.911   7.107   2.815
23635WAT     H171147   4.972   7.148   2.747
23635WAT     H271148   4.886   7.175   2.883
23636WAT      O71149   9.760   5.993   1.410
23636WAT     H171150   9.805   5.904   1.405
23636WAT     H271151   9.683   5.988   1.474
23637WAT      O71152   6.873   6.471   4.160
23637WAT     H171153   6.880   6.372   4.174
23637WAT     H271154   6.946   6.501   4.100
23638WAT      O71155   3.533   8.900   2.383
23638WAT     H171156   3.468   8.912   2.458
23638WAT     H271157   3.618   8.861   2.418
23639WAT      O71158   3.944   2.378   5.639
23639WAT     H171159   3.881   2.430   5.581
23639WAT     H271160   3.922   2.396   5.735
23640WAT      O71161   7.497   6.359   2.852
23640WAT     H171162   7.401   6.380   2.837
23640WAT     H271163   7.523   6.388   2.945
23641WAT      O71164   3.668   8.179   2.225
23641WAT     H171165   3.685   8.104   2.289
23641WAT     H271166   3.732   8.173   2.149
23642WAT      O71167   5.792   2.807   5.160
23642WAT     H171168   5.830   2.866   5.089
23642WAT     H271169   5.727   2.743   5.119
23643WAT      O71170   3.940   4.905   9.725
23643WAT     H171171   3.987   4.967   9.662
23643WAT     H271172   3.861   4.864   9.677
23644WAT      O71173   1.588   7.006   5.397
23644WAT     H171174   1.666   6.951   5.365
23644WAT     H271175   1.575   6.990   5.495
23645WAT      O71176   4.895   2.016   4.882
23645WAT     H171177   4.981   2.048   4.843
23645WAT     H271178   4.820   2.073   4.848
23646WAT      O71179   3.250   2.726   4.596
23646WAT     H171180   3.307   2.653   4.559
23646WAT     H271181   3.291   2.815   4.572
23647WAT      O71182   9.282   7.890   5.028
23647WAT     H171183   9.258   7.892   4.931
23647WAT     H271184   9.369   7.937   5.042
23648WAT      O71185   9.031   8.005   8.089
23648WAT     H171186   9.125   7.974   8.082
23648WAT     H271187   9.018   8.086   8.032
23649WAT      O71188   4.879   8.873   3.083
23649WAT     H171189   4.828   8.822   3.152
23649WAT     H271190   4.889   8.968   3.113
23650WAT      O71191   5.139   0.340   5.604
23650WAT     H171192   5.052   0.305   5.640
23650WAT     H271193   5.189   0.385   5.678
23651WAT      O71194   9.502   1.987   1.370
23651WAT     H171195   9.587   2.040   1.366
23651WAT     H271196   9.476   1.959   1.278
23652WAT      O71197   3.451   9.779   2.544
23652WAT     H171198   3.372   9.747   2.491
23652WAT     H271199   3.420   9.841   2.616
23653WAT      O71200   8.297   7.155   9.498
23653WAT     H171201   8.277   7.062   9.469
23653WAT     H271202   8.385   7.157   9.545
23654WAT      O71203   3.315   6.334   3.322
23654WAT     H171204   3.353   6.303   3.235
23654WAT     H271205   3.264   6.260   3.365
23655WAT      O71206   5.325   7.256   4.200
23655WAT     H171207   5.340   7.161   4.227
23655WAT     H271208   5.231   7.282   4.223
23656WAT      O71209   6.405   5.239   4.887
23656WAT     H171210   6.338   5.206   4.821
23656WAT     H271211   6.438   5.163   4.942
23657WAT      O71212   0.275   7.640   3.421
23657WAT     H171213   0.185   7.683   3.424
23657WAT     H271214   0.282   7.573   3.495
23658WAT      O71215   2.221   4.391   2.861
23658WAT     H171216   2.237   4.488   2.876
23658WAT     H271217   2.212   4.344   2.949
23659WAT      O71218   8.778   1.279   9.077
23659WAT     H171219   8.772   1.327   8.990
23659WAT     H271220   8.754   1.182   9.064
23660WAT      O71221   3.572   6.627   6.487
23660WAT     H171222   3.556   6.559   6.415
23660WAT     H271223   3.486   6.669   6.513
23661WAT      O71224   8.769   7.607   3.217
23661WAT     H171225   8.733   7.545   3.286
23661WAT     H271226   8.811   7.686   3.262
23662WAT      O71227   6.595   6.149   0.647
23662WAT     H171228   6.551   6.064   0.618
23662WAT     H271229   6.662   6.177   0.579
23663WAT      O71230   9.733   3.953   2.150
23663WAT     H171231   9.706   3.954   2.246
23663WAT     H271232   9.786   4.034   2.129
23664WAT      O71233   3.061   7.312   7.809
23664WAT     H171234   2.996   7.265   7.869
23664WAT     H271235   3.017   7.391   7.767
23665WAT      O71236   5.520   6.536   5.706
23665WAT     H171237   5.533   6.633   5.721
23665WAT     H271238   5.578   6.484   5.769
23666WAT      O71239   2.422   6.556   4.795
23666WAT     H171240   2.404   6.551   4.894
23666WAT     H271241   2.481   6.479   4.769
23667WAT      O71242   4.168   2.824   1.444
23667WAT     H171243   4.133   2.907   1.400
23667WAT     H271244   4.235   2.780   1.385
23668WAT      O71245   1.085   8.657   3.815
23668WAT     H171246   1.171   8.621   3.779
23668WAT     H271247   1.048   8.726   3.753
23669WAT      O71248   1.994   2.558   9.528
23669WAT     H171249   2.036   2.486   9.473
23669WAT     H271250   2.052   2.640   9.525
23670WAT      O71251   3.450   6.824   9.243
23670WAT     H171252   3.496   6.798   9.159
23670WAT     H271253   3.416   6.743   9.290
23671WAT      O71254   8.925   7.704   7.340
23671WAT     H171255   8.954   7.631   7.278
23671WAT     H271256   8.884   7.778   7.287
23672WAT      O71257   3.600   1.719   0.148
23672WAT     H171258   3.687   1.672   0.161
23672WAT     H271259   3.607   1.781   0.070
23673WAT      O71260   5.866   7.582   7.689
23673WAT     H171261   5.908   7.645   7.754
23673WAT     H271262   5.769   7.604   7.679
23674WAT      O71263   0.833   2.780   5.282
23674WAT     H171264   0.734   2.782   5.264
23674WAT     H271265   0.882   2.814   5.202
23675WAT      O71266   6.571   3.006   8.803
23675WAT     H171267   6.518   3.023   8.886
23675WAT     H271268   6.579   2.907   8.789
23676WAT      O71269   6.302   7.452   8.991
23676WAT     H171270   6.368   7.484   8.923
23676WAT     H271271   6.214   7.436   8.947
23677WAT      O71272   9.386   1.561   9.741
23677WAT     H171273   9.458   1.572   9.810
23677WAT     H271274   9.387   1.639   9.679
23678WAT      O71275   6.388   8.745   2.728
23678WAT     H171276   6.371   8.721   2.824
23678WAT     H271277   6.454   8.680   2.689
23679WAT      O71278   3.732   7.360   3.063
23679WAT     H171279   3.804   7.305   3.021
23679WAT     H271280   3.657   7.372   2.997
23680WAT      O71281   1.723   3.695   5.444
23680WAT     H171282   1.722   3.604   5.403
23680WAT     H271283   1.637   3.742   5.423
23681WAT      O71284   0.941   5.129   5.390
23681WAT     H171285   0.901   5.139   5.481
23681WAT     H271286   0.890   5.187   5.325
23682WAT      O71287   0.698   4.579   7.027
23682WAT     H171288   0.626   4.593   6.960
23682WAT     H271289   0.671   4.507   7.091
23683WAT      O71290   3.923   8.941   7.797
23683WAT     H171291   3.865   8.866   7.764
23683WAT     H271292   3.897   9.026   7.752
23684WAT      O71293   6.728   5.240   2.831
23684WAT     H171294   6.642   5.191   2.841
23684WAT     H271295   6.777   5.207   2.750
23685WAT      O71296   7.804   7.521   4.703
23685WAT     H171297   7.761   7.508   4.614
23685WAT     H271298   7.735   7.515   4.775
23686WAT      O71299   1.634   5.141   8.257
23686WAT     H171300   1.718   5.195   8.251
23686WAT     H271301   1.581   5.171   8.336
23687WAT      O71302   2.686   2.763   9.147
23687WAT     H171303   2.785   2.767   9.133
23687WAT     H271304   2.657   2.667   9.152
23688WAT      O71305   6.571   2.591   8.024
23688WAT     H171306   6.519   2.676   8.026
23688WAT     H271307   6.610   2.577   7.933
23689WAT      O71308   4.551   0.321   1.858
23689WAT     H171309   4.548   0.226   1.889
23689WAT     H271310   4.631   0.333   1.798
23690WAT      O71311   1.221   4.512   5.423
23690WAT     H171312   1.158   4.554   5.487
23690WAT     H271313   1.287   4.456   5.473
23691WAT      O71314   9.355   7.485   3.844
23691WAT     H171315   9.453   7.485   3.823
23691WAT     H271316   9.335   7.412   3.909
23692WAT      O71317   8.004   1.967   8.649
23692WAT     H171318   7.944   2.034   8.692
23692WAT     H271319   7.961   1.933   8.565
23693WAT      O71320   8.277   3.451   0.651
23693WAT     H171321   8.326   3.538   0.660
23693WAT     H271322   8.238   3.426   0.740
23694WAT      O71323   0.052   4.751   2.239
23694WAT     H171324  -0.040   4.766   2.275
23694WAT     H271325   0.072   4.654   2.237
23695WAT      O71326   5.903   3.752   6.960
23695WAT     H171327   5.865   3.828   7.013
23695WAT     H271328   5.884   3.766   6.863
23696WAT      O71329   9.487   3.824   1.517
23696WAT     H171330   9.528   3.913   1.538
23696WAT     H271331   9.558   3.762   1.485
23697WAT      O71332   1.799   7.719   6.082
23697WAT     H171333   1.793   7.776   6.164
23697WAT     H271334   1.831   7.627   6.108
23698WAT      O71335   3.385   1.869   6.274
23698WAT     H171336   3.424   1.924   6.200
23698WAT     H271337   3.287   1.858   6.258
23699WAT      O71338   1.020   7.911   7.464
23699WAT     H171339   0.987   7.921   7.370
23699WAT     H271340   0.946   7.878   7.522
23700WAT      O71341   9.614   3.077   8.765
23700WAT     H171342   9.682   3.006   8.782
23700WAT     H271343   9.631   3.155   8.825
23701WAT      O71344   3.816   8.765   7.105
23701WAT     H171345   3.763   8.847   7.129
23701WAT     H271346   3.778   8.724   7.022
23702WAT      O71347   8.195   6.185   3.696
23702WAT     H171348   8.290   6.190   3.728
23702WAT     H271349   8.187   6.112   3.629
23703WAT      O71350   3.511   3.418   4.995
23703WAT     H171351   3.466   3.462   4.917
23703WAT     H271352   3.442   3.371   5.050
23704WAT      O71353   2.533   7.079   5.467
23704WAT     H171354   2.450   7.134   5.457
23704WAT     H271355   2.597   7.125   5.528
23705WAT      O71356   6.801   9.812   7.823
23705WAT     H171357   6.813   9.871   7.743
23705WAT     H271358   6.891   9.782   7.855
23706WAT      O71359   9.858   5.360   7.801
23706WAT     H171360   9.798   5.341   7.879
23706WAT     H271361   9.943   5.308   7.811
23707WAT      O71362   8.193   1.422   7.203
23707WAT     H171363   8.174   1.473   7.119
23707WAT     H271364   8.219   1.486   7.276
23708WAT      O71365   5.770   2.751   3.472
23708WAT     H171366   5.746   2.687   3.546
23708WAT     H271367   5.833   2.706   3.409
23709WAT      O71368   4.169   6.707   6.323
23709WAT     H171369   4.174   6.796   6.369
23709WAT     H271370   4.115   6.716   6.239
23710WAT      O71371   4.303   2.166   2.081
23710WAT     H171372   4.237   2.137   2.150
23710WAT     H271373   4.334   2.259   2.102
23711WAT      O71374   7.371   8.054   5.917
23711WAT     H171375   7.272   8.058   5.932
23711WAT     H271376   7.398   7.959   5.898
23712WAT      O71377   5.177   9.000   7.353
23712WAT     H171378   5.092   8.948   7.341
23712WAT     H271379   5.158   9.097   7.343
23713WAT      O71380   7.405   8.916   4.943
23713WAT     H171381   7.420   9.009   4.976
23713WAT     H271382   7.439   8.908   4.850
23714WAT      O71383   1.935   7.605   1.039
23714WAT     H171384   1.986   7.526   1.072
23714WAT     H271385   1.845   7.576   1.008
23715WAT      O71386   0.969   5.736   6.991
23715WAT     H171387   0.974   5.646   7.033
23715WAT     H271388   1.011   5.734   6.901
23716WAT      O71389   7.790   2.026   1.953
23716WAT     H171390   7.721   2.059   2.018
23716WAT     H271391   7.748   1.962   1.889
23717WAT      O71392   8.210   6.590   0.828
23717WAT     H171393   8.183   6.681   0.860
23717WAT     H271394   8.134   6.526   0.841
23718WAT      O71395   8.176   7.064   2.155
23718WAT     H171396   8.114   7.025   2.087
23718WAT     H271397   8.145   7.156   2.180
23719WAT      O71398   5.953   5.900   8.827
23719WAT     H171399   5.918   5.937   8.913
23719WAT     H271400   5.999   5.813   8.845
23720WAT      O71401   4.760   1.601   2.797
23720WAT     H171402   4.786   1.587   2.893
23720WAT     H271403   4.828   1.659   2.752
23721WAT      O71404   6.086   9.361   1.016
23721WAT     H171405   6.033   9.440   1.048
23721WAT     H271406   6.181   9.389   0.999
23722WAT      O71407   0.943   6.548   6.254
23722WAT     H171408   0.999   6.524   6.333
23722WAT     H271409   0.933   6.647   6.250
23723WAT      O71410   4.484   7.609   8.099
23723WAT     H171411   4.571   7.560   8.085
23723WAT     H271412   4.422   7.552   8.152
23724WAT      O71413   4.933   0.317   1.286
23724WAT     H171414   4.835   0.334   1.290
23724WAT     H271415   4.981   0.390   1.335
23725WAT      O71416   1.193   5.556   8.551
23725WAT     H171417   1.245   5.578   8.634
23725WAT     H271418   1.254   5.557   8.472
23726WAT      O71419   8.837   9.308   7.517
23726WAT     H171420   8.747   9.337   7.485
23726WAT     H271421   8.826   9.229   7.578
23727WAT      O71422   3.084   1.728   6.777
23727WAT     H171423   3.117   1.818   6.748
23727WAT     H271424   3.118   1.659   6.714
23728WAT      O71425   8.663   2.028   1.395
23728WAT     H171426   8.722   1.948   1.390
23728WAT     H271427   8.704   2.097   1.454
23729WAT      O71428   1.749   6.769   9.830
23729WAT     H171429   1.793   6.746   9.744
23729WAT     H271430   1.767   6.698   9.898
23730WAT      O71431   3.510   8.075   5.947
23730WAT     H171432   3.594   8.072   6.000
23730WAT     H271433   3.451   8.147   5.984
23731WAT      O71434   6.580   8.481   3.141
23731WAT     H171435   6.609   8.415   3.210
23731WAT     H271436   6.650   8.488   3.070
23732WAT      O71437   3.981   5.827   2.134
23732WAT     H171438   3.964   5.790   2.043
23732WAT     H271439   4.057   5.891   2.130
23733WAT      O71440   9.453   6.098   7.249
23733WAT     H171441   9.423   6.006   7.272
23733WAT     H271442   9.522   6.128   7.315
23734WAT      O71443   6.087   2.281   9.144
23734WAT     H171444   6.043   2.250   9.060
23734WAT     H271445   6.068   2.379   9.157
23735WAT      O71446   4.427   5.352   0.320
23735WAT     H171447   4.419   5.391   0.228
23735WAT     H271448   4.356   5.390   0.378
23736WAT      O71449   2.528   0.393   3.367
23736WAT     H171450   2.520   0.463   3.296
23736WAT     H271451   2.507   0.303   3.327
23737WAT      O71452   7.441   1.965   8.372
23737WAT     H171453   7.519   1.902   8.367
23737WAT     H271454   7.384   1.954   8.290
23738WAT      O71455   1.239   8.222   5.289
23738WAT     H171456   1.308   8.172   5.341
23738WAT     H271457   1.240   8.191   5.194
23739WAT      O71458   0.875   1.082   8.727
23739WAT     H171459   0.865   1.126   8.816
23739WAT     H271460   0.817   1.129   8.660
23740WAT      O71461   4.883   8.035   6.511
23740WAT     H171462   4.871   7.969   6.437
23740WAT     H271463   4.981   8.048   6.528
23741WAT      O71464   3.851   9.334   3.627
23741WAT     H171465   3.759   9.305   3.653
23741WAT     H271466   3.854   9.352   3.528
23742WAT      O71467   1.277   8.285   0.219
23742WAT     H171468   1.210   8.211   0.215
23742WAT     H271469   1.250   8.357   0.156
23743WAT      O71470   4.405   4.991   0.649
23743WAT     H171471   4.471   5.035   0.589
23743WAT     H271472   4.448   4.914   0.696
23744WAT      O71473   6.881   0.716   5.316
23744WAT     H171474   6.786   0.701   5.343
23744WAT     H271475   6.942   0.688   5.391
23745WAT      O71476   3.129   8.364   5.698
23745WAT     H171477   3.117   8.460   5.672
23745WAT     H271478   3.189   8.319   5.631
23746WAT      O71479   0.120   4.765   5.123
23746WAT     H171480   0.021   4.757   5.114
23746WAT     H271481   0.163   4.741   5.036
23747WAT      O71482   3.260   5.455   4.751
23747WAT     H171483   3.229   5.550   4.758
23747WAT     H271484   3.267   5.430   4.654
23748WAT      O71485   8.603   7.697   8.982
23748WAT     H171486   8.648   7.692   8.893
23748WAT     H271487   8.665   7.662   9.053
23749WAT      O71488   1.043   4.369   8.362
23749WAT     H171489   1.044   4.465   8.390
23749WAT     H271490   0.962   4.352   8.306
23750WAT      O71491   9.228   7.788   7.827
23750WAT     H171492   9.156   7.757   7.765
23750WAT     H271493   9.303   7.829   7.774
23751WAT      O71494   1.387   3.444   1.166
23751WAT     H171495   1.305   3.491   1.198
23751WAT     H271496   1.430   3.396   1.243
23752WAT      O71497   1.009   6.098   4.800
23752WAT     H171498   1.066   6.047   4.864
23752WAT     H271499   0.990   6.042   4.719
23753WAT      O71500   0.045   2.582   1.709
23753WAT     H171501  -0.022   2.564   1.637
23753WAT     H271502   0.045   2.679   1.731
23754WAT      O71503   6.282   5.881   6.110
23754WAT     H171504   6.205   5.835   6.064
23754WAT     H271505   6.368   5.839   6.081
23755WAT      O71506   2.271   2.286   8.019
23755WAT     H171507   2.194   2.336   8.059
23755WAT     H271508   2.345   2.349   7.998
23756WAT      O71509   4.073   3.463   8.508
23756WAT     H171510   4.128   3.396   8.559
23756WAT     H271511   4.129   3.504   8.436
23757WAT      O71512   6.199   2.601   9.254
23757WAT     H171513   6.119   2.576   9.309
23757WAT     H271514   6.175   2.600   9.157
23758WAT      O71515   3.312   6.252   6.493
23758WAT     H171516   3.218   6.278   6.471
23758WAT     H271517   3.358   6.328   6.540
23759WAT      O71518   9.567   6.625   8.316
23759WAT     H171519   9.472   6.639   8.344
23759WAT     H271520   9.578   6.657   8.222
23760WAT      O71521   4.889   0.170   4.072
23760WAT     H171522   4.794   0.152   4.048
23760WAT     H271523   4.947   0.157   3.991
23761WAT      O71524   3.006   8.472   9.689
23761WAT     H171525   3.049   8.463   9.779
23761WAT     H271526   3.073   8.507   9.623
23762WAT      O71527   7.005   0.685   9.688
23762WAT     H171528   6.998   0.587   9.670
23762WAT     H271529   7.086   0.723   9.643
23763WAT      O71530   6.871   6.531   1.008
23763WAT     H171531   6.781   6.500   0.977
23763WAT     H271532   6.892   6.491   1.097
23764WAT      O71533   1.733   6.119   1.111
23764WAT     H171534   1.677   6.149   1.189
23764WAT     H271535   1.688   6.145   1.026
23765WAT      O71536   7.715   8.952   2.865
23765WAT     H171537   7.777   9.030   2.875
23765WAT     H271538   7.753   8.873   2.913
23766WAT      O71539   8.356   8.965   7.479
23766WAT     H171540   8.296   8.886   7.487
23766WAT     H271541   8.446   8.936   7.446
23767WAT      O71542   7.951   3.749   2.702
23767WAT     H171543   7.990   3.658   2.688
23767WAT     H271544   7.862   3.754   2.657
23768WAT      O71545   1.961   5.787   1.632
23768WAT     H171546   1.943   5.839   1.716
23768WAT     H271547   1.900   5.708   1.628
23769WAT      O71548   1.090   3.841   1.082
23769WAT     H171549   1.088   3.908   1.008
23769WAT     H271550   1.057   3.884   1.166
23770WAT      O71551   1.757   6.266   5.180
23770WAT     H171552   1.765   6.169   5.202
23770WAT     H271553   1.801   6.320   5.252
23771WAT      O71554   9.530   0.166   1.282
23771WAT     H171555   9.508   0.104   1.357
23771WAT     H271556   9.521   0.118   1.195
23772WAT      O71557   3.525   4.122   1.660
23772WAT     H171558   3.497   4.066   1.738
23772WAT     H271559   3.619   4.100   1.635
23773WAT      O71560   3.493   8.238   6.675
23773WAT     H171561   3.554   8.169   6.635
23773WAT     H271562   3.405   8.237   6.627
23774WAT      O71563   1.433   5.016   5.400
23774WAT     H171564   1.508   5.075   5.431
23774WAT     H271565   1.350   5.070   5.388
23775WAT      O71566   2.726   2.467   9.189
23775WAT     H171567   2.718   2.368   9.178
23775WAT     H271568   2.760   2.487   9.281
23776WAT      O71569   6.893   9.225   2.193
23776WAT     H171570   6.919   9.322   2.194
23776WAT     H271571   6.844   9.203   2.277
23777WAT      O71572   7.831   5.478   8.828
23777WAT     H171573   7.905   5.519   8.880
23777WAT     H271574   7.774   5.550   8.788
23778WAT      O71575   9.220   0.314   1.651
23778WAT     H171576   9.156   0.351   1.584
23778WAT     H271577   9.179   0.316   1.742
23779WAT      O71578   3.521   6.480   9.529
23779WAT     H171579   3.531   6.390   9.487
23779WAT     H271580   3.607   6.530   9.521
23780WAT      O71581   5.644   3.380   4.032
23780WAT     H171582   5.632   3.470   4.073
23780WAT     H271583   5.617   3.309   4.097
23781WAT      O71584   3.821   5.207   2.081
23781WAT     H171585   3.769   5.169   2.158
23781WAT     H271586   3.780   5.294   2.053
23782WAT      O71587   3.983   0.772   1.695
23782WAT     H171588   3.990   0.867   1.667
23782WAT     H271589   4.031   0.758   1.782
23783WAT      O71590   2.831   0.174   1.244
23783WAT     H171591   2.810   0.085   1.203
23783WAT     H271592   2.890   0.226   1.182
23784WAT      O71593   1.409   5.371   1.272
23784WAT     H171594   1.381   5.383   1.177
23784WAT     H271595   1.379   5.450   1.326
23785WAT      O71596   1.944   7.877   7.250
23785WAT     H171597   1.896   7.796   7.284
23785WAT     H271598   1.880   7.953   7.243
23786WAT      O71599   2.388   8.682   6.454
23786WAT     H171600   2.415   8.599   6.504
23786WAT     H271601   2.470   8.735   6.432
23787WAT      O71602   2.104   6.387   5.263
23787WAT     H171603   2.006   6.384   5.284
23787WAT     H271604   2.137   6.295   5.244
23788WAT      O71605   3.335   1.572   3.591
23788WAT     H171606   3.383   1.657   3.570
23788WAT     H271607   3.267   1.554   3.520
23789WAT      O71608   2.373   3.268   5.638
23789WAT     H171609   2.338   3.182   5.674
23789WAT     H271610   2.297   3.328   5.613
23790WAT      O71611   4.917   5.904   4.427
23790WAT     H171612   4.882   5.975   4.488
23790WAT     H271613   5.016   5.896   4.439
23791WAT      O71614   6.610   0.124   2.887
23791WAT     H171615   6.515   0.093   2.884
23791WAT     H271616   6.650   0.121   2.796
23792WAT      O71617   2.557   2.286   7.793
23792WAT     H171618   2.564   2.320   7.886
23792WAT     H271619   2.569   2.362   7.729
23793WAT      O71620   5.586   6.906   4.660
23793WAT     H171621   5.606   6.819   4.615
23793WAT     H271622   5.625   6.981   4.607
23794WAT      O71623   1.087   9.248   0.129
23794WAT     H171624   1.125   9.336   0.155
23794WAT     H271625   1.052   9.252   0.035
23795WAT      O71626   8.475   3.478   8.336
23795WAT     H171627   8.461   3.399   8.277
23795WAT     H271628   8.386   3.513   8.367
23796WAT      O71629   3.930   1.706   3.113
23796WAT     H171630   3.840   1.750   3.116
23796WAT     H271631   3.986   1.741   3.188
23797WAT      O71632   9.467   3.464   9.037
23797WAT     H171633   9.403   3.402   8.990
23797WAT     H271634   9.513   3.521   8.969
23798WAT      O71635   5.145   7.940   5.980
23798WAT     H171636   5.199   7.878   5.923
23798WAT     H271637   5.197   7.966   6.061
23799WAT      O71638   3.330   0.622   2.168
23799WAT     H171639   3.384   0.667   2.239
23799WAT     H271640   3.252   0.576   2.210
23800WAT      O71641   6.908   1.069   1.261
23800WAT     H171642   6.938   1.164   1.248
23800WAT     H271643   6.926   1.041   1.355
23801WAT      O71644   9.675   2.603   1.024
23801WAT     H171645   9.682   2.684   1.081
23801WAT     H271646   9.748   2.539   1.048
23802WAT      O71647   4.758   4.027   3.202
23802WAT     H171648   4.744   3.961   3.129
23802WAT     H271649   4.699   4.004   3.280
23803WAT      O71650   9.734   0.047   9.160
23803WAT     H171651   9.639   0.075   9.170
23803WAT     H271652   9.793   0.108   9.213
23804WAT      O71653   7.376   5.537   7.499
23804WAT     H171654   7.352   5.633   7.489
23804WAT     H271655   7.323   5.483   7.434
23805WAT      O71656   4.763   4.411   3.017
23805WAT     H171657   4.823   4.351   3.070
23805WAT     H271658   4.697   4.453   3.078
23806WAT      O71659   6.876   0.499   6.189
23806WAT     H171660   6.843   0.573   6.131
23806WAT     H271661   6.838   0.412   6.158
23807WAT      O71662   4.568   2.290   8.874
23807WAT     H171663   4.632   2.366   8.866
23807WAT     H271664   4.613   2.214   8.921
23808WAT      O71665   5.664   9.787   9.815
23808WAT     H171666   5.677   9.864   9.877
23808WAT     H271667   5.706   9.808   9.727
23809WAT      O71668   5.665   5.042   9.440
23809WAT     H171669   5.697   4.992   9.521
23809WAT     H271670   5.583   4.997   9.404
23810WAT      O71671   4.150   4.830   8.790
23810WAT     H171672   4.142   4.929   8.798
23810WAT     H271673   4.061   4.787   8.806
23811WAT      O71674   6.005   2.765   2.567
23811WAT     H171675   6.060   2.773   2.485
23811WAT     H271676   5.913   2.801   2.550
23812WAT      O71677   3.799   6.518   4.333
23812WAT     H171678   3.725   6.544   4.271
23812WAT     H271679   3.858   6.451   4.289
23813WAT      O71680   8.688   0.316   1.910
23813WAT     H171681   8.727   0.377   1.841
23813WAT     H271682   8.601   0.353   1.942
23814WAT      O71683   9.785   4.771   6.390
23814WAT     H171684   9.721   4.792   6.317
23814WAT     H271685   9.744   4.791   6.478
23815WAT      O71686   1.542   2.882   8.943
23815WAT     H171687   1.601   2.931   9.008
23815WAT     H271688   1.456   2.859   8.988
23816WAT      O71689   6.010   0.841   4.470
23816WAT     H171690   5.955   0.925   4.475
23816WAT     H271691   6.050   0.833   4.379
23817WAT      O71692   5.185   7.183   1.426
23817WAT     H171693   5.279   7.179   1.393
23817WAT     H271694   5.133   7.105   1.390
23818WAT      O71695   6.719   5.088   0.290
23818WAT     H171696   6.747   5.184   0.290
23818WAT     H271697   6.799   5.030   0.300
23819WAT      O71698   2.853   2.057   6.613
23819WAT     H171699   2.841   1.959   6.626
23819WAT     H271700   2.788   2.107   6.670
23820WAT      O71701   8.154   2.494   6.565
23820WAT     H171702   8.107   2.407   6.546
23820WAT     H271703   8.202   2.487   6.652
23821WAT      O71704   8.100   0.201   0.265
23821WAT     H171705   8.100   0.209   0.165
23821WAT     H271706   8.163   0.128   0.292
23822WAT      O71707   8.154   0.146   2.204
23822WAT     H171708   8.125   0.051   2.195
23822WAT     H271709   8.254   0.150   2.207
23823WAT      O71710   0.496   6.855   0.569
23823WAT     H171711   0.566   6.900   0.514
23823WAT     H271712   0.407   6.898   0.553
23824WAT      O71713   2.513   7.718   5.197
23824WAT     H171714   2.426   7.703   5.149
23824WAT     H271715   2.587   7.674   5.146
23825WAT      O71716   8.738   1.950   4.854
23825WAT     H171717   8.715   2.046   4.866
23825WAT     H271718   8.687   1.895   4.920
23826WAT      O71719   5.206   5.817   4.460
23826WAT     H171720   5.208   5.913   4.490
23826WAT     H271721   5.191   5.758   4.539
23827WAT      O71722   9.613   7.028   0.080
23827WAT     H171723   9.656   7.090   0.146
23827WAT     H271724   9.661   6.940   0.080
23828WAT      O71725   0.973   2.302   7.623
23828WAT     H171726   0.998   2.213   7.661
23828WAT     H271727   0.916   2.352   7.688
23829WAT      O71728   4.266   8.507   0.970
23829WAT     H171729   4.337   8.560   1.017
23829WAT     H271730   4.185   8.564   0.956
23830WAT      O71731   3.622   8.152   8.731
23830WAT     H171732   3.662   8.085   8.793
23830WAT     H271733   3.576   8.105   8.656
23831WAT      O71734   5.567   1.730   2.575
23831WAT     H171735   5.472   1.734   2.543
23831WAT     H271736   5.621   1.676   2.512
23832WAT      O71737   2.341   9.037   6.319
23832WAT     H171738   2.340   8.977   6.239
23832WAT     H271739   2.416   9.009   6.379
23833WAT      O71740   8.925   1.022   7.943
23833WAT     H171741   8.969   0.996   8.029
23833WAT     H271742   8.993   1.024   7.870
23834WAT      O71743   9.212   6.305   7.745
23834WAT     H171744   9.139   6.355   7.699
23834WAT     H271745   9.176   6.259   7.826
23835WAT      O71746   8.362   6.619   9.287
23835WAT     H171747   8.265   6.614   9.313
23835WAT     H271748   8.372   6.679   9.208
23836WAT      O71749   0.731   7.826   8.593
23836WAT     H171750   0.780   7.864   8.515
23836WAT     H271751   0.794   7.771   8.648
23837WAT      O71752   8.273   8.146   1.670
23837WAT     H171753   8.304   8.199   1.749
23837WAT     H271754   8.351   8.101   1.627
23838WAT      O71755   1.941   3.568   2.388
23838WAT     H171756   2.027   3.530   2.354
23838WAT     H271757   1.960   3.626   2.468
23839WAT      O71758   9.619   8.834   4.782
23839WAT     H171759   9.621   8.867   4.687
23839WAT     H271760   9.524   8.829   4.813
23840WAT      O71761   0.937   8.336   0.289
23840WAT     H171762   0.968   8.421   0.247
23840WAT     H271763   0.852   8.352   0.340
23841WAT      O71764   3.871   2.919   8.577
23841WAT     H171765   3.779   2.935   8.614
23841WAT     H271766   3.900   2.999   8.524
23842WAT      O71767   3.361   6.416   9.187
23842WAT     H171768   3.344   6.499   9.240
23842WAT     H271769   3.458   6.408   9.166
23843WAT      O71770   6.988   6.708   9.384
23843WAT     H171771   6.962   6.800   9.358
23843WAT     H271772   7.088   6.701   9.387
23844WAT      O71773   6.465   8.664   8.308
23844WAT     H171774   6.416   8.733   8.361
23844WAT     H271775   6.529   8.710   8.247
23845WAT      O71776   5.416   7.716   9.141
23845WAT     H171777   5.329   7.764   9.126
23845WAT     H271778   5.491   7.771   9.106
23846WAT      O71779   2.696   8.752   0.010
23846WAT     H171780   2.717   8.779  -0.084
23846WAT     H271781   2.698   8.833   0.069
23847WAT      O71782   4.181   3.221   2.819
23847WAT     H171783   4.099   3.167   2.799
23847WAT     H271784   4.197   3.288   2.746
23848WAT      O71785   2.923   1.186   1.866
23848WAT     H171786   2.839   1.133   1.860
23848WAT     H271787   2.947   1.220   1.775
23849WAT      O71788   4.966   4.452   9.168
23849WAT     H171789   4.930   4.406   9.087
23849WAT     H271790   5.062   4.477   9.153
23850WAT      O71791   7.448   8.159   1.605
23850WAT     H171792   7.544   8.138   1.624
23850WAT     H271793   7.408   8.207   1.683
23851WAT      O71794   1.659   2.533   7.310
23851WAT     H171795   1.593   2.609   7.317
23851WAT     H271796   1.634   2.462   7.375
23852WAT      O71797   4.210   8.306   3.929
23852WAT     H171798   4.125   8.263   3.900
23852WAT     H271799   4.200   8.341   4.022
23853WAT      O71800   4.045   1.329   4.798
23853WAT     H171801   3.972   1.366   4.742
23853WAT     H271802   4.068   1.237   4.766
23854WAT      O71803   7.072   3.518   7.579
23854WAT     H171804   7.031   3.479   7.497
23854WAT     H271805   7.003   3.573   7.627
23855WAT      O71806   9.067   0.916   3.347
23855WAT     H171807   9.134   0.845   3.326
23855WAT     H271808   9.114   1.003   3.364
23856WAT      O71809   5.623   3.326   7.122
23856WAT     H171810   5.598   3.302   7.028
23856WAT     H271811   5.689   3.400   7.121
23857WAT      O71812   4.051   6.765   6.561
23857WAT     H171813   4.080   6.712   6.481
23857WAT     H271814   3.962   6.808   6.542
23858WAT      O71815   7.076   3.276   7.695
23858WAT     H171816   7.051   3.372   7.684
23858WAT     H271817   7.175   3.267   7.690
23859WAT      O71818   2.851   5.475   2.592
23859WAT     H171819   2.862   5.543   2.665
23859WAT     H271820   2.805   5.394   2.629
23860WAT      O71821   1.559   0.317   0.960
23860WAT     H171822   1.563   0.382   1.037
23860WAT     H271823   1.465   0.284   0.950
23861WAT      O71824   1.370   4.410   9.449
23861WAT     H171825   1.367   4.509   9.441
23861WAT     H271826   1.300   4.380   9.514
23862WAT      O71827   3.976   7.670   3.672
23862WAT     H171828   3.922   7.609   3.614
23862WAT     H271829   4.074   7.657   3.652
23863WAT      O71830   9.321   1.535   5.924
23863WAT     H171831   9.372   1.484   5.993
23863WAT     H271832   9.346   1.632   5.929
23864WAT      O71833   5.698   9.187   2.499
23864WAT     H171834   5.699   9.258   2.429
23864WAT     H271835   5.624   9.122   2.480
23865WAT      O71836   9.449   5.486   4.789
23865WAT     H171837   9.436   5.422   4.713
23865WAT     H271838   9.361   5.503   4.833
23866WAT      O71839   3.258   8.213   6.562
23866WAT     H171840   3.190   8.217   6.490
23866WAT     H271841   3.216   8.178   6.646
23867WAT      O71842   7.277   6.603   1.705
23867WAT     H171843   7.368   6.639   1.681
23867WAT     H271844   7.209   6.641   1.643
23868WAT      O71845   9.285   9.354   5.241
23868WAT     H171846   9.340   9.417   5.185
23868WAT     H271847   9.336   9.332   5.325
23869WAT      O71848   5.268   0.655   0.915
23869WAT     H171849   5.366   0.664   0.901
23869WAT     H271850   5.225   0.624   0.830
23870WAT      O71851   9.272   0.647   6.452
23870WAT     H171852   9.308   0.655   6.359
23870WAT     H271853   9.328   0.702   6.514
23871WAT      O71854   1.968   5.482   9.374
23871WAT     H171855   1.886   5.463   9.321
23871WAT     H271856   1.988   5.580   9.370
23872WAT      O71857   4.178   9.011   3.171
23872WAT     H171858   4.103   8.952   3.139
23872WAT     H271859   4.239   8.958   3.229
23873WAT      O71860   8.269   2.783   5.347
23873WAT     H171861   8.363   2.748   5.350
23873WAT     H271862   8.240   2.809   5.438
23874WAT      O71863   8.652   3.839   8.986
23874WAT     H171864   8.643   3.899   8.906
23874WAT     H271865   8.748   3.819   9.003
23875WAT      O71866   8.463   9.170   6.197
23875WAT     H171867   8.495   9.220   6.116
23875WAT     H271868   8.405   9.094   6.168
23876WAT      O71869   1.276   2.181   5.856
23876WAT     H171870   1.210   2.151   5.925
23876WAT     H271871   1.266   2.125   5.774
23877WAT      O71872   2.908   6.485   5.760
23877WAT     H171873   2.981   6.511   5.824
23877WAT     H271874   2.843   6.425   5.807
23878WAT      O71875   2.571   5.462   2.448
23878WAT     H171876   2.624   5.546   2.462
23878WAT     H271877   2.625   5.384   2.479
23879WAT      O71878   1.249   2.524   1.424
23879WAT     H171879   1.219   2.619   1.431
23879WAT     H271880   1.274   2.491   1.515
23880WAT      O71881   0.029   1.525   5.593
23880WAT     H171882   0.056   1.525   5.689
23880WAT     H271883  -0.058   1.475   5.583
23881WAT      O71884   1.834   1.718   1.479
23881WAT     H171885   1.882   1.673   1.554
23881WAT     H271886   1.738   1.728   1.502
23882WAT      O71887   8.186   8.108   4.599
23882WAT     H171888   8.169   8.194   4.551
23882WAT     H271889   8.230   8.126   4.686
23883WAT      O71890   1.807   0.224   5.638
23883WAT     H171891   1.844   0.151   5.581
23883WAT     H271892   1.811   0.310   5.587
23884WAT      O71893   3.562   0.936   1.262
23884WAT     H171894   3.579   0.849   1.307
23884WAT     H271895   3.533   1.004   1.329
23885WAT      O71896   3.123   7.425   6.093
23885WAT     H171897   3.115   7.476   6.178
23885WAT     H271898   3.103   7.328   6.111
23886WAT      O71899   0.909   4.206   5.035
23886WAT     H171900   0.999   4.235   5.003
23886WAT     H271901   0.846   4.200   4.958
23887WAT      O71902   7.432   8.953   7.895
23887WAT     H171903   7.414   8.987   7.803
23887WAT     H271904   7.351   8.905   7.930
23888WAT      O71905   3.847   6.500   5.699
23888WAT     H171906   3.830   6.527   5.794
23888WAT     H271907   3.855   6.400   5.694
23889WAT      O71908   5.976   8.248   5.850
23889WAT     H171909   5.933   8.166   5.887
23889WAT     H271910   5.905   8.314   5.824
23890WAT      O71911   5.595   2.894   1.881
23890WAT     H171912   5.648   2.812   1.861
23890WAT     H271913   5.657   2.973   1.888
23891WAT      O71914   6.914   7.045   1.116
23891WAT     H171915   6.903   7.104   1.036
23891WAT     H271916   6.909   7.100   1.199
23892WAT      O71917   0.054   0.811   4.310
23892WAT     H171918   0.055   0.734   4.373
23892WAT     H271919   0.076   0.779   4.217
23893WAT      O71920   5.311   2.078   0.144
23893WAT     H171921   5.397   2.127   0.159
23893WAT     H271922   5.254   2.085   0.226
23894WAT      O71923   3.095   0.441   5.098
23894WAT     H171924   3.156   0.520   5.099
23894WAT     H271925   3.000   0.473   5.089
23895WAT      O71926   4.784   5.860   7.809
23895WAT     H171927   4.716   5.912   7.860
23895WAT     H271928   4.850   5.922   7.768
23896WAT      O71929   9.323   1.201   0.795
23896WAT     H171930   9.362   1.270   0.856
23896WAT     H271931   9.314   1.240   0.703
23897WAT      O71932   1.153   9.144   4.070
23897WAT     H171933   1.207   9.091   4.005
23897WAT     H271934   1.107   9.219   4.021
23898WAT      O71935   2.335   6.568   4.179
23898WAT     H171936   2.314   6.547   4.274
23898WAT     H271937   2.319   6.487   4.122
23899WAT      O71938   6.399   3.078   0.443
23899WAT     H171939   6.427   3.070   0.538
23899WAT     H271940   6.350   2.995   0.415
23900WAT      O71941   4.040   3.803   1.239
23900WAT     H171942   4.030   3.746   1.321
23900WAT     H271943   4.007   3.896   1.259
23901WAT      O71944   4.677   1.812   2.121
23901WAT     H171945   4.641   1.749   2.190
23901WAT     H271946   4.636   1.903   2.134
23902WAT      O71947   8.849   6.718   6.683
23902WAT     H171948   8.925   6.653   6.687
23902WAT     H271949   8.877   6.798   6.629
23903WAT      O71950   2.778   1.853   5.746
23903WAT     H171951   2.688   1.888   5.720
23903WAT     H271952   2.795   1.766   5.700
23904WAT      O71953   2.355   5.686   4.249
23904WAT     H171954   2.372   5.587   4.248
23904WAT     H271955   2.262   5.704   4.218
23905WAT      O71956   3.450   3.303   6.862
23905WAT     H171957   3.416   3.221   6.815
23905WAT     H271958   3.475   3.279   6.956
23906WAT      O71959   4.106   9.591   1.402
23906WAT     H171960   4.109   9.689   1.419
23906WAT     H271961   4.154   9.543   1.475
23907WAT      O71962   1.095   4.171   9.135
23907WAT     H171963   1.095   4.105   9.059
23907WAT     H271964   1.165   4.145   9.201
23908WAT      O71965   5.393   5.248   4.790
23908WAT     H171966   5.332   5.202   4.855
23908WAT     H271967   5.441   5.323   4.837
23909WAT      O71968   1.483   9.533   0.477
23909WAT     H171969   1.457   9.573   0.565
23909WAT     H271970   1.432   9.449   0.462
23910WAT      O71971   0.972   6.756   0.254
23910WAT     H171972   0.998   6.712   0.167
23910WAT     H271973   0.993   6.854   0.249
23911WAT      O71974   1.522   6.239   5.497
23911WAT     H171975   1.619   6.229   5.518
23911WAT     H271976   1.477   6.149   5.502
23912WAT      O71977   9.003   1.305   7.115
23912WAT     H171978   9.039   1.388   7.073
23912WAT     H271979   8.925   1.271   7.062
23913WAT      O71980   6.720   7.104   7.127
23913WAT     H171981   6.736   7.160   7.047
23913WAT     H271982   6.718   7.161   7.209
23914WAT      O71983   6.747   4.726   7.966
23914WAT     H171984   6.833   4.728   8.016
23914WAT     H271985   6.677   4.680   8.020
23915WAT      O71986   9.636   7.419   6.444
23915WAT     H171987   9.633   7.425   6.544
23915WAT     H271988   9.592   7.334   6.414
23916WAT      O71989   3.202   8.349   7.385
23916WAT     H171990   3.147   8.352   7.468
23916WAT     H271991   3.264   8.271   7.388
23917WAT      O71992   4.230   9.308   0.363
23917WAT     H171993   4.237   9.358   0.277
23917WAT     H271994   4.147   9.252   0.362
23918WAT      O71995   2.780   9.259   7.790
23918WAT     H171996   2.857   9.296   7.739
23918WAT     H271997   2.789   9.160   7.796
23919WAT      O71998   5.992   1.093   6.043
23919WAT     H171999   5.920   1.069   5.978
23919WAT     H272000   6.081   1.093   5.997
23920WAT      O72001   6.445   1.801   5.188
23920WAT     H172002   6.369   1.863   5.169
23920WAT     H272003   6.413   1.706   5.184
23921WAT      O72004   1.843   7.564   0.302
23921WAT     H172005   1.901   7.637   0.266
23921WAT     H272006   1.783   7.602   0.374
23922WAT      O72007   8.812   3.284   4.549
23922WAT     H172008   8.855   3.349   4.486
23922WAT     H272009   8.715   3.277   4.529
23923WAT      O72010   6.407   4.412   7.868
23923WAT     H172011   6.429   4.316   7.851
23923WAT     H272012   6.381   4.456   7.782
23924WAT      O72013   4.846   0.331   8.610
23924WAT     H172014   4.770   0.268   8.628
23924WAT     H272015   4.811   0.424   8.598
23925WAT      O72016   2.449   2.015   3.012
23925WAT     H172017   2.370   1.977   2.963
23925WAT     H272018   2.531   1.964   2.986
23926WAT      O72019   5.491   5.527   4.080
23926WAT     H172020   5.396   5.526   4.051
23926WAT     H272021   5.497   5.498   4.176
23927WAT      O72022   7.731   6.440   7.098
23927WAT     H172023   7.766   6.507   7.033
23927WAT     H272024   7.806   6.383   7.131
23928WAT      O72025   0.091   8.195   7.446
23928WAT     H172026   0.182   8.155   7.454
23928WAT     H272027   0.028   8.148   7.508
23929WAT      O72028   8.442   6.175   3.870
23929WAT     H172029   8.459   6.126   3.955
23929WAT     H272030   8.410   6.268   3.890
23930WAT      O72031   9.183   7.892   4.035
23930WAT     H172032   9.134   7.813   3.998
23930WAT     H272033   9.152   7.910   4.128
23931WAT      O72034   2.496   1.883   5.950
23931WAT     H172035   2.398   1.895   5.937
23931WAT     H272036   2.525   1.934   6.032
23932WAT      O72037   0.321   6.495   9.666
23932WAT     H172038   0.263   6.414   9.662
23932WAT     H272039   0.417   6.467   9.671
23933WAT      O72040   3.193   8.652   5.700
23933WAT     H172041   3.280   8.615   5.734
23933WAT     H272042   3.205   8.683   5.605
23934WAT      O72043   1.078   2.868   0.726
23934WAT     H172044   1.152   2.914   0.776
23934WAT     H272045   1.040   2.930   0.658
23935WAT      O72046   5.865   6.746   7.356
23935WAT     H172047   5.887   6.828   7.409
23935WAT     H272048   5.882   6.763   7.259
23936WAT      O72049   5.886   7.243   7.517
23936WAT     H172050   5.951   7.318   7.502
23936WAT     H272051   5.794   7.281   7.528
23937WAT      O72052   3.109   4.581   5.282
23937WAT     H172053   3.091   4.525   5.363
23937WAT     H272054   3.204   4.612   5.284
23938WAT      O72055   6.594   8.214   2.336
23938WAT     H172056   6.630   8.218   2.243
23938WAT     H272057   6.524   8.284   2.348
23939WAT      O72058   5.503   5.149   0.971
23939WAT     H172059   5.551   5.142   0.883
23939WAT     H272060   5.440   5.226   0.968
23940WAT      O72061   9.732   5.939   2.133
23940WAT     H172062   9.723   6.037   2.147
23940WAT     H272063   9.826   5.911   2.156
23941WAT      O72064   1.579   6.074   6.523
23941WAT     H172065   1.534   6.006   6.582
23941WAT     H272066   1.654   6.030   6.473
23942WAT      O72067   1.624   8.591   1.025
23942WAT     H172068   1.541   8.547   0.989
23942WAT     H272069   1.605   8.687   1.043
23943WAT      O72070   9.420   6.020   0.254
23943WAT     H172071   9.442   5.923   0.264
23943WAT     H272072   9.504   6.072   0.236
23944WAT      O72073   0.868   8.794   1.772
23944WAT     H172074   0.810   8.764   1.696
23944WAT     H272075   0.824   8.870   1.819
23945WAT      O72076   9.761   9.785   1.371
23945WAT     H172077   9.837   9.751   1.315
23945WAT     H272078   9.743   9.880   1.347
23946WAT      O72079   6.126   7.664   5.541
23946WAT     H172080   6.210   7.694   5.587
23946WAT     H272081   6.086   7.741   5.491
23947WAT      O72082   5.585   2.295   6.647
23947WAT     H172083   5.625   2.302   6.739
23947WAT     H272084   5.512   2.227   6.648
23948WAT      O72085   1.778   7.005   1.077
23948WAT     H172086   1.758   6.945   1.155
23948WAT     H272087   1.877   7.011   1.063
23949WAT      O72088   0.467   9.635   0.203
23949WAT     H172089   0.563   9.650   0.179
23949WAT     H272090   0.435   9.551   0.161
23950WAT      O72091   3.986   4.417   6.774
23950WAT     H172092   4.015   4.436   6.868
23950WAT     H272093   3.940   4.498   6.737
23951WAT      O72094   1.107   9.071   5.058
23951WAT     H172095   1.167   8.994   5.038
23951WAT     H272096   1.125   9.105   5.150
23952WAT      O72097   4.944   6.019   7.654
23952WAT     H172098   4.958   6.109   7.695
23952WAT     H272099   4.893   6.029   7.568
23953WAT      O72100   8.934   1.810   1.873
23953WAT     H172101   8.892   1.719   1.868
23953WAT     H272102   8.888   1.872   1.809
23954WAT      O72103   1.053   4.025   3.062
23954WAT     H172104   1.153   4.023   3.070
23954WAT     H272105   1.022   3.943   3.015
23955WAT      O72106   4.122   1.093   4.223
23955WAT     H172107   4.185   1.031   4.176
23955WAT     H272108   4.051   1.123   4.159
23956WAT      O72109   9.125   7.726   9.278
23956WAT     H172110   9.087   7.668   9.351
23956WAT     H272111   9.217   7.694   9.254
23957WAT      O72112   6.890   3.113   9.461
23957WAT     H172113   6.930   3.178   9.397
23957WAT     H272114   6.907   3.144   9.555
23958WAT      O72115   5.507   7.610   1.014
23958WAT     H172116   5.409   7.627   1.020
23958WAT     H272117   5.541   7.642   0.926
23959WAT      O72118   0.865   3.393   2.251
23959WAT     H172119   0.873   3.310   2.196
23959WAT     H272120   0.955   3.433   2.264
23960WAT      O72121   0.941   4.238   9.618
23960WAT     H172122   0.914   4.221   9.523
23960WAT     H272123   1.016   4.304   9.620
23961WAT      O72124   2.085   7.990   4.945
23961WAT     H172125   2.184   7.979   4.940
23961WAT     H272126   2.043   7.907   4.981
23962WAT      O72127   4.116   9.667   4.525
23962WAT     H172128   4.088   9.592   4.585
23962WAT     H272129   4.162   9.630   4.444
23963WAT      O72130   8.424   6.630   3.532
23963WAT     H172131   8.396   6.710   3.586
23963WAT     H272132   8.462   6.661   3.445
23964WAT      O72133   6.395   9.689   6.272
23964WAT     H172134   6.385   9.740   6.186
23964WAT     H272135   6.487   9.704   6.309
23965WAT      O72136   7.070   7.235   6.167
23965WAT     H172137   7.100   7.164   6.231
23965WAT     H272138   7.150   7.283   6.131
23966WAT      O72139   9.364   9.785   3.837
23966WAT     H172140   9.406   9.848   3.902
23966WAT     H272141   9.343   9.699   3.884
23967WAT      O72142   6.772   4.359   8.466
23967WAT     H172143   6.787   4.455   8.442
23967WAT     H272144   6.694   4.324   8.414
23968WAT      O72145   7.054   2.374   8.383
23968WAT     H172146   7.149   2.387   8.354
23968WAT     H272147   6.995   2.370   8.302
23969WAT      O72148   0.530   4.437   4.971
23969WAT     H172149   0.454   4.372   4.979
23969WAT     H272150   0.587   4.431   5.053
23970WAT      O72151   0.573   7.364   9.250
23970WAT     H172152   0.664   7.399   9.228
23970WAT     H272153   0.579   7.266   9.270
23971WAT      O72154   6.714   2.520   3.569
23971WAT     H172155   6.618   2.492   3.580
23971WAT     H272156   6.763   2.449   3.519
23972WAT      O72157   4.397   9.841   7.445
23972WAT     H172158   4.323   9.779   7.420
23972WAT     H272159   4.423   9.825   7.540
23973WAT      O72160   2.182   1.158   4.509
23973WAT     H172161   2.104   1.176   4.449
23973WAT     H272162   2.254   1.225   4.492
23974WAT      O72163   6.360   9.078   4.680
23974WAT     H172164   6.409   8.991   4.683
23974WAT     H272165   6.286   9.077   4.748
23975WAT      O72166   5.493   2.841   0.378
23975WAT     H172167   5.397   2.841   0.349
23975WAT     H272168   5.537   2.925   0.346
23976WAT      O72169   7.550   2.891   8.568
23976WAT     H172170   7.482   2.926   8.504
23976WAT     H272171   7.504   2.863   8.653
23977WAT      O72172   6.912   4.732   1.628
23977WAT     H172173   6.839   4.675   1.667
23977WAT     H272174   6.877   4.824   1.610
23978WAT      O72175   8.092   8.686   6.133
23978WAT     H172176   7.995   8.672   6.150
23978WAT     H272177   8.124   8.621   6.064
23979WAT      O72178   2.769   8.539   3.664
23979WAT     H172179   2.754   8.445   3.636
23979WAT     H272180   2.813   8.541   3.753
23980WAT      O72181   8.838   8.427   4.972
23980WAT     H172182   8.781   8.412   5.053
23980WAT     H272183   8.830   8.349   4.910
23981WAT      O72184   1.584   9.763   6.069
23981WAT     H172185   1.551   9.670   6.084
23981WAT     H272186   1.652   9.764   5.996
23982WAT      O72187   4.527   1.622   4.522
23982WAT     H172188   4.469   1.681   4.466
23982WAT     H272189   4.607   1.594   4.470
23983WAT      O72190   4.022   8.302   0.126
23983WAT     H172191   3.981   8.249   0.052
23983WAT     H272192   3.950   8.346   0.180
23984WAT      O72193   5.121   9.285   7.372
23984WAT     H172194   5.065   9.362   7.403
23984WAT     H272195   5.118   9.280   7.272
23985WAT      O72196   8.687   5.483   1.967
23985WAT     H172197   8.733   5.568   1.943
23985WAT     H272198   8.600   5.477   1.919
23986WAT      O72199   3.394   6.098   1.045
23986WAT     H172200   3.371   6.179   0.991
23986WAT     H272201   3.310   6.053   1.076
23987WAT      O72202   2.369   7.177   7.228
23987WAT     H172203   2.442   7.144   7.288
23987WAT     H272204   2.364   7.276   7.234
23988WAT      O72205   2.818   0.251   3.993
23988WAT     H172206   2.750   0.295   3.934
23988WAT     H272207   2.897   0.224   3.938
23989WAT      O72208   8.740   4.148   6.960
23989WAT     H172209   8.701   4.067   6.916
23989WAT     H272210   8.671   4.192   7.017
23990WAT      O72211   5.731   7.190   4.916
23990WAT     H172212   5.771   7.199   5.007
23990WAT     H272213   5.632   7.204   4.921
23991WAT      O72214   0.450   4.307   5.508
23991WAT     H172215   0.404   4.229   5.551
23991WAT     H272216   0.548   4.300   5.526
23992WAT      O72217   0.390   2.512   2.142
23992WAT     H172218   0.356   2.441   2.204
23992WAT     H272219   0.334   2.512   2.059
23993WAT      O72220   0.841   3.880   2.219
23993WAT     H172221   0.748   3.859   2.190
23993WAT     H272222   0.842   3.900   2.317
23994WAT      O72223   1.176   1.420   8.636
23994WAT     H172224   1.089   1.469   8.642
23994WAT     H272225   1.166   1.329   8.676
23995WAT      O72226   6.847   2.299   0.692
23995WAT     H172227   6.780   2.277   0.763
23995WAT     H272228   6.811   2.277   0.602
23996WAT      O72229   9.668   9.633   3.209
23996WAT     H172230   9.684   9.731   3.198
23996WAT     H272231   9.624   9.597   3.126
23997WAT      O72232   8.484   3.510   3.599
23997WAT     H172233   8.577   3.531   3.569
23997WAT     H272234   8.486   3.435   3.665
23998WAT      O72235   1.338   9.827   2.535
23998WAT     H172236   1.282   9.875   2.468
23998WAT     H272237   1.433   9.859   2.528
23999WAT      O72238   8.838   9.241   5.701
23999WAT     H172239   8.744   9.206   5.698
23999WAT     H272240   8.867   9.267   5.609
24000WAT      O72241   5.779   7.259   5.898
24000WAT     H172242   5.878   7.261   5.912
24000WAT     H272243   5.744   7.166   5.916
24001WAT      O72244   4.001   3.583   9.662
24001WAT     H172245   3.948   3.549   9.739
24001WAT     H272246   4.094   3.548   9.667
24002WAT      O72247   2.784   1.268   8.986
24002WAT     H172248   2.854   1.206   9.023
24002WAT     H272249   2.800   1.360   9.021
24003WAT      O72250   5.608   1.479   7.398
24003WAT     H172251   5.676   1.449   7.465
24003WAT     H272252   5.631   1.442   7.308
24004WAT      O72253   4.020   4.189   6.889
24004WAT     H172254   3.961   4.165   6.966
24004WAT     H272255   3.977   4.263   6.836
24005WAT      O72256   8.431   5.477   4.350
24005WAT     H172257   8.434   5.502   4.447
24005WAT     H272258   8.486   5.542   4.297
24006WAT      O72259   6.078   3.564   8.436
24006WAT     H172260   6.086   3.530   8.530
24006WAT     H272261   6.040   3.492   8.378
24007WAT      O72262   4.590   9.668   3.590
24007WAT     H172263   4.624   9.647   3.499
24007WAT     H272264   4.528   9.595   3.619
24008WAT      O72265   7.785   0.484   7.328
24008WAT     H172266   7.775   0.384   7.332
24008WAT     H272267   7.880   0.508   7.347
24009WAT      O72268   9.168   6.094   0.304
24009WAT     H172269   9.251   6.056   0.262
24009WAT     H272270   9.123   6.155   0.239
24010WAT      O72271   8.961   1.802   5.570
24010WAT     H172272   8.906   1.728   5.531
24010WAT     H272273   8.935   1.889   5.528
24011WAT      O72274   6.352   4.517   5.083
24011WAT     H172275   6.321   4.598   5.132
24011WAT     H272276   6.328   4.435   5.135
24012WAT      O72277   0.146   3.810   2.187
24012WAT     H172278   0.155   3.859   2.101
24012WAT     H272279   0.079   3.736   2.176
24013WAT      O72280   6.915   7.539   3.683
24013WAT     H172281   6.844   7.607   3.707
24013WAT     H272282   6.997   7.587   3.652
24014WAT      O72283   3.876   1.434   3.012
24014WAT     H172284   3.907   1.528   3.026
24014WAT     H272285   3.780   1.425   3.040
24015WAT      O72286   1.924   3.094   2.609
24015WAT     H172287   1.881   3.117   2.522
24015WAT     H272288   1.968   3.175   2.647
24016WAT      O72289   9.226   2.501   7.064
24016WAT     H172290   9.300   2.463   7.118
24016WAT     H272291   9.152   2.433   7.057
24017WAT      O72292   1.662   4.722   7.971
24017WAT     H172293   1.678   4.786   7.895
24017WAT     H272294   1.748   4.677   7.995
24018WAT      O72295   6.337   5.108   3.820
24018WAT     H172296   6.331   5.084   3.917
24018WAT     H272297   6.291   5.038   3.766
24019WAT      O72298   6.763   5.396   0.897
24019WAT     H172299   6.792   5.347   0.815
24019WAT     H272300   6.757   5.331   0.973
24020WAT      O72301   4.758   1.589   6.363
24020WAT     H172302   4.800   1.676   6.339
24020WAT     H272303   4.721   1.593   6.456
24021WAT      O72304   3.217   0.054   0.022
24021WAT     H172305   3.169   0.118   0.082
24021WAT     H272306   3.282   0.000   0.076
24022WAT      O72307   4.227   9.575   4.270
24022WAT     H172308   4.209   9.640   4.196
24022WAT     H272309   4.177   9.490   4.252
24023WAT      O72310   1.121   0.330   4.892
24023WAT     H172311   1.208   0.281   4.889
24023WAT     H272312   1.053   0.274   4.937
24024WAT      O72313   0.539   9.448   7.070
24024WAT     H172314   0.611   9.508   7.033
24024WAT     H272315   0.461   9.448   7.008
24025WAT      O72316   1.702   0.657   7.798
24025WAT     H172317   1.643   0.736   7.817
24025WAT     H272318   1.765   0.645   7.874
24026WAT      O72319   9.328   6.649   8.751
24026WAT     H172320   9.413   6.660   8.802
24026WAT     H272321   9.282   6.565   8.781
24027WAT      O72322   1.272   8.817   8.734
24027WAT     H172323   1.345   8.821   8.803
24027WAT     H272324   1.197   8.876   8.762
24028WAT      O72325   2.769   3.912   5.764
24028WAT     H172326   2.736   3.863   5.683
24028WAT     H272327   2.833   3.854   5.814
24029WAT      O72328   3.482   0.168   0.565
24029WAT     H172329   3.470   0.264   0.591
24029WAT     H272330   3.392   0.127   0.548
24030WAT      O72331   7.042   2.018   6.709
24030WAT     H172332   7.006   2.111   6.694
24030WAT     H272333   6.978   1.967   6.766
24031WAT      O72334   0.448   4.963   7.221
24031WAT     H172335   0.420   5.022   7.145
24031WAT     H272336   0.384   4.888   7.231
24032WAT      O72337   9.099   2.150   1.822
24032WAT     H172338   9.130   2.073   1.877
24032WAT     H272339   9.061   2.221   1.882
24033WAT      O72340   1.557   9.487   9.239
24033WAT     H172341   1.572   9.405   9.295
24033WAT     H272342   1.553   9.568   9.298
24034WAT      O72343   3.029   4.465   4.544
24034WAT     H172344   3.084   4.462   4.460
24034WAT     H272345   2.983   4.554   4.550
24035WAT      O72346   8.516   1.675   2.261
24035WAT     H172347   8.451   1.745   2.289
24035WAT     H272348   8.597   1.679   2.319
24036WAT      O72349   3.603   2.047   7.993
24036WAT     H172350   3.701   2.061   8.008
24036WAT     H272351   3.586   1.951   7.973
24037WAT      O72352   1.203   9.844   5.828
24037WAT     H172353   1.234   9.749   5.815
24037WAT     H272354   1.230   9.899   5.749
24038WAT      O72355   8.890   6.372   4.182
24038WAT     H172356   8.963   6.439   4.197
24038WAT     H272357   8.891   6.342   4.086
24039WAT      O72358   0.693   0.385   0.278
24039WAT     H172359   0.700   0.382   0.178
24039WAT     H272360   0.677   0.479   0.307
24040WAT      O72361   1.124   9.360   5.886
24040WAT     H172362   1.034   9.334   5.849
24040WAT     H272363   1.174   9.278   5.913
24041WAT      O72364   8.276   5.129   1.035
24041WAT     H172365   8.261   5.222   0.999
24041WAT     H272366   8.193   5.075   1.021
24042WAT      O72367   0.226   5.758   8.140
24042WAT     H172368   0.155   5.773   8.208
24042WAT     H272369   0.277   5.675   8.162
24043WAT      O72370   8.756   6.591   7.083
24043WAT     H172371   8.814   6.550   7.154
24043WAT     H272372   8.687   6.525   7.055
24044WAT      O72373   7.724   2.265   3.513
24044WAT     H172374   7.745   2.292   3.419
24044WAT     H272375   7.650   2.198   3.512
24045WAT      O72376   5.601   8.803   6.293
24045WAT     H172377   5.554   8.835   6.211
24045WAT     H272378   5.554   8.836   6.374
24046WAT      O72379   5.850   4.594   7.455
24046WAT     H172380   5.935   4.564   7.498
24046WAT     H272381   5.868   4.620   7.360
24047WAT      O72382   8.434   0.433   5.828
24047WAT     H172383   8.356   0.372   5.844
24047WAT     H272384   8.403   0.513   5.775
24048WAT      O72385   4.735   4.560   0.802
24048WAT     H172386   4.776   4.641   0.761
24048WAT     H272387   4.647   4.541   0.759
24049WAT      O72388   1.650   8.142   5.424
24049WAT     H172389   1.712   8.109   5.353
24049WAT     H272390   1.653   8.242   5.428
24050WAT      O72391   6.225   5.767   9.870
24050WAT     H172392   6.252   5.710   9.948
24050WAT     H272393   6.235   5.715   9.786
24051WAT      O72394   1.717   3.917   2.056
24051WAT     H172395   1.811   3.917   2.090
24051WAT     H272396   1.687   4.012   2.042
24052WAT      O72397   4.178   7.805   6.136
24052WAT     H172398   4.225   7.729   6.181
24052WAT     H272399   4.202   7.891   6.182
24053WAT      O72400   9.452   8.440   8.327
24053WAT     H172401   9.535   8.408   8.281
24053WAT     H272402   9.377   8.378   8.306
24054WAT      O72403   0.643   1.621   6.282
24054WAT     H172404   0.663   1.705   6.332
24054WAT     H272405   0.545   1.615   6.263
24055WAT      O72406   0.418   4.392   3.149
24055WAT     H172407   0.398   4.449   3.228
24055WAT     H272408   0.333   4.357   3.110
24056WAT      O72409   7.754   0.973   2.494
24056WAT     H172410   7.676   0.924   2.456
24056WAT     H272411   7.787   1.040   2.428
24057WAT      O72412   2.143   9.400   4.779
24057WAT     H172413   2.063   9.380   4.723
24057WAT     H272414   2.129   9.485   4.829
24058WAT      O72415   2.161   4.184   5.488
24058WAT     H172416   2.093   4.244   5.444
24058WAT     H272417   2.177   4.104   5.430
24059WAT      O72418   2.502   0.971   1.977
24059WAT     H172419   2.475   0.874   1.978
24059WAT     H272420   2.508   1.004   2.072
24060WAT      O72421   0.808   1.527   2.005
24060WAT     H172422   0.858   1.610   2.030
24060WAT     H272423   0.763   1.540   1.917
24061WAT      O72424   8.452   9.281   6.883
24061WAT     H172425   8.452   9.320   6.791
24061WAT     H272426   8.535   9.227   6.897
24062WAT      O72427   0.918   6.738   1.210
24062WAT     H172428   0.941   6.817   1.268
24062WAT     H272429   0.947   6.654   1.256
24063WAT      O72430   9.566   4.507   7.661
24063WAT     H172431   9.598   4.582   7.719
24063WAT     H272432   9.512   4.543   7.586
24064WAT      O72433   9.619   6.034   3.074
24064WAT     H172434   9.635   6.100   3.147
24064WAT     H272435   9.578   5.951   3.111
24065WAT      O72436   3.434   5.075   0.136
24065WAT     H172437   3.405   4.980   0.122
24065WAT     H272438   3.500   5.079   0.211
24066WAT      O72439   1.400   2.675   7.571
24066WAT     H172440   1.434   2.721   7.489
24066WAT     H272441   1.311   2.712   7.596
24067WAT      O72442   8.548   6.031   0.226
24067WAT     H172443   8.589   5.960   0.283
24067WAT     H272444   8.474   5.993   0.171
24068WAT      O72445   3.999   9.408   8.384
24068WAT     H172446   3.937   9.439   8.312
24068WAT     H272447   3.969   9.319   8.418
24069WAT      O72448   1.305   5.300   5.546
24069WAT     H172449   1.272   5.261   5.460
24069WAT     H272450   1.290   5.398   5.546
24070WAT      O72451   5.032   1.899   3.134
24070WAT     H172452   5.084   1.841   3.196
24070WAT     H272453   4.981   1.967   3.187
24071WAT      O72454   9.766   8.844   8.082
24071WAT     H172455   9.866   8.835   8.077
24071WAT     H272456   9.743   8.916   8.147
24072WAT      O72457   6.003   7.046   3.894
24072WAT     H172458   5.909   7.022   3.867
24072WAT     H272459   6.002   7.135   3.940
24073WAT      O72460   4.990   5.287   4.829
24073WAT     H172461   5.045   5.207   4.853
24073WAT     H272462   5.016   5.364   4.887
24074WAT      O72463   9.601   3.194   1.705
24074WAT     H172464   9.503   3.174   1.712
24074WAT     H272465   9.640   3.145   1.627
24075WAT      O72466   0.243   8.645   7.881
24075WAT     H172467   0.257   8.703   7.801
24075WAT     H272468   0.146   8.639   7.903
24076WAT      O72469   5.888   7.741   7.034
24076WAT     H172470   5.798   7.778   7.058
24076WAT     H272471   5.886   7.641   7.037
24077WAT      O72472   7.207   6.467   2.797
24077WAT     H172473   7.137   6.396   2.794
24077WAT     H272474   7.163   6.557   2.800
24078WAT      O72475   8.383   8.032   9.828
24078WAT     H172476   8.418   8.006   9.738
24078WAT     H272477   8.449   8.090   9.874
24079WAT      O72478   2.244   7.992   0.275
24079WAT     H172479   2.269   7.902   0.310
24079WAT     H272480   2.324   8.033   0.230
24080WAT      O72481   1.292   7.547   1.181
24080WAT     H172482   1.362   7.614   1.154
24080WAT     H272483   1.220   7.594   1.232
24081WAT      O72484   1.983   1.626   2.660
24081WAT     H172485   2.081   1.625   2.675
24081WAT     H272486   1.955   1.716   2.625
24082WAT      O72487   8.593   3.398   6.023
24082WAT     H172488   8.612   3.350   5.937
24082WAT     H272489   8.544   3.336   6.085
24083WAT      O72490   6.044   8.869   2.379
24083WAT     H172491   6.072   8.858   2.475
24083WAT     H272492   6.126   8.875   2.322
24084WAT      O72493   8.422   2.859   4.339
24084WAT     H172494   8.480   2.843   4.260
24084WAT     H272495   8.387   2.953   4.336
24085WAT      O72496   6.797   4.571   8.876
24085WAT     H172497   6.881   4.535   8.915
24085WAT     H272498   6.737   4.494   8.851
24086WAT      O72499   3.586   7.026   4.641
24086WAT     H172500   3.570   6.939   4.593
24086WAT     H272501   3.501   7.078   4.643
24087WAT      O72502   1.832   2.977   1.603
24087WAT     H172503   1.881   2.925   1.533
24087WAT     H272504   1.878   2.965   1.691
24088WAT      O72505   7.922   0.331   6.058
24088WAT     H172506   7.878   0.248   6.025
24088WAT     H272507   7.893   0.409   6.002
24089WAT      O72508   4.702   6.649   1.414
24089WAT     H172509   4.698   6.549   1.409
24089WAT     H272510   4.758   6.676   1.492
24090WAT      O72511   2.547   3.659   0.782
24090WAT     H172512   2.540   3.754   0.752
24090WAT     H272513   2.578   3.602   0.706
24091WAT      O72514   9.642   7.583   9.409
24091WAT     H172515   9.552   7.550   9.440
24091WAT     H272516   9.629   7.650   9.336
24092WAT      O72517   2.527   1.133   5.017
24092WAT     H172518   2.472   1.132   5.100
24092WAT     H272519   2.586   1.052   5.015
24093WAT      O72520   1.947   2.918   2.811
24093WAT     H172521   1.856   2.880   2.827
24093WAT     H272522   1.942   2.987   2.739
24094WAT      O72523   1.058   5.503   1.104
24094WAT     H172524   1.006   5.417   1.108
24094WAT     H272525   0.999   5.579   1.131
24095WAT      O72526   9.146   0.680   0.371
24095WAT     H172527   9.159   0.582   0.362
24095WAT     H272528   9.092   0.715   0.294
24096WAT      O72529   4.583   3.256   6.075
24096WAT     H172530   4.558   3.239   6.171
24096WAT     H272531   4.499   3.266   6.021
24097WAT      O72532   1.865   0.757   7.996
24097WAT     H172533   1.805   0.762   8.075
24097WAT     H272534   1.829   0.814   7.922
24098WAT      O72535   6.010   6.432   4.251
24098WAT     H172536   5.965   6.420   4.163
24098WAT     H272537   6.095   6.484   4.239
24099WAT      O72538   5.560   4.992   7.769
24099WAT     H172539   5.523   4.905   7.800
24099WAT     H272540   5.554   4.997   7.669
24100WAT      O72541   1.821   3.387   7.892
24100WAT     H172542   1.823   3.316   7.963
24100WAT     H272543   1.729   3.391   7.852
24101WAT      O72544   8.523   2.983   4.002
24101WAT     H172545   8.470   3.019   3.926
24101WAT     H272546   8.600   3.044   4.021
24102WAT      O72547   7.891   3.871   2.410
24102WAT     H172548   7.986   3.900   2.419
24102WAT     H272549   7.848   3.920   2.333
24103WAT      O72550   4.361   5.110   5.881
24103WAT     H172551   4.262   5.099   5.893
24103WAT     H272552   4.408   5.031   5.919
24104WAT      O72553   6.130   1.537   4.839
24104WAT     H172554   6.221   1.524   4.879
24104WAT     H272555   6.139   1.590   4.754
24105WAT      O72556   6.888   9.418   8.266
24105WAT     H172557   6.974   9.419   8.215
24105WAT     H272558   6.898   9.360   8.347
24106WAT      O72559   8.327   7.698   5.706
24106WAT     H172560   8.367   7.635   5.773
24106WAT     H272561   8.376   7.785   5.708
24107WAT      O72562   8.513   6.002   6.417
24107WAT     H172563   8.421   6.039   6.401
24107WAT     H272564   8.565   6.007   6.332
24108WAT      O72565   1.789   2.814   7.091
24108WAT     H172566   1.763   2.861   7.175
24108WAT     H272567   1.807   2.718   7.110
24109WAT      O72568   2.783   6.715   3.524
24109WAT     H172569   2.861   6.653   3.533
24109WAT     H272570   2.720   6.681   3.455
24110WAT      O72571   5.967   9.653   6.244
24110WAT     H172572   5.938   9.584   6.178
24110WAT     H272573   5.980   9.740   6.197
24111WAT      O72574   0.004   0.154   1.619
24111WAT     H172575   0.013   0.143   1.718
24111WAT     H272576   0.095   0.155   1.577
24112WAT      O72577   3.016   8.154   5.194
24112WAT     H172578   3.007   8.155   5.094
24112WAT     H272579   2.929   8.181   5.235
24113WAT      O72580   3.647   7.290   5.348
24113WAT     H172581   3.562   7.255   5.310
24113WAT     H272582   3.650   7.271   5.446
24114WAT      O72583   8.867   1.271   7.370
24114WAT     H172584   8.943   1.274   7.305
24114WAT     H272585   8.786   1.234   7.326
24115WAT      O72586   4.397   8.860   2.424
24115WAT     H172587   4.430   8.923   2.495
24115WAT     H272588   4.356   8.780   2.468
24116WAT      O72589   3.817   8.814   4.615
24116WAT     H172590   3.817   8.714   4.618
24116WAT     H272591   3.822   8.844   4.520
24117WAT      O72592   2.358   3.937   1.640
24117WAT     H172593   2.285   3.901   1.581
24117WAT     H272594   2.371   4.034   1.619
24118WAT      O72595   3.309   1.323   2.581
24118WAT     H172596   3.287   1.370   2.496
24118WAT     H272597   3.408   1.318   2.592
24119WAT      O72598   5.968   1.530   2.916
24119WAT     H172599   5.872   1.526   2.946
24119WAT     H272600   6.000   1.625   2.921
24120WAT      O72601   1.857   6.705   3.259
24120WAT     H172602   1.789   6.777   3.248
24120WAT     H272603   1.886   6.671   3.170
24121WAT      O72604   7.226   1.401   9.673
24121WAT     H172605   7.145   1.360   9.715
24121WAT     H272606   7.198   1.460   9.598
24122WAT      O72607   0.315   1.497   8.176
24122WAT     H172608   0.334   1.499   8.275
24122WAT     H272609   0.218   1.515   8.160
24123WAT      O72610   7.873   4.224   2.626
24123WAT     H172611   7.924   4.139   2.636
24123WAT     H272612   7.853   4.262   2.716
24124WAT      O72613   8.848   6.484   1.078
24124WAT     H172614   8.827   6.445   0.989
24124WAT     H272615   8.918   6.555   1.068
24125WAT      O72616   4.172   6.152   5.076
24125WAT     H172617   4.232   6.184   5.150
24125WAT     H272618   4.118   6.228   5.041
24126WAT      O72619   7.699   5.943   4.219
24126WAT     H172620   7.671   5.956   4.124
24126WAT     H272621   7.619   5.953   4.279
24127WAT      O72622   4.124   0.445   4.507
24127WAT     H172623   4.119   0.481   4.600
24127WAT     H272624   4.220   0.438   4.480
24128WAT      O72625   7.977   4.800   0.273
24128WAT     H172626   7.915   4.833   0.345
24128WAT     H272627   8.050   4.866   0.259
24129WAT      O72628   4.199   5.571   5.008
24129WAT     H172629   4.192   5.552   4.910
24129WAT     H272630   4.108   5.573   5.048
24130WAT      O72631   2.505   2.601   1.789
24130WAT     H172632   2.414   2.634   1.764
24130WAT     H272633   2.569   2.622   1.716
24131WAT      O72634   3.973   6.296   8.790
24131WAT     H172635   4.050   6.236   8.810
24131WAT     H272636   3.984   6.335   8.698
24132WAT      O72637   4.044   3.770   1.546
24132WAT     H172638   4.001   3.844   1.597
24132WAT     H272639   4.143   3.787   1.539
24133WAT      O72640   6.065   9.345   6.519
24133WAT     H172641   6.054   9.336   6.618
24133WAT     H272642   6.115   9.429   6.498
24134WAT      O72643   2.640   3.789   5.571
24134WAT     H172644   2.547   3.751   5.577
24134WAT     H272645   2.668   3.793   5.475
24135WAT      O72646   8.457   2.942   7.629
24135WAT     H172647   8.371   2.929   7.680
24135WAT     H272648   8.534   2.917   7.687
24136WAT      O72649   1.932   5.942   8.700
24136WAT     H172650   1.907   5.976   8.791
24136WAT     H272651   1.903   5.847   8.692
24137WAT      O72652   3.633   7.850   2.939
24137WAT     H172653   3.554   7.911   2.941
24137WAT     H272654   3.604   7.756   2.956
24138WAT      O72655   2.064   3.311   1.814
24138WAT     H172656   2.012   3.333   1.896
24138WAT     H272657   2.007   3.258   1.751
24139WAT      O72658   2.432   3.707   6.267
24139WAT     H172659   2.526   3.697   6.302
24139WAT     H272660   2.433   3.704   6.167
24140WAT      O72661   7.106   0.409   2.387
24140WAT     H172662   7.058   0.481   2.335
24140WAT     H272663   7.142   0.341   2.324
24141WAT      O72664   4.711   7.190   8.595
24141WAT     H172665   4.661   7.275   8.610
24141WAT     H272666   4.750   7.190   8.503
24142WAT      O72667   2.991   3.178   3.721
24142WAT     H172668   2.935   3.106   3.680
24142WAT     H272669   3.033   3.144   3.805
24143WAT      O72670   4.528   3.213   5.022
24143WAT     H172671   4.435   3.236   5.050
24143WAT     H272672   4.582   3.297   5.015
24144WAT      O72673   8.351   6.947   7.857
24144WAT     H172674   8.303   6.902   7.781
24144WAT     H272675   8.380   7.038   7.828
24145WAT      O72676   5.249   4.912   9.730
24145WAT     H172677   5.309   4.979   9.685
24145WAT     H272678   5.277   4.820   9.704
24146WAT      O72679   1.708   9.803   7.868
24146WAT     H172680   1.726   9.715   7.910
24146WAT     H272681   1.780   9.868   7.892
24147WAT      O72682   4.093   8.233   5.475
24147WAT     H172683   4.052   8.320   5.450
24147WAT     H272684   4.166   8.248   5.541
24148WAT      O72685   6.046   3.232   7.974
24148WAT     H172686   6.012   3.168   8.042
24148WAT     H272687   6.061   3.322   8.016
24149WAT      O72688   4.692   0.096   0.542
24149WAT     H172689   4.749   0.082   0.623
24149WAT     H272690   4.596   0.103   0.569
24150WAT      O72691   5.942   1.751   3.270
24150WAT     H172692   5.916   1.739   3.174
24150WAT     H272693   5.868   1.797   3.319
24151WAT      O72694   1.995   2.021   3.649
24151WAT     H172695   1.959   1.945   3.596
24151WAT     H272696   2.092   2.035   3.628
24152WAT      O72697   2.286   6.068   1.679
24152WAT     H172698   2.253   6.077   1.585
24152WAT     H272699   2.256   6.146   1.733
24153WAT      O72700   3.487   7.459   0.172
24153WAT     H172701   3.388   7.469   0.163
24153WAT     H272702   3.507   7.379   0.229
24154WAT      O72703   5.477   8.183   2.172
24154WAT     H172704   5.481   8.243   2.252
24154WAT     H272705   5.419   8.225   2.102
24155WAT      O72706   2.474   1.067   3.613
24155WAT     H172707   2.388   1.092   3.570
24155WAT     H272708   2.532   1.019   3.547
24156WAT      O72709   7.512   4.375   2.484
24156WAT     H172710   7.505   4.390   2.582
24156WAT     H272711   7.548   4.284   2.466
24157WAT      O72712   3.850   2.654   8.528
24157WAT     H172713   3.754   2.634   8.513
24157WAT     H272714   3.865   2.753   8.524
24158WAT      O72715   5.249   1.080   7.228
24158WAT     H172716   5.181   1.040   7.167
24158WAT     H272717   5.206   1.149   7.286
24159WAT      O72718   5.190   1.193   6.330
24159WAT     H172719   5.133   1.111   6.325
24159WAT     H272720   5.135   1.273   6.305
24160WAT      O72721   7.813   0.204   0.747
24160WAT     H172722   7.847   0.216   0.840
24160WAT     H272723   7.724   0.250   0.738
24161WAT      O72724   7.283   2.185   9.032
24161WAT     H172725   7.204   2.197   8.973
24161WAT     H272726   7.362   2.159   8.978
24162WAT      O72727   5.117   2.607   7.241
24162WAT     H172728   5.083   2.695   7.274
24162WAT     H272729   5.140   2.614   7.144
24163WAT      O72730   8.609   8.357   2.321
24163WAT     H172731   8.568   8.284   2.376
24163WAT     H272732   8.558   8.442   2.335
24164WAT      O72733   6.812   2.155   9.429
24164WAT     H172734   6.830   2.126   9.523
24164WAT     H272735   6.892   2.134   9.372
24165WAT      O72736   9.659   5.288   1.372
24165WAT     H172737   9.758   5.301   1.376
24165WAT     H272738   9.620   5.357   1.311
24166WAT      O72739   1.152   7.719   4.371
24166WAT     H172740   1.235   7.699   4.318
24166WAT     H272741   1.158   7.810   4.411
24167WAT      O72742   9.068   8.607   3.149
24167WAT     H172743   9.011   8.562   3.218
24167WAT     H272744   9.010   8.658   3.085
24168WAT      O72745   2.795   1.183   5.164
24168WAT     H172746   2.718   1.245   5.178
24168WAT     H272747   2.772   1.092   5.199
24169WAT      O72748   1.420   2.371   0.477
24169WAT     H172749   1.359   2.355   0.399
24169WAT     H272750   1.489   2.439   0.451
24170WAT      O72751   0.528   1.204   6.848
24170WAT     H172752   0.537   1.290   6.898
24170WAT     H272753   0.611   1.188   6.794
24171WAT      O72754   3.161   9.847   5.288
24171WAT     H172755   3.152   9.852   5.388
24171WAT     H272756   3.161   9.751   5.260
24172WAT      O72757   5.064   6.887   2.901
24172WAT     H172758   4.995   6.949   2.863
24172WAT     H272759   5.077   6.810   2.839
24173WAT      O72760   8.832   5.732   4.900
24173WAT     H172761   8.794   5.777   4.981
24173WAT     H272762   8.857   5.802   4.832
24174WAT      O72763   0.509   9.679   7.711
24174WAT     H172764   0.596   9.672   7.662
24174WAT     H272765   0.515   9.750   7.780
24175WAT      O72766   6.364   0.944   4.539
24175WAT     H172767   6.400   1.027   4.583
24175WAT     H272768   6.306   0.895   4.603
24176WAT      O72769   8.727   3.159   4.111
24176WAT     H172770   8.807   3.150   4.171
24176WAT     H272771   8.644   3.168   4.166
24177WAT      O72772   7.994   2.197   9.347
24177WAT     H172773   7.999   2.148   9.434
24177WAT     H272774   7.898   2.200   9.316
24178WAT      O72775   2.862   9.628   4.022
24178WAT     H172776   2.849   9.552   4.085
24178WAT     H272777   2.856   9.715   4.071
24179WAT      O72778   4.663   7.056   6.842
24179WAT     H172779   4.698   7.040   6.750
24179WAT     H272780   4.631   6.970   6.881
24180WAT      O72781   0.300   0.701   6.295
24180WAT     H172782   0.212   0.746   6.310
24180WAT     H272783   0.336   0.728   6.205
24181WAT      O72784   1.490   7.098   6.168
24181WAT     H172785   1.524   7.008   6.141
24181WAT     H272786   1.390   7.096   6.171
24182WAT      O72787   7.824   8.507   6.660
24182WAT     H172788   7.838   8.518   6.759
24182WAT     H272789   7.726   8.510   6.640
24183WAT      O72790   6.518   9.708   4.484
24183WAT     H172791   6.534   9.724   4.387
24183WAT     H272792   6.464   9.624   4.495
24184WAT      O72793   1.378   2.707   5.531
24184WAT     H172794   1.324   2.785   5.563
24184WAT     H272795   1.364   2.630   5.593
24185WAT      O72796   2.524   7.605   2.723
24185WAT     H172797   2.437   7.595   2.674
24185WAT     H272798   2.522   7.689   2.777
24186WAT      O72799   7.098   5.040   5.738
24186WAT     H172800   7.039   5.119   5.727
24186WAT     H272801   7.161   5.033   5.660
24187WAT      O72802   8.078   0.703   3.005
24187WAT     H172803   7.994   0.736   2.963
24187WAT     H272804   8.134   0.780   3.036
24188WAT      O72805   6.955   0.479   3.162
24188WAT     H172806   6.939   0.435   3.250
24188WAT     H272807   6.897   0.560   3.154
24189WAT      O72808   7.479   7.906   1.191
24189WAT     H172809   7.477   8.000   1.226
24189WAT     H272810   7.493   7.842   1.267
24190WAT      O72811   4.611   7.401   1.146
24190WAT     H172812   4.632   7.333   1.075
24190WAT     H272813   4.685   7.402   1.213
24191WAT      O72814   9.501   5.148   7.456
24191WAT     H172815   9.594   5.183   7.467
24191WAT     H272816   9.444   5.183   7.530
24192WAT      O72817   0.313   6.843   7.328
24192WAT     H172818   0.358   6.895   7.401
24192WAT     H272819   0.218   6.871   7.320
24193WAT      O72820   2.937   7.331   9.129
24193WAT     H172821   2.976   7.369   9.212
24193WAT     H272822   3.010   7.320   9.060
24194WAT      O72823   5.359   7.307   5.698
24194WAT     H172824   5.261   7.301   5.679
24194WAT     H272825   5.399   7.215   5.691
24195WAT      O72826   3.304   5.093   2.735
24195WAT     H172827   3.386   5.064   2.686
24195WAT     H272828   3.232   5.024   2.724
24196WAT      O72829   6.319   1.523   8.678
24196WAT     H172830   6.357   1.563   8.761
24196WAT     H272831   6.228   1.561   8.662
24197WAT      O72832   7.904   0.848   5.753
24197WAT     H172833   7.902   0.750   5.772
24197WAT     H272834   7.922   0.898   5.837
24198WAT      O72835   3.266   2.202   1.403
24198WAT     H172836   3.328   2.196   1.325
24198WAT     H272837   3.305   2.263   1.473
24199WAT      O72838   0.211   7.006   7.998
24199WAT     H172839   0.188   6.922   7.948
24199WAT     H272840   0.223   6.985   8.095
24200WAT      O72841   6.823   9.293   6.554
24200WAT     H172842   6.816   9.226   6.480
24200WAT     H272843   6.763   9.266   6.629
24201WAT      O72844   7.861   7.954   0.328
24201WAT     H172845   7.910   7.999   0.252
24201WAT     H272846   7.789   7.896   0.291
24202WAT      O72847   8.391   2.487   1.643
24202WAT     H172848   8.328   2.562   1.666
24202WAT     H272849   8.441   2.461   1.726
24203WAT      O72850   3.757   8.390   0.160
24203WAT     H172851   3.690   8.316   0.161
24203WAT     H272852   3.765   8.427   0.068
24204WAT      O72853   2.526   0.701   1.180
24204WAT     H172854   2.523   0.622   1.241
24204WAT     H272855   2.454   0.691   1.110
24205WAT      O72856   4.483   0.722   9.695
24205WAT     H172857   4.486   0.758   9.602
24205WAT     H272858   4.415   0.771   9.748
24206WAT      O72859   0.799   8.543   5.239
24206WAT     H172860   0.823   8.451   5.209
24206WAT     H272861   0.700   8.550   5.253
24207WAT      O72862   4.367   7.851   8.439
24207WAT     H172863   4.312   7.922   8.483
24207WAT     H272864   4.385   7.877   8.344
24208WAT      O72865   8.840   8.854   9.073
24208WAT     H172866   8.769   8.789   9.045
24208WAT     H272867   8.799   8.924   9.131
24209WAT      O72868   2.027   3.904   7.964
24209WAT     H172869   2.063   3.856   7.884
24209WAT     H272870   1.961   3.974   7.935
24210WAT      O72871   2.505   1.079   7.966
24210WAT     H172872   2.472   0.988   7.992
24210WAT     H272873   2.478   1.146   8.035
24211WAT      O72874   7.311   9.084   8.880
24211WAT     H172875   7.282   9.037   8.963
24211WAT     H272876   7.243   9.153   8.856
24212WAT      O72877   8.787   7.895   9.783
24212WAT     H172878   8.803   7.927   9.689
24212WAT     H272879   8.689   7.889   9.799
24213WAT      O72880   8.485   5.211   8.199
24213WAT     H172881   8.405   5.254   8.156
24213WAT     H272882   8.546   5.282   8.234
24214WAT      O72883   2.303   0.620   3.015
24214WAT     H172884   2.256   0.551   2.960
24214WAT     H272885   2.241   0.696   3.034
24215WAT      O72886   0.728   7.117   5.713
24215WAT     H172887   0.635   7.108   5.678
24215WAT     H272888   0.732   7.192   5.778
24216WAT      O72889   8.183   2.256   1.337
24216WAT     H172890   8.199   2.157   1.342
24216WAT     H272891   8.164   2.291   1.429
24217WAT      O72892   9.484   1.395   5.328
24217WAT     H172893   9.440   1.482   5.305
24217WAT     H272894   9.420   1.320   5.311
24218WAT      O72895   5.233   9.798   9.657
24218WAT     H172896   5.151   9.827   9.606
24218WAT     H272897   5.297   9.874   9.661
24219WAT      O72898   2.615   6.611   8.126
24219WAT     H172899   2.704   6.591   8.084
24219WAT     H272900   2.607   6.563   8.213
24220WAT      O72901   9.627   1.089   8.980
24220WAT     H172902   9.545   1.132   8.943
24220WAT     H272903   9.633   0.995   8.947
24221WAT      O72904   5.756   4.141   8.607
24221WAT     H172905   5.674   4.197   8.619
24221WAT     H272906   5.794   4.116   8.697
24222WAT      O72907   7.358   7.117   4.751
24222WAT     H172908   7.418   7.174   4.695
24222WAT     H272909   7.263   7.132   4.722
24223WAT      O72910   7.141   2.792   4.765
24223WAT     H172911   7.049   2.831   4.775
24223WAT     H272912   7.133   2.695   4.742
24224WAT      O72913   0.527   8.261   1.418
24224WAT     H172914   0.479   8.205   1.486
24224WAT     H272915   0.626   8.254   1.433
24225WAT      O72916   8.236   3.327   2.939
24225WAT     H172917   8.285   3.372   2.864
24225WAT     H272918   8.140   3.315   2.913
24226WAT      O72919   7.784   9.344   7.388
24226WAT     H172920   7.834   9.331   7.303
24226WAT     H272921   7.844   9.391   7.454
24227WAT      O72922   9.251   2.412   9.050
24227WAT     H172923   9.217   2.384   8.960
24227WAT     H272924   9.214   2.350   9.120
24228WAT      O72925   7.542   7.879   3.294
24228WAT     H172926   7.459   7.859   3.242
24228WAT     H272927   7.620   7.831   3.254
24229WAT      O72928   2.789   3.925   0.830
24229WAT     H172929   2.706   3.931   0.774
24229WAT     H272930   2.765   3.931   0.926
24230WAT      O72931   2.253   1.951   5.922
24230WAT     H172932   2.204   1.921   5.841
24230WAT     H272933   2.219   2.041   5.951
24231WAT      O72934   2.008   2.404   6.095
24231WAT     H172935   1.916   2.371   6.071
24231WAT     H272936   2.004   2.502   6.116
24232WAT      O72937   8.576   0.613   3.102
24232WAT     H172938   8.537   0.602   3.011
24232WAT     H272939   8.560   0.531   3.157
24233WAT      O72940   8.722   0.247   0.497
24233WAT     H172941   8.707   0.291   0.586
24233WAT     H272942   8.640   0.259   0.440
24234WAT      O72943   1.029   0.173   0.095
24234WAT     H172944   0.950   0.111   0.098
24234WAT     H272945   1.059   0.193   0.188
24235WAT      O72946   6.940   3.688   6.954
24235WAT     H172947   7.000   3.608   6.961
24235WAT     H272948   6.847   3.663   6.981
24236WAT      O72949   1.919   8.995   2.156
24236WAT     H172950   1.821   8.999   2.177
24236WAT     H272951   1.937   9.045   2.071
24237WAT      O72952   5.374   7.025   2.650
24237WAT     H172953   5.408   7.002   2.742
24237WAT     H272954   5.337   6.942   2.607
24238WAT      O72955   0.356   0.838   2.352
24238WAT     H172956   0.290   0.791   2.410
24238WAT     H272957   0.393   0.917   2.400
24239WAT      O72958   7.705   1.422   5.228
24239WAT     H172959   7.792   1.375   5.217
24239WAT     H272960   7.720   1.517   5.254
24240WAT      O72961   9.321   4.688   0.325
24240WAT     H172962   9.407   4.636   0.326
24240WAT     H272963   9.256   4.645   0.386
24241WAT      O72964   2.502   5.385   6.669
24241WAT     H172965   2.484   5.343   6.581
24241WAT     H272966   2.492   5.484   6.662
24242WAT      O72967   0.544   0.259   2.525
24242WAT     H172968   0.467   0.201   2.551
24242WAT     H272969   0.516   0.355   2.528
24243WAT      O72970   7.530   7.739   1.426
24243WAT     H172971   7.584   7.797   1.486
24243WAT     H272972   7.581   7.654   1.408
24244WAT      O72973   6.528   3.692   7.732
24244WAT     H172974   6.571   3.614   7.686
24244WAT     H272975   6.435   3.668   7.759
24245WAT      O72976   3.132   4.053   1.700
24245WAT     H172977   3.166   3.981   1.639
24245WAT     H272978   3.208   4.103   1.739
24246WAT      O72979   9.153   2.564   9.801
24246WAT     H172980   9.188   2.656   9.783
24246WAT     H272981   9.129   2.520   9.714
24247WAT      O72982   6.540   5.318   2.522
24247WAT     H172983   6.638   5.338   2.527
24247WAT     H272984   6.514   5.301   2.427
24248WAT      O72985   6.155   2.310   7.493
24248WAT     H172986   6.135   2.239   7.561
24248WAT     H272987   6.245   2.350   7.512
24249WAT      O72988   8.872   6.137   4.802
24249WAT     H172989   8.850   6.232   4.780
24249WAT     H272990   8.848   6.119   4.898
24250WAT      O72991   7.414   3.723   8.477
24250WAT     H172992   7.438   3.684   8.565
24250WAT     H272993   7.464   3.676   8.404
24251WAT      O72994   9.187   5.182   2.379
24251WAT     H172995   9.241   5.139   2.306
24251WAT     H272996   9.231   5.267   2.407
24252WAT      O72997   7.841   9.740   1.565
24252WAT     H172998   7.893   9.673   1.618
24252WAT     H272999   7.764   9.694   1.519
24253WAT      O73000   0.183   6.965   3.555
24253WAT     H173001   0.235   7.008   3.481
24253WAT     H273002   0.146   6.877   3.522
24254WAT      O73003   1.287   4.965   0.261
24254WAT     H173004   1.203   4.910   0.253
24254WAT     H273005   1.262   5.061   0.276
24255WAT      O73006   7.971   7.738   7.030
24255WAT     H173007   7.955   7.640   7.039
24255WAT     H273008   8.066   7.759   7.053
24256WAT      O73009   5.636   4.195   1.897
24256WAT     H173010   5.561   4.136   1.869
24256WAT     H273011   5.649   4.189   1.996
24257WAT      O73012   3.028   3.161   5.041
24257WAT     H173013   3.006   3.082   4.984
24257WAT     H273014   3.024   3.136   5.137
24258WAT      O73015   6.119   7.285   9.168
24258WAT     H173016   6.117   7.286   9.068
24258WAT     H273017   6.190   7.348   9.201
24259WAT      O73018   5.832   1.004   8.062
24259WAT     H173019   5.907   1.048   8.015
24259WAT     H273020   5.774   1.073   8.106
24260WAT      O73021   4.457   6.397   6.840
24260WAT     H173022   4.488   6.313   6.796
24260WAT     H273023   4.361   6.387   6.868
24261WAT      O73024   4.528   9.135   0.044
24261WAT     H173025   4.471   9.192  -0.015
24261WAT     H273026   4.596   9.086  -0.011
24262WAT      O73027   1.554   5.930   5.186
24262WAT     H173028   1.575   5.873   5.106
24262WAT     H273029   1.469   5.899   5.228
24263WAT      O73030   9.490   8.342   9.160
24263WAT     H173031   9.473   8.276   9.232
24263WAT     H273032   9.405   8.391   9.139
24264WAT      O73033   2.463   8.725   1.585
24264WAT     H173034   2.406   8.780   1.646
24264WAT     H273035   2.433   8.739   1.490
24265WAT      O73036   0.635   9.068   0.837
24265WAT     H173037   0.712   9.012   0.807
24265WAT     H273038   0.551   9.015   0.833
24266WAT      O73039   6.447   8.456   1.551
24266WAT     H173040   6.448   8.386   1.480
24266WAT     H273041   6.529   8.447   1.608
24267WAT      O73042   0.878   4.446   5.950
24267WAT     H173043   0.788   4.418   5.982
24267WAT     H273044   0.876   4.460   5.851
24268WAT      O73045   0.938   0.775   8.519
24268WAT     H173046   0.908   0.860   8.476
24268WAT     H273047   0.925   0.781   8.618
24269WAT      O73048   5.358   7.422   8.879
24269WAT     H173049   5.296   7.501   8.889
24269WAT     H273050   5.316   7.342   8.923
24270WAT      O73051   2.327   1.521   0.915
24270WAT     H173052   2.353   1.615   0.896
24270WAT     H273053   2.286   1.515   1.006
24271WAT      O73054   7.379   8.265   9.777
24271WAT     H173055   7.315   8.318   9.834
24271WAT     H273056   7.351   8.169   9.775
24272WAT      O73057   2.930   1.138   3.230
24272WAT     H173058   2.906   1.052   3.276
24272WAT     H273059   3.016   1.172   3.267
24273WAT      O73060   2.171   3.899   6.439
24273WAT     H173061   2.105   3.892   6.513
24273WAT     H273062   2.246   3.836   6.455
24274WAT      O73063   6.387   5.604   7.074
24274WAT     H173064   6.387   5.703   7.064
24274WAT     H273065   6.328   5.563   7.005
24275WAT      O73066   6.663   6.094   4.426
24275WAT     H173067   6.573   6.136   4.438
24275WAT     H273068   6.720   6.152   4.368
24276WAT      O73069   4.698   2.057   2.433
24276WAT     H173070   4.628   2.056   2.505
24276WAT     H273071   4.655   2.077   2.345
24277WAT      O73072   2.157   5.361   0.468
24277WAT     H173073   2.181   5.420   0.391
24277WAT     H273074   2.082   5.300   0.441
24278WAT      O73075   2.048   3.118   5.384
24278WAT     H173076   2.031   3.122   5.483
24278WAT     H273077   1.978   3.061   5.341
24279WAT      O73078   2.468   0.746   4.032
24279WAT     H173079   2.385   0.799   4.014
24279WAT     H273080   2.539   0.807   4.066
24280WAT      O73081   9.620   9.335   1.539
24280WAT     H173082   9.608   9.248   1.490
24280WAT     H273083   9.625   9.410   1.474
24281WAT      O73084   9.514   8.715   8.137
24281WAT     H173085   9.574   8.638   8.115
24281WAT     H273086   9.564   8.782   8.191
24282WAT      O73087   2.052   1.542   2.400
24282WAT     H173088   1.990   1.619   2.410
24282WAT     H273089   2.143   1.567   2.434
24283WAT      O73090   4.514   1.711   2.727
24283WAT     H173091   4.518   1.729   2.629
24283WAT     H273092   4.589   1.650   2.753
24284WAT      O73093   8.896   4.368   3.708
24284WAT     H173094   8.937   4.284   3.672
24284WAT     H273095   8.797   4.364   3.699
24285WAT      O73096   5.088   8.887   8.065
24285WAT     H173097   5.083   8.877   8.164
24285WAT     H273098   4.998   8.872   8.024
24286WAT      O73099   5.752   3.740   7.904
24286WAT     H173100   5.713   3.656   7.941
24286WAT     H273101   5.684   3.814   7.908
24287WAT      O73102   5.386   1.894   0.758
24287WAT     H173103   5.431   1.920   0.844
24287WAT     H273104   5.326   1.968   0.729
24288WAT      O73105   5.868   5.652   1.578
24288WAT     H173106   5.912   5.562   1.579
24288WAT     H273107   5.936   5.722   1.552
24289WAT      O73108   2.341   7.797   7.402
24289WAT     H173109   2.283   7.719   7.378
24289WAT     H273110   2.397   7.822   7.324
24290WAT      O73111   9.568   2.194   0.454
24290WAT     H173112   9.643   2.245   0.496
24290WAT     H273113   9.506   2.257   0.407
24291WAT      O73114   4.156   4.525   6.429
24291WAT     H173115   4.119   4.433   6.417
24291WAT     H273116   4.180   4.539   6.525
24292WAT      O73117   4.652   9.779   8.808
24292WAT     H173118   4.593   9.810   8.882
24292WAT     H273119   4.690   9.690   8.830
24293WAT      O73120   8.353   1.009   7.476
24293WAT     H173121   8.395   0.949   7.544
24293WAT     H273122   8.380   1.104   7.494
24294WAT      O73123   4.776   7.864   4.253
24294WAT     H173124   4.693   7.910   4.285
24294WAT     H273125   4.761   7.765   4.254
24295WAT      O73126   1.486   1.823   5.102
24295WAT     H173127   1.442   1.830   5.191
24295WAT     H273128   1.543   1.904   5.087
24296WAT      O73129   0.093   2.519   0.207
24296WAT     H173130   0.091   2.421   0.225
24296WAT     H273131   0.063   2.538   0.114
24297WAT      O73132   5.243   4.456   4.976
24297WAT     H173133   5.325   4.438   5.031
24297WAT     H273134   5.261   4.531   4.913
24298WAT      O73135   0.762   0.189   6.345
24298WAT     H173136   0.796   0.162   6.255
24298WAT     H273137   0.673   0.233   6.336
24299WAT      O73138   6.129   8.581   9.223
24299WAT     H173139   6.087   8.638   9.152
24299WAT     H273140   6.097   8.610   9.313
24300WAT      O73141   3.448   7.953   9.551
24300WAT     H173142   3.368   8.001   9.589
24300WAT     H273143   3.471   7.993   9.463
24301WAT      O73144   8.224   2.951   5.871
24301WAT     H173145   8.219   3.011   5.791
24301WAT     H273146   8.140   2.961   5.925
24302WAT      O73147   3.091   6.302   0.034
24302WAT     H173148   3.033   6.302  -0.047
24302WAT     H273149   3.150   6.383   0.034
24303WAT      O73150   6.119   6.076   5.856
24303WAT     H173151   6.025   6.084   5.823
24303WAT     H273152   6.119   6.049   5.952
24304WAT      O73153   8.875   5.087   8.554
24304WAT     H173154   8.963   5.092   8.601
24304WAT     H273155   8.880   5.140   8.469
24305WAT      O73156   0.243   0.007   6.626
24305WAT     H173157   0.341   0.022   6.613
24305WAT     H273158   0.228  -0.040   6.713
24306WAT      O73159   5.983   3.678   4.482
24306WAT     H173160   5.975   3.627   4.568
24306WAT     H273161   5.910   3.651   4.420
24307WAT      O73162   0.870   0.242   3.406
24307WAT     H173163   0.802   0.313   3.418
24307WAT     H273164   0.958   0.272   3.443
24308WAT      O73165   5.658   2.672   1.507
24308WAT     H173166   5.652   2.590   1.450
24308WAT     H273167   5.668   2.752   1.448
24309WAT      O73168   3.123   5.285   0.748
24309WAT     H173169   3.141   5.205   0.804
24309WAT     H273170   3.203   5.346   0.750
24310WAT      O73171   0.825   2.932   5.993
24310WAT     H173172   0.784   2.931   5.902
24310WAT     H273173   0.889   2.855   6.001
24311WAT      O73174   1.032   5.521   4.879
24311WAT     H173175   0.941   5.478   4.875
24311WAT     H273176   1.058   5.550   4.787
24312WAT      O73177   3.035   1.757   2.488
24312WAT     H173178   2.978   1.811   2.427
24312WAT     H273179   2.998   1.665   2.496
24313WAT      O73180   2.822   9.825   1.798
24313WAT     H173181   2.881   9.814   1.719
24313WAT     H273182   2.739   9.770   1.785
24314WAT      O73183   7.168   1.617   2.669
24314WAT     H173184   7.220   1.533   2.654
24314WAT     H273185   7.077   1.593   2.705
24315WAT      O73186   6.035   6.839   4.051
24315WAT     H173187   6.021   6.923   3.998
24315WAT     H273188   5.982   6.764   4.010
24316WAT      O73189   9.488   7.060   8.109
24316WAT     H173190   9.519   7.087   8.200
24316WAT     H273191   9.565   7.062   8.046
24317WAT      O73192   7.036   3.257   2.294
24317WAT     H173193   7.105   3.320   2.258
24317WAT     H273194   7.004   3.290   2.382
24318WAT      O73195   8.104   0.504   1.437
24318WAT     H173196   8.080   0.601   1.430
24318WAT     H273197   8.054   0.452   1.368
24319WAT      O73198   6.697   1.007   3.161
24319WAT     H173199   6.621   1.073   3.164
24319WAT     H273200   6.689   0.943   3.237
24320WAT      O73201   0.018   2.359   4.892
24320WAT     H173202   0.083   2.289   4.923
24320WAT     H273203  -0.034   2.324   4.814
24321WAT      O73204   5.483   6.343   8.923
24321WAT     H173205   5.411   6.276   8.907
24321WAT     H273206   5.485   6.368   9.020
24322WAT      O73207   1.974   0.238   1.745
24322WAT     H173208   1.988   0.331   1.778
24322WAT     H273209   1.993   0.234   1.647
24323WAT      O73210   9.816   4.147   3.296
24323WAT     H173211   9.898   4.143   3.239
24323WAT     H273212   9.754   4.073   3.270
24324WAT      O73213   0.334   3.673   6.124
24324WAT     H173214   0.261   3.737   6.099
24324WAT     H273215   0.422   3.708   6.090
24325WAT      O73216   6.229   8.152   7.223
24325WAT     H173217   6.272   8.223   7.278
24325WAT     H273218   6.258   8.161   7.128
24326WAT      O73219   1.222   5.220   1.602
24326WAT     H173220   1.201   5.296   1.541
24326WAT     H273221   1.317   5.192   1.589
24327WAT      O73222   7.934   5.455   0.372
24327WAT     H173223   7.971   5.495   0.288
24327WAT     H273224   7.947   5.519   0.448
24328WAT      O73225   8.723   1.063   1.606
24328WAT     H173226   8.707   1.129   1.532
24328WAT     H273227   8.821   1.061   1.627
24329WAT      O73228   4.857   1.683   4.613
24329WAT     H173229   4.801   1.756   4.573
24329WAT     H273230   4.868   1.610   4.545
24330WAT      O73231   5.305   7.040   9.163
24330WAT     H173232   5.356   6.954   9.167
24330WAT     H273233   5.236   7.041   9.236
24331WAT      O73234   6.682   7.960   3.612
24331WAT     H173235   6.733   8.044   3.631
24331WAT     H273236   6.623   7.973   3.533
24332WAT      O73237   3.677   1.275   1.565
24332WAT     H173238   3.768   1.278   1.525
24332WAT     H273239   3.637   1.367   1.565
24333WAT      O73240   9.095   7.319   2.890
24333WAT     H173241   9.109   7.399   2.832
24333WAT     H273242   9.040   7.345   2.969
24334WAT      O73243   7.582   2.686   0.158
24334WAT     H173244   7.628   2.764   0.200
24334WAT     H273245   7.484   2.693   0.174
24335WAT      O73246   7.832   6.002   5.572
24335WAT     H173247   7.826   6.094   5.532
24335WAT     H273248   7.916   5.995   5.626
24336WAT      O73249   8.213   8.036   3.280
24336WAT     H173250   8.231   8.133   3.267
24336WAT     H273251   8.129   8.011   3.232
24337WAT      O73252   7.337   2.417   1.056
24337WAT     H173253   7.409   2.470   1.013
24337WAT     H273254   7.356   2.319   1.044
24338WAT      O73255   6.844   9.418   9.029
24338WAT     H173256   6.878   9.492   8.971
24338WAT     H273257   6.918   9.353   9.047
24339WAT      O73258   7.391   1.150   0.275
24339WAT     H173259   7.379   1.200   0.361
24339WAT     H273260   7.447   1.204   0.213
24340WAT      O73261   0.172   7.040   6.559
24340WAT     H173262   0.111   6.965   6.581
24340WAT     H273263   0.264   7.005   6.541
24341WAT      O73264   1.763   8.852   3.923
24341WAT     H173265   1.732   8.768   3.879
24341WAT     H273266   1.706   8.871   4.003
24342WAT      O73267   0.957   6.787   5.455
24342WAT     H173268   0.901   6.857   5.410
24342WAT     H273269   1.050   6.789   5.418
24343WAT      O73270   4.305   0.532   4.031
24343WAT     H173271   4.316   0.590   3.950
24343WAT     H273272   4.331   0.584   4.113
24344WAT      O73273   8.222   6.220   7.821
24344WAT     H173274   8.214   6.274   7.905
24344WAT     H273275   8.188   6.274   7.744
24345WAT      O73276   5.886   5.099   4.841
24345WAT     H173277   5.835   5.184   4.853
24345WAT     H273278   5.984   5.116   4.852
24346WAT      O73279   1.693   6.075   9.182
24346WAT     H173280   1.671   5.997   9.122
24346WAT     H273281   1.629   6.150   9.164
24347WAT      O73282   5.191   9.020   6.357
24347WAT     H173283   5.201   8.966   6.273
24347WAT     H273284   5.138   8.968   6.424
24348WAT      O73285   1.598   6.676   9.066
24348WAT     H173286   1.688   6.677   9.109
24348WAT     H273287   1.534   6.728   9.123
24349WAT      O73288   7.245   6.299   4.044
24349WAT     H173289   7.159   6.350   4.037
24349WAT     H273290   7.321   6.355   4.012
24350WAT      O73291   8.137   9.165   7.503
24350WAT     H173292   8.232   9.134   7.509
24350WAT     H273293   8.122   9.208   7.414
24351WAT      O73294   6.031   0.541   5.498
24351WAT     H173295   5.953   0.491   5.462
24351WAT     H273296   6.078   0.485   5.566
24352WAT      O73297   2.976   6.513   7.193
24352WAT     H173298   3.028   6.594   7.163
24352WAT     H273299   3.013   6.481   7.281
24353WAT      O73300   6.460   8.170   3.519
24353WAT     H173301   6.529   8.138   3.454
24353WAT     H273302   6.372   8.180   3.472
24354WAT      O73303   8.447   0.856   3.085
24354WAT     H173304   8.488   0.766   3.097
24354WAT     H273305   8.369   0.865   3.147
24355WAT      O73306   1.072   8.664   7.352
24355WAT     H173307   1.154   8.721   7.353
24355WAT     H273308   1.098   8.567   7.353
24356WAT      O73309   2.991   6.150   0.707
24356WAT     H173310   3.004   6.174   0.803
24356WAT     H273311   3.074   6.106   0.672
24357WAT      O73312   7.356   0.241   5.306
24357WAT     H173313   7.295   0.248   5.385
24357WAT     H273314   7.323   0.301   5.233
24358WAT      O73315   7.211   5.574   1.736
24358WAT     H173316   7.187   5.619   1.822
24358WAT     H273317   7.275   5.499   1.754
24359WAT      O73318   0.848   8.282   5.994
24359WAT     H173319   0.847   8.348   5.920
24359WAT     H273320   0.930   8.224   5.987
24360WAT      O73321   9.694   1.824   6.923
24360WAT     H173322   9.595   1.815   6.933
24360WAT     H273323   9.734   1.855   7.009
24361WAT      O73324   5.591   8.152   9.294
24361WAT     H173325   5.637   8.239   9.277
24361WAT     H273326   5.499   8.154   9.255
24362WAT      O73327   3.002   8.768   3.390
24362WAT     H173328   2.986   8.865   3.411
24362WAT     H273329   3.097   8.745   3.409
24363WAT      O73330   2.638   0.616   9.290
24363WAT     H173331   2.608   0.689   9.229
24363WAT     H273332   2.565   0.594   9.355
24364WAT      O73333   7.317   8.383   5.008
24364WAT     H173334   7.293   8.465   4.955
24364WAT     H273335   7.235   8.329   5.025
24365WAT      O73336   0.741   2.075   0.748
24365WAT     H173337   0.651   2.119   0.754
24365WAT     H273338   0.811   2.144   0.732
24366WAT      O73339   7.465   0.727   1.913
24366WAT     H173340   7.494   0.809   1.863
24366WAT     H273341   7.532   0.654   1.900
24367WAT      O73342   0.202   4.116   9.134
24367WAT     H173343   0.145   4.174   9.192
24367WAT     H273344   0.273   4.172   9.090
24368WAT      O73345   7.686   5.774   1.157
24368WAT     H173346   7.730   5.685   1.149
24368WAT     H273347   7.617   5.785   1.085
24369WAT      O73348   4.671   9.833   6.747
24369WAT     H173349   4.655   9.768   6.822
24369WAT     H273350   4.727   9.909   6.780
24370WAT      O73351   3.570   6.590   8.203
24370WAT     H173352   3.545   6.576   8.107
24370WAT     H273353   3.670   6.598   8.209
24371WAT      O73354   5.945   2.902   6.993
24371WAT     H173355   6.035   2.884   7.033
24371WAT     H273356   5.942   2.867   6.900
24372WAT      O73357   6.097   9.267   3.967
24372WAT     H173358   6.137   9.176   3.961
24372WAT     H273359   6.160   9.334   3.928
24373WAT      O73360   4.141   0.651   6.720
24373WAT     H173361   4.152   0.555   6.745
24373WAT     H273362   4.044   0.671   6.708
24374WAT      O73363   1.208   3.820   7.791
24374WAT     H173364   1.176   3.844   7.699
24374WAT     H273365   1.183   3.725   7.811
24375WAT      O73366   6.230   1.620   9.189
24375WAT     H173367   6.192   1.552   9.126
24375WAT     H273368   6.164   1.639   9.262
24376WAT      O73369   5.193   8.165   7.210
24376WAT     H173370   5.205   8.179   7.112
24376WAT     H273371   5.140   8.241   7.248
24377WAT      O73372   5.366   1.428   3.296
24377WAT     H173373   5.387   1.348   3.353
24377WAT     H273374   5.385   1.406   3.200
24378WAT      O73375   7.092   4.719   2.521
24378WAT     H173376   7.149   4.800   2.539
24378WAT     H273377   7.100   4.655   2.597
24379WAT      O73378   3.067   4.091   9.508
24379WAT     H173379   3.140   4.089   9.575
24379WAT     H273380   3.030   4.184   9.501
24380WAT      O73381   6.869   3.644   5.868
24380WAT     H173382   6.876   3.591   5.952
24380WAT     H273383   6.806   3.721   5.881
24381WAT      O73384   5.143   3.197   6.634
24381WAT     H173385   5.199   3.255   6.693
24381WAT     H273386   5.117   3.114   6.684
24382WAT      O73387   0.056   8.780   1.516
24382WAT     H173388   0.144   8.768   1.470
24382WAT     H273389   0.014   8.690   1.532
24383WAT      O73390   3.114   3.394   6.289
24383WAT     H173391   3.205   3.421   6.257
24383WAT     H273392   3.064   3.475   6.320
24384WAT      O73393   4.073   0.874   0.555
24384WAT     H173394   4.119   0.858   0.468
24384WAT     H273395   4.139   0.909   0.621
24385WAT      O73396   4.119   9.652   3.491
24385WAT     H173397   4.102   9.560   3.455
24385WAT     H273398   4.134   9.714   3.414
24386WAT      O73399   0.154   7.053   4.429
24386WAT     H173400   0.151   6.966   4.379
24386WAT     H273401   0.249   7.080   4.442
24387WAT      O73402   6.187   4.537   3.694
24387WAT     H173403   6.246   4.459   3.673
24387WAT     H273404   6.239   4.622   3.685
24388WAT      O73405   4.359   4.512   6.187
24388WAT     H173406   4.429   4.442   6.176
24388WAT     H273407   4.325   4.512   6.281
24389WAT      O73408   6.883   0.645   9.361
24389WAT     H173409   6.970   0.671   9.317
24389WAT     H273410   6.815   0.627   9.290
24390WAT      O73411   0.320   3.913   5.425
24390WAT     H173412   0.354   3.862   5.504
24390WAT     H273413   0.330   3.857   5.343
24391WAT      O73414   6.483   6.835   2.068
24391WAT     H173415   6.446   6.844   1.975
24391WAT     H273416   6.561   6.772   2.067
24392WAT      O73417   1.738   8.421   1.199
24392WAT     H173418   1.700   8.477   1.126
24392WAT     H273419   1.829   8.455   1.223
24393WAT      O73420   3.144   1.406   3.183
24393WAT     H173421   3.130   1.404   3.282
24393WAT     H273422   3.067   1.453   3.139
24394WAT      O73423   8.285   2.631   2.870
24394WAT     H173424   8.254   2.718   2.831
24394WAT     H273425   8.374   2.644   2.914
24395WAT      O73426   8.795   9.312   3.493
24395WAT     H173427   8.729   9.256   3.543
24395WAT     H273428   8.767   9.408   3.496
24396WAT      O73429   1.043   4.178   5.511
24396WAT     H173430   1.084   4.195   5.421
24396WAT     H273431   1.097   4.224   5.582
24397WAT      O73432   7.744   9.741   8.097
24397WAT     H173433   7.794   9.661   8.066
24397WAT     H273434   7.765   9.760   8.193
24398WAT      O73435   6.300   9.425   5.336
24398WAT     H173436   6.320   9.448   5.241
24398WAT     H273437   6.375   9.373   5.375
24399WAT      O73438   6.883   3.025   5.925
24399WAT     H173439   6.821   3.104   5.930
24399WAT     H273440   6.853   2.955   5.990
24400WAT      O73441   4.094   6.671   8.729
24400WAT     H173442   4.008   6.701   8.769
24400WAT     H273443   4.134   6.598   8.784
24401WAT      O73444   5.511   3.526   0.194
24401WAT     H173445   5.577   3.535   0.269
24401WAT     H273446   5.559   3.503   0.110
24402WAT      O73447   9.213   6.525   0.682
24402WAT     H173448   9.242   6.599   0.621
24402WAT     H273449   9.148   6.466   0.635
24403WAT      O73450   0.169   8.241   1.062
24403WAT     H173451   0.184   8.185   0.981
24403WAT     H273452   0.159   8.182   1.142
24404WAT      O73453   9.104   9.194   1.365
24404WAT     H173454   9.174   9.133   1.327
24404WAT     H273455   9.146   9.260   1.426
24405WAT      O73456   7.869   3.027   1.012
24405WAT     H173457   7.881   3.125   1.032
24405WAT     H273458   7.904   3.007   0.921
24406WAT      O73459   7.838   7.314   8.645
24406WAT     H173460   7.923   7.333   8.695
24406WAT     H273461   7.845   7.224   8.601
24407WAT      O73462   4.301   4.341   8.024
24407WAT     H173463   4.208   4.321   7.991
24407WAT     H273464   4.368   4.295   7.966
24408WAT      O73465   8.197   7.882   1.814
24408WAT     H173466   8.122   7.936   1.777
24408WAT     H273467   8.241   7.931   1.889
24409WAT      O73468   6.043   7.250   0.462
24409WAT     H173469   6.082   7.279   0.549
24409WAT     H273470   6.085   7.302   0.388
24410WAT      O73471   8.454   0.955   7.223
24410WAT     H173472   8.479   1.050   7.206
24410WAT     H273473   8.426   0.944   7.318
24411WAT      O73474   2.087   2.270   4.243
24411WAT     H173475   2.116   2.288   4.336
24411WAT     H273476   2.068   2.356   4.196
24412WAT      O73477   6.304   7.338   2.143
24412WAT     H173478   6.354   7.361   2.060
24412WAT     H273479   6.363   7.354   2.223
24413WAT      O73480   1.638   2.061   2.382
24413WAT     H173481   1.700   2.132   2.351
24413WAT     H273482   1.574   2.099   2.448
24414WAT      O73483   1.353   6.482   8.774
24414WAT     H173484   1.287   6.448   8.841
24414WAT     H273485   1.444   6.449   8.797
24415WAT      O73486   8.001   9.222   9.146
24415WAT     H173487   8.002   9.208   9.245
24415WAT     H273488   8.046   9.145   9.100
24416WAT      O73489   2.575   2.090   1.149
24416WAT     H173490   2.582   2.189   1.136
24416WAT     H273491   2.619   2.043   1.072
24417WAT      O73492   9.673   2.374   7.215
24417WAT     H173493   9.700   2.315   7.291
24417WAT     H273494   9.734   2.452   7.210
24418WAT      O73495   5.350   2.913   5.028
24418WAT     H173496   5.325   2.980   4.958
24418WAT     H273497   5.343   2.954   5.119
24419WAT      O73498   9.697   4.011   6.834
24419WAT     H173499   9.599   3.994   6.847
24419WAT     H273500   9.725   3.978   6.744
24420WAT      O73501   6.856   0.458   6.892
24420WAT     H173502   6.841   0.541   6.839
24420WAT     H273503   6.951   0.454   6.923
24421WAT      O73504   9.285   1.852   2.668
24421WAT     H173505   9.268   1.778   2.732
24421WAT     H273506   9.382   1.853   2.643
24422WAT      O73507   4.891   5.294   9.743
24422WAT     H173508   4.797   5.307   9.713
24422WAT     H273509   4.911   5.196   9.747
24423WAT      O73510   6.511   3.508   4.517
24423WAT     H173511   6.437   3.575   4.513
24423WAT     H273512   6.586   3.537   4.458
24424WAT      O73513   1.390   6.221   7.283
24424WAT     H173514   1.354   6.287   7.218
24424WAT     H273515   1.362   6.247   7.376
24425WAT      O73516   8.177   0.073   4.749
24425WAT     H173517   8.190  -0.015   4.704
24425WAT     H273518   8.083   0.079   4.783
24426WAT      O73519   3.076   0.363   6.607
24426WAT     H173520   3.132   0.331   6.683
24426WAT     H273521   3.102   0.457   6.584
24427WAT      O73522   4.328   4.291   9.527
24427WAT     H173523   4.419   4.331   9.517
24427WAT     H273524   4.327   4.200   9.485
24428WAT      O73525   3.424   9.133   3.944
24428WAT     H173526   3.425   9.168   4.038
24428WAT     H273527   3.338   9.159   3.900
24429WAT      O73528   2.298   0.596   2.563
24429WAT     H173529   2.294   0.541   2.480
24429WAT     H273530   2.209   0.639   2.578
24430WAT      O73531   6.781   2.136   5.430
24430WAT     H173532   6.686   2.157   5.406
24430WAT     H273533   6.843   2.192   5.376
24431WAT      O73534   0.937   3.449   7.658
24431WAT     H173535   0.839   3.456   7.677
24431WAT     H273536   0.957   3.357   7.624
24432WAT      O73537   1.909   8.454   2.374
24432WAT     H173538   1.882   8.549   2.361
24432WAT     H273539   1.958   8.422   2.292
24433WAT      O73540   8.585   9.199   7.481
24433WAT     H173541   8.595   9.110   7.526
24433WAT     H273542   8.602   9.188   7.383
24434WAT      O73543   8.108   8.011   6.146
24434WAT     H173544   8.104   8.108   6.122
24434WAT     H273545   8.086   7.955   6.066
24435WAT      O73546   4.698   0.913   4.791
24435WAT     H173547   4.652   0.884   4.707
24435WAT     H273548   4.722   0.833   4.846
24436WAT      O73549   4.143   7.185   0.379
24436WAT     H173550   4.051   7.195   0.416
24436WAT     H273551   4.150   7.099   0.329
24437WAT      O73552   5.405   2.913   3.574
24437WAT     H173553   5.416   2.814   3.570
24437WAT     H273554   5.433   2.947   3.664
24438WAT      O73555   7.434   8.086   4.060
24438WAT     H173556   7.534   8.089   4.066
24438WAT     H273557   7.401   8.172   4.022
24439WAT      O73558   0.206   1.573   3.516
24439WAT     H173559   0.131   1.558   3.579
24439WAT     H273560   0.186   1.529   3.429
24440WAT      O73561   5.749   1.798   8.234
24440WAT     H173562   5.812   1.735   8.189
24440WAT     H273563   5.770   1.803   8.331
24441WAT      O73564   5.198   7.228   1.704
24441WAT     H173565   5.196   7.218   1.605
24441WAT     H273566   5.271   7.292   1.730
24442WAT      O73567   9.321   1.707   4.646
24442WAT     H173568   9.317   1.619   4.695
24442WAT     H273569   9.331   1.781   4.713
24443WAT      O73570   0.556   4.742   7.540
24443WAT     H173571   0.474   4.794   7.563
24443WAT     H273572   0.611   4.792   7.473
24444WAT      O73573   7.338   4.120   0.374
24444WAT     H173574   7.251   4.104   0.419
24444WAT     H273575   7.347   4.058   0.296
24445WAT      O73576   2.689   7.895   4.834
24445WAT     H173577   2.655   7.818   4.780
24445WAT     H273578   2.629   7.974   4.822
24446WAT      O73579   7.361   8.859   3.217
24446WAT     H173580   7.393   8.765   3.219
24446WAT     H273581   7.274   8.866   3.265
24447WAT      O73582   1.410   6.538   9.322
24447WAT     H173583   1.368   6.604   9.261
24447WAT     H273584   1.452   6.585   9.400
24448WAT      O73585   2.630   4.615   1.617
24448WAT     H173586   2.595   4.704   1.645
24448WAT     H273587   2.722   4.626   1.578
24449WAT      O73588   5.103   4.887   2.008
24449WAT     H173589   5.065   4.975   1.980
24449WAT     H273590   5.072   4.866   2.101
24450WAT      O73591   4.867   0.512   4.528
24450WAT     H173592   4.781   0.510   4.579
24450WAT     H273593   4.852   0.475   4.436
24451WAT      O73594   2.102   1.186   3.912
24451WAT     H173595   2.043   1.106   3.912
24451WAT     H273596   2.197   1.158   3.900
24452WAT      O73597   4.743   2.226   5.758
24452WAT     H173598   4.837   2.201   5.783
24452WAT     H273599   4.712   2.301   5.816
24453WAT      O73600   7.799   7.574   2.888
24453WAT     H173601   7.700   7.585   2.903
24453WAT     H273602   7.825   7.479   2.904
24454WAT      O73603   7.258   8.537   5.695
24454WAT     H173604   7.261   8.452   5.749
24454WAT     H273605   7.185   8.531   5.627
24455WAT      O73606   7.596   5.686   7.823
24455WAT     H173607   7.668   5.689   7.893
24455WAT     H273608   7.637   5.679   7.732
24456WAT      O73609   3.613   9.247   5.675
24456WAT     H173610   3.668   9.330   5.672
24456WAT     H273611   3.528   9.264   5.725
24457WAT      O73612   7.335   6.195   6.994
24457WAT     H173613   7.278   6.236   7.065
24457WAT     H273614   7.346   6.261   6.919
24458WAT      O73615   8.539   9.052   8.997
24458WAT     H173616   8.596   9.040   9.078
24458WAT     H273617   8.561   9.139   8.953
24459WAT      O73618   8.890   3.459   6.825
24459WAT     H173619   8.883   3.552   6.859
24459WAT     H273620   8.833   3.449   6.743
24460WAT      O73621   6.200   9.116   6.143
24460WAT     H173622   6.204   9.109   6.044
24460WAT     H273623   6.188   9.025   6.182
24461WAT      O73624   1.663   7.571   3.458
24461WAT     H173625   1.716   7.500   3.504
24461WAT     H273626   1.652   7.548   3.362
24462WAT      O73627   7.258   1.461   0.169
24462WAT     H173628   7.224   1.401   0.242
24462WAT     H273629   7.353   1.440   0.151
24463WAT      O73630   6.597   3.448   1.066
24463WAT     H173631   6.590   3.362   1.116
24463WAT     H273632   6.673   3.444   1.002
24464WAT      O73633   1.848   5.666   5.588
24464WAT     H173634   1.904   5.744   5.561
24464WAT     H273635   1.820   5.675   5.683
24465WAT      O73636   3.015   9.779   6.626
24465WAT     H173637   3.054   9.777   6.718
24465WAT     H273638   2.936   9.718   6.622
24466WAT      O73639   5.621   7.986   4.946
24466WAT     H173640   5.622   8.068   4.888
24466WAT     H273641   5.612   8.012   5.042
24467WAT      O73642   2.291   4.007   9.142
24467WAT     H173643   2.274   3.916   9.104
24467WAT     H273644   2.205   4.048   9.171
24468WAT      O73645   0.071   0.761   8.955
24468WAT     H173646   0.014   0.752   8.874
24468WAT     H273647   0.168   0.764   8.928
24469WAT      O73648   7.119   7.420   7.425
24469WAT     H173649   7.104   7.329   7.386
24469WAT     H273650   7.185   7.470   7.368
24470WAT      O73651   1.288   6.289   8.514
24470WAT     H173652   1.215   6.314   8.450
24470WAT     H273653   1.372   6.271   8.463
24471WAT      O73654   4.016   8.871   7.466
24471WAT     H173655   4.029   8.908   7.558
24471WAT     H273656   3.983   8.944   7.406
24472WAT      O73657   8.410   0.723   8.297
24472WAT     H173658   8.470   0.788   8.250
24472WAT     H273659   8.444   0.630   8.284
24473WAT      O73660   2.168   0.917   4.639
24473WAT     H173661   2.246   0.935   4.698
24473WAT     H273662   2.149   0.998   4.583
24474WAT      O73663   2.687   4.796   9.352
24474WAT     H173664   2.666   4.864   9.282
24474WAT     H273665   2.786   4.784   9.359
24475WAT      O73666   3.356   4.252   8.198
24475WAT     H173667   3.320   4.285   8.111
24475WAT     H273668   3.315   4.163   8.220
24476WAT      O73669   0.119   0.194   1.885
24476WAT     H173670   0.089   0.288   1.869
24476WAT     H273671   0.182   0.192   1.963
24477WAT      O73672   1.620   9.222   5.083
24477WAT     H173673   1.605   9.197   5.179
24477WAT     H273674   1.533   9.249   5.042
24478WAT      O73675   1.695   5.051   1.750
24478WAT     H173676   1.625   5.099   1.802
24478WAT     H273677   1.714   4.963   1.792
24479WAT      O73678   7.515   8.120   5.129
24479WAT     H173679   7.596   8.061   5.120
24479WAT     H273680   7.521   8.195   5.063
24480WAT      O73681   9.182   8.789   7.812
24480WAT     H173682   9.129   8.761   7.892
24480WAT     H273683   9.152   8.880   7.782
24481WAT      O73684   7.413   0.072   6.195
24481WAT     H173685   7.347   0.147   6.185
24481WAT     H273686   7.403   0.009   6.118
24482WAT      O73687   5.276   8.249   4.004
24482WAT     H173688   5.287   8.276   3.908
24482WAT     H273689   5.350   8.186   4.029
24483WAT      O73690   8.910   4.319   6.109
24483WAT     H173691   8.825   4.277   6.139
24483WAT     H273692   8.889   4.404   6.060
24484WAT      O73693   1.853   3.932   1.122
24484WAT     H173694   1.892   3.856   1.174
24484WAT     H273695   1.835   4.009   1.183
24485WAT      O73696   4.352   9.264   7.065
24485WAT     H173697   4.278   9.202   7.091
24485WAT     H273698   4.356   9.270   6.965
24486WAT      O73699   1.848   4.490   5.799
24486WAT     H173700   1.791   4.571   5.790
24486WAT     H273701   1.894   4.471   5.712
24487WAT      O73702   1.880   4.675   6.435
24487WAT     H173703   1.961   4.657   6.378
24487WAT     H273704   1.823   4.744   6.391
24488WAT      O73705   1.033   4.848   8.045
24488WAT     H173706   1.005   4.756   8.018
24488WAT     H273707   0.987   4.916   7.987
24489WAT      O73708   3.622   4.518   9.012
24489WAT     H173709   3.605   4.533   8.914
24489WAT     H273710   3.717   4.488   9.025
24490WAT      O73711   3.706   4.429   0.219
24490WAT     H173712   3.735   4.431   0.123
24490WAT     H273713   3.616   4.387   0.226
24491WAT      O73714   2.412   3.685   8.248
24491WAT     H173715   2.425   3.619   8.174
24491WAT     H273716   2.314   3.698   8.265
24492WAT      O73717   1.078   1.691   2.844
24492WAT     H173718   1.100   1.776   2.892
24492WAT     H273719   1.004   1.644   2.892
24493WAT      O73720   1.920   0.491   5.933
24493WAT     H173721   1.968   0.415   5.891
24493WAT     H273722   1.858   0.457   6.004
24494WAT      O73723   9.502   2.306   7.848
24494WAT     H173724   9.455   2.234   7.899
24494WAT     H273725   9.470   2.395   7.880
24495WAT      O73726   7.412   8.998   2.518
24495WAT     H173727   7.344   8.936   2.478
24495WAT     H273728   7.483   9.017   2.451
24496WAT      O73729   8.825   5.329   0.026
24496WAT     H173730   8.841   5.362  -0.067
24496WAT     H273731   8.830   5.406   0.090
24497WAT      O73732   3.248   1.104   2.724
24497WAT     H173733   3.263   1.191   2.677
24497WAT     H273734   3.175   1.054   2.677
24498WAT      O73735   2.109   1.856   9.600
24498WAT     H173736   2.061   1.791   9.541
24498WAT     H273737   2.204   1.863   9.570
24499WAT      O73738   1.559   1.022   2.353
24499WAT     H173739   1.524   0.976   2.434
24499WAT     H273740   1.492   1.015   2.279
24500WAT      O73741   6.572   5.687   3.094
24500WAT     H173742   6.482   5.674   3.134
24500WAT     H273743   6.633   5.729   3.161
24501WAT      O73744   6.209   5.087   5.649
24501WAT     H173745   6.115   5.113   5.671
24501WAT     H273746   6.236   5.129   5.562
24502WAT      O73747   0.277   1.864   3.222
24502WAT     H173748   0.363   1.854   3.272
24502WAT     H273749   0.251   1.960   3.217
24503WAT      O73750   5.609   9.338   6.634
24503WAT     H173751   5.692   9.356   6.581
24503WAT     H273752   5.623   9.260   6.693
24504WAT      O73753   8.334   0.587   7.549
24504WAT     H173754   8.291   0.674   7.573
24504WAT     H273755   8.294   0.553   7.463
24505WAT      O73756   7.513   8.020   0.229
24505WAT     H173757   7.553   7.935   0.265
24505WAT     H273758   7.431   7.998   0.175
24506WAT      O73759   9.704   8.440   2.348
24506WAT     H173760   9.734   8.470   2.257
24506WAT     H273761   9.688   8.342   2.347
24507WAT      O73762   5.253   4.231   8.694
24507WAT     H173763   5.244   4.313   8.751
24507WAT     H273764   5.179   4.229   8.626
24508WAT      O73765   1.436   2.298   4.716
24508WAT     H173766   1.423   2.352   4.633
24508WAT     H273767   1.452   2.203   4.692
24509WAT      O73768   3.212   6.072   6.696
24509WAT     H173769   3.286   6.005   6.694
24509WAT     H273770   3.239   6.153   6.643
24510WAT      O73771   4.468   8.890   8.061
24510WAT     H173772   4.469   8.793   8.085
24510WAT     H273773   4.532   8.940   8.119
24511WAT      O73774   8.442   6.766   4.622
24511WAT     H173775   8.420   6.669   4.631
24511WAT     H273776   8.538   6.781   4.647
24512WAT      O73777   8.667   3.310   0.038
24512WAT     H173778   8.579   3.295  -0.007
24512WAT     H273779   8.668   3.401   0.080
24513WAT      O73780   3.484   7.963   3.251
24513WAT     H173781   3.395   8.009   3.246
24513WAT     H273782   3.553   8.028   3.284
24514WAT      O73783   0.628   2.808   0.696
24514WAT     H173784   0.604   2.728   0.641
24514WAT     H273785   0.696   2.863   0.648
24515WAT      O73786   7.370   6.953   2.137
24515WAT     H173787   7.394   6.974   2.042
24515WAT     H273788   7.350   6.855   2.145
24516WAT      O73789   8.189   4.255   7.958
24516WAT     H173790   8.147   4.220   8.042
24516WAT     H273791   8.136   4.223   7.879
24517WAT      O73792   1.913   3.395   5.612
24517WAT     H173793   1.889   3.311   5.660
24517WAT     H273794   1.853   3.407   5.533
24518WAT      O73795   2.402   7.209   4.038
24518WAT     H173796   2.441   7.135   4.093
24518WAT     H273797   2.467   7.235   3.967
24519WAT      O73798   3.823   6.268   1.344
24519WAT     H173799   3.759   6.219   1.284
24519WAT     H273800   3.869   6.339   1.291
24520WAT      O73801   7.414   1.544   6.628
24520WAT     H173802   7.434   1.641   6.642
24520WAT     H273803   7.489   1.489   6.664
24521WAT      O73804   8.309   4.423   3.413
24521WAT     H173805   8.270   4.373   3.490
24521WAT     H273806   8.258   4.402   3.330
24522WAT      O73807   3.353   3.875   3.406
24522WAT     H173808   3.314   3.923   3.327
24522WAT     H273809   3.445   3.842   3.382
24523WAT      O73810   2.070   0.549   0.919
24523WAT     H173811   2.147   0.610   0.937
24523WAT     H273812   2.022   0.580   0.836
24524WAT      O73813   3.686   0.730   7.019
24524WAT     H173814   3.695   0.829   7.031
24524WAT     H273815   3.777   0.688   7.017
24525WAT      O73816   7.638   7.244   3.480
24525WAT     H173817   7.713   7.180   3.500
24525WAT     H273818   7.676   7.328   3.441
24526WAT      O73819   6.226   3.395   1.121
24526WAT     H173820   6.263   3.320   1.066
24526WAT     H273821   6.290   3.472   1.118
24527WAT      O73822   1.026   0.946   3.202
24527WAT     H173823   1.050   1.029   3.252
24527WAT     H273824   0.933   0.955   3.165
24528WAT      O73825   5.256   6.868   7.897
24528WAT     H173826   5.252   6.859   7.797
24528WAT     H273827   5.335   6.925   7.922
24529WAT      O73828   7.317   3.481   0.165
24529WAT     H173829   7.295   3.484   0.263
24529WAT     H273830   7.320   3.574   0.129
24530WAT      O73831   8.929   4.346   2.820
24530WAT     H173832   8.846   4.330   2.874
24530WAT     H273833   8.978   4.260   2.808
24531WAT      O73834   7.160   7.209   8.505
24531WAT     H173835   7.069   7.221   8.465
24531WAT     H273836   7.188   7.113   8.495
24532WAT      O73837   8.637   2.793   9.804
24532WAT     H173838   8.734   2.819   9.811
24532WAT     H273839   8.624   2.704   9.846
24533WAT      O73840   7.460   0.304   5.719
24533WAT     H173841   7.523   0.326   5.644
24533WAT     H273842   7.368   0.338   5.697
24534WAT      O73843   2.759   2.944   6.869
24534WAT     H173844   2.732   3.011   6.938
24534WAT     H273845   2.841   2.976   6.822
24535WAT      O73846   5.490   9.198   5.194
24535WAT     H173847   5.509   9.295   5.212
24535WAT     H273848   5.392   9.185   5.184
24536WAT      O73849   1.196   5.054   6.475
24536WAT     H173850   1.142   5.043   6.559
24536WAT     H273851   1.279   4.999   6.482
24537WAT      O73852   6.691   9.561   6.759
24537WAT     H173853   6.593   9.560   6.737
24537WAT     H273854   6.732   9.474   6.734
24538WAT      O73855   3.087   0.097   2.569
24538WAT     H173856   3.022   0.161   2.610
24538WAT     H273857   3.039   0.013   2.545
24539WAT      O73858   6.121   0.242   7.222
24539WAT     H173859   6.186   0.233   7.298
24539WAT     H273860   6.166   0.287   7.145
24540WAT      O73861   6.853   8.788   7.886
24540WAT     H173862   6.854   8.867   7.825
24540WAT     H273863   6.893   8.709   7.840
24541WAT      O73864   4.094   9.790   7.589
24541WAT     H173865   4.155   9.868   7.604
24541WAT     H273866   4.145   9.705   7.601
24542WAT      O73867   4.414   2.234   5.723
24542WAT     H173868   4.455   2.295   5.791
24542WAT     H273869   4.440   2.265   5.632
24543WAT      O73870   1.591   3.075   1.691
24543WAT     H173871   1.615   3.149   1.753
24543WAT     H273872   1.675   3.029   1.660
24544WAT      O73873   6.669   8.582   0.941
24544WAT     H173874   6.630   8.496   0.910
24544WAT     H273875   6.607   8.657   0.918
24545WAT      O73876   7.536   2.056   1.625
24545WAT     H173877   7.494   2.146   1.610
24545WAT     H273878   7.483   1.987   1.576
24546WAT      O73879   1.127   8.468   6.385
24546WAT     H173880   1.042   8.431   6.423
24546WAT     H273881   1.205   8.428   6.433
24547WAT      O73882   4.084   6.943   8.280
24547WAT     H173883   4.156   6.896   8.229
24547WAT     H273884   4.047   7.017   8.223
24548WAT      O73885   0.699   5.637   9.596
24548WAT     H173886   0.646   5.700   9.653
24548WAT     H273887   0.705   5.548   9.642
24549WAT      O73888   0.700   0.109   3.192
24549WAT     H173889   0.755   0.167   3.252
24549WAT     H273890   0.759   0.045   3.143
24550WAT      O73891   2.666   5.966   0.089
24550WAT     H173892   2.662   6.063   0.062
24550WAT     H273893   2.634   5.956   0.183
24551WAT      O73894   0.012   0.194   0.431
24551WAT     H173895   0.033   0.181   0.335
24551WAT     H273896   0.045   0.284   0.461
24552WAT      O73897   3.049   4.933   7.451
24552WAT     H173898   3.133   4.898   7.493
24552WAT     H273899   2.989   4.856   7.429
24553WAT      O73900   7.585   3.947   7.394
24553WAT     H173901   7.623   3.893   7.318
24553WAT     H273902   7.558   3.886   7.468
24554WAT      O73903   0.177   9.364   9.724
24554WAT     H173904   0.186   9.415   9.810
24554WAT     H273905   0.126   9.419   9.658
24555WAT      O73906   4.472   5.532   2.099
24555WAT     H173907   4.455   5.518   2.197
24555WAT     H273908   4.491   5.628   2.082
24556WAT      O73909   9.447   1.811   7.008
24556WAT     H173910   9.402   1.780   6.924
24556WAT     H273911   9.383   1.804   7.084
24557WAT      O73912   7.146   5.681   2.004
24557WAT     H173913   7.186   5.715   2.089
24557WAT     H273914   7.120   5.759   1.947
24558WAT      O73915   4.782   1.780   9.009
24558WAT     H173916   4.789   1.684   8.981
24558WAT     H273917   4.794   1.787   9.108
24559WAT      O73918   6.711   2.671   9.422
24559WAT     H173919   6.776   2.662   9.346
24559WAT     H273920   6.618   2.671   9.386
24560WAT      O73921   2.684   1.331   9.895
24560WAT     H173922   2.691   1.319   9.796
24560WAT     H273923   2.663   1.243   9.938
24561WAT      O73924   7.048   4.177   9.178
24561WAT     H173925   7.001   4.265   9.184
24561WAT     H273926   7.001   4.118   9.112
24562WAT      O73927   5.717   1.281   7.168
24562WAT     H173928   5.784   1.276   7.243
24562WAT     H273929   5.634   1.233   7.195
24563WAT      O73930   8.218   1.266   3.287
24563WAT     H173931   8.183   1.296   3.199
24563WAT     H273932   8.318   1.274   3.288
24564WAT      O73933   6.892   5.590   3.505
24564WAT     H173934   6.809   5.645   3.502
24564WAT     H273935   6.873   5.500   3.466
24565WAT      O73936   5.321   0.212   6.571
24565WAT     H173937   5.413   0.206   6.531
24565WAT     H273938   5.255   0.235   6.499
24566WAT      O73939   1.218   9.118   9.284
24566WAT     H173940   1.149   9.179   9.323
24566WAT     H273941   1.234   9.143   9.188
24567WAT      O73942   8.552   9.515   9.711
24567WAT     H173943   8.558   9.444   9.781
24567WAT     H273944   8.642   9.554   9.694
24568WAT      O73945   6.249   1.160   2.313
24568WAT     H173946   6.167   1.216   2.301
24568WAT     H273947   6.243   1.079   2.256
24569WAT      O73948   6.094   2.353   5.999
24569WAT     H173949   6.099   2.452   6.005
24569WAT     H273950   6.165   2.320   5.937
24570WAT      O73951   7.789   6.472   3.726
24570WAT     H173952   7.769   6.555   3.778
24570WAT     H273953   7.865   6.423   3.768
24571WAT      O73954   6.503   0.911   2.962
24571WAT     H173955   6.580   0.860   3.000
24571WAT     H273956   6.487   0.883   2.868
24572WAT      O73957   8.073   3.408   9.657
24572WAT     H173958   7.988   3.459   9.670
24572WAT     H273959   8.150   3.467   9.676
24573WAT      O73960   8.764   7.317   6.894
24573WAT     H173961   8.804   7.393   6.843
24573WAT     H273962   8.817   7.302   6.978
24574WAT      O73963   2.545   4.974   0.340
24574WAT     H173964   2.560   5.062   0.386
24574WAT     H273965   2.541   4.901   0.408
24575WAT      O73966   5.716   7.343   5.560
24575WAT     H173967   5.700   7.306   5.651
24575WAT     H273968   5.808   7.383   5.556
24576WAT      O73969   6.827   0.574   4.386
24576WAT     H173970   6.752   0.535   4.441
24576WAT     H273971   6.914   0.536   4.417
24577WAT      O73972   0.069   4.249   7.819
24577WAT     H173973   0.032   4.298   7.898
24577WAT     H273974   0.089   4.155   7.844
24578WAT      O73975   4.903   9.064   0.477
24578WAT     H173976   4.898   8.979   0.530
24578WAT     H273977   4.940   9.137   0.535
24579WAT      O73978   6.242   1.384   5.908
24579WAT     H173979   6.318   1.394   5.844
24579WAT     H273980   6.271   1.328   5.986
24580WAT      O73981   0.367   8.998   0.599
24580WAT     H173982   0.453   8.967   0.558
24580WAT     H273983   0.371   8.984   0.698
24581WAT      O73984   2.204   3.864   4.239
24581WAT     H173985   2.303   3.850   4.235
24581WAT     H273986   2.160   3.806   4.170
24582WAT      O73987   7.635   2.904   6.827
24582WAT     H173988   7.631   2.805   6.809
24582WAT     H273989   7.644   2.953   6.740
24583WAT      O73990   7.592   9.319   9.611
24583WAT     H173991   7.497   9.345   9.631
24583WAT     H273992   7.614   9.346   9.517
24584WAT      O73993   2.148   6.740   8.709
24584WAT     H173994   2.162   6.645   8.681
24584WAT     H273995   2.138   6.745   8.809
24585WAT      O73996   5.233   1.825   7.255
24585WAT     H173997   5.304   1.778   7.204
24585WAT     H273998   5.269   1.911   7.291
24586WAT      O73999   1.548   1.911   5.869
24586WAT     H174000   1.498   1.857   5.801
24586WAT     H274001   1.515   1.889   5.961
24587WAT      O74002   0.250   1.308   6.347
24587WAT     H174003   0.215   1.348   6.432
24587WAT     H274004   0.350   1.311   6.346
24588WAT      O74005   1.313   5.538   0.396
24588WAT     H174006   1.312   5.495   0.306
24588WAT     H274007   1.319   5.638   0.385
24589WAT      O74008   9.455   0.565   3.301
24589WAT     H174009   9.539   0.576   3.248
24589WAT     H274010   9.452   0.472   3.339
24590WAT      O74011   9.875   9.086   1.771
24590WAT     H174012   9.816   9.029   1.715
24590WAT     H274013   9.969   9.050   1.768
24591WAT      O74014   2.970   6.958   2.893
24591WAT     H174015   3.047   6.982   2.952
24591WAT     H274016   2.928   7.041   2.856
24592WAT      O74017   1.727   4.506   7.303
24592WAT     H174018   1.628   4.519   7.300
24592WAT     H274019   1.748   4.408   7.303
24593WAT      O74020   7.929   1.692   7.104
24593WAT     H174021   7.858   1.665   7.169
24593WAT     H274022   7.916   1.644   7.017
24594WAT      O74023   4.716   8.828   8.275
24594WAT     H174024   4.671   8.916   8.261
24594WAT     H274025   4.797   8.822   8.216
24595WAT      O74026   2.065   5.073   3.355
24595WAT     H174027   2.022   5.016   3.285
24595WAT     H274028   2.161   5.047   3.365
24596WAT      O74029   4.691   0.405   1.274
24596WAT     H174030   4.659   0.437   1.185
24596WAT     H274031   4.615   0.403   1.339
24597WAT      O74032   9.335   9.077   8.444
24597WAT     H174033   9.351   8.985   8.479
24597WAT     H274034   9.243   9.081   8.405
24598WAT      O74035   4.871   0.794   8.401
24598WAT     H174036   4.898   0.857   8.474
24598WAT     H274037   4.898   0.832   8.313
24599WAT      O74038   2.594   1.834   6.777
24599WAT     H174039   2.507   1.869   6.811
24599WAT     H274040   2.587   1.735   6.762
24600WAT      O74041   6.256   9.830   4.483
24600WAT     H174042   6.351   9.811   4.506
24600WAT     H274043   6.197   9.806   4.561
24601WAT      O74044   9.448   7.898   1.626
24601WAT     H174045   9.531   7.918   1.574
24601WAT     H274046   9.471   7.882   1.722
24602WAT      O74047   1.469   9.182   9.668
24602WAT     H174048   1.492   9.277   9.690
24602WAT     H274049   1.458   9.131   9.753
24603WAT      O74050   7.391   4.767   5.426
24603WAT     H174051   7.322   4.714   5.475
24603WAT     H274052   7.453   4.704   5.377
24604WAT      O74053   5.189   9.127   1.082
24604WAT     H174054   5.232   9.051   1.034
24604WAT     H274055   5.152   9.095   1.169
24605WAT      O74056   6.537   8.215   4.338
24605WAT     H174057   6.499   8.269   4.263
24605WAT     H274058   6.502   8.250   4.425
24606WAT      O74059   4.458   7.361   0.802
24606WAT     H174060   4.426   7.294   0.734
24606WAT     H274061   4.530   7.319   0.857
24607WAT      O74062   7.534   8.212   2.838
24607WAT     H174063   7.627   8.200   2.803
24607WAT     H274064   7.468   8.181   2.770
24608WAT      O74065   9.885   7.484   9.043
24608WAT     H174066   9.961   7.432   9.005
24608WAT     H274067   9.848   7.436   9.122
24609WAT      O74068   0.066   9.535   9.548
24609WAT     H174069  -0.011   9.526   9.611
24609WAT     H274070   0.040   9.500   9.458
24610WAT      O74071   7.807   1.679   1.639
24610WAT     H174072   7.847   1.616   1.706
24610WAT     H274073   7.729   1.635   1.594
24611WAT      O74074   7.558   3.750   0.872
24611WAT     H174075   7.634   3.800   0.831
24611WAT     H274076   7.474   3.801   0.859
24612WAT      O74077   6.223   1.354   7.098
24612WAT     H174078   6.310   1.304   7.109
24612WAT     H274079   6.156   1.294   7.055
24613WAT      O74080   1.376   4.148   1.524
24613WAT     H174081   1.317   4.227   1.542
24613WAT     H274082   1.319   4.069   1.501
24614WAT      O74083   2.759   0.736   8.655
24614WAT     H174084   2.674   0.752   8.705
24614WAT     H274085   2.752   0.651   8.604
24615WAT      O74086   0.961   1.219   1.298
24615WAT     H174087   0.963   1.312   1.334
24615WAT     H274088   1.054   1.186   1.286
24616WAT      O74089   3.640   7.862   1.054
24616WAT     H174090   3.734   7.897   1.049
24616WAT     H274091   3.617   7.815   0.970
24617WAT      O74092   6.256   0.812   0.577
24617WAT     H174093   6.158   0.797   0.560
24617WAT     H274094   6.309   0.739   0.534
24618WAT      O74095   5.881   1.767   0.559
24618WAT     H174096   5.870   1.814   0.647
24618WAT     H274097   5.957   1.704   0.563
24619WAT      O74098   1.960   6.435   9.477
24619WAT     H174099   2.012   6.448   9.562
24619WAT     H274100   1.909   6.350   9.482
24620WAT      O74101   6.751   8.500   2.930
24620WAT     H174102   6.811   8.426   2.900
24620WAT     H274103   6.771   8.583   2.878
24621WAT      O74104   3.295   4.614   1.584
24621WAT     H174105   3.346   4.528   1.585
24621WAT     H274106   3.333   4.676   1.653
24622WAT      O74107   8.291   1.762   1.916
24622WAT     H174108   8.239   1.768   1.830
24622WAT     H274109   8.386   1.786   1.899
24623WAT      O74110   9.062   2.872   1.393
24623WAT     H174111   9.068   2.799   1.325
24623WAT     H274112   9.056   2.961   1.347
24624WAT      O74113   6.363   0.913   4.270
24624WAT     H174114   6.375   0.937   4.366
24624WAT     H274115   6.430   0.962   4.214
24625WAT      O74116   2.439   6.000   1.334
24625WAT     H174117   2.393   6.088   1.352
24625WAT     H274118   2.378   5.942   1.280
24626WAT      O74119   8.431   8.676   5.768
24626WAT     H174120   8.529   8.676   5.748
24626WAT     H274121   8.406   8.591   5.813
24627WAT      O74122   7.453   0.825   0.660
24627WAT     H174123   7.469   0.797   0.565
24627WAT     H274124   7.371   0.881   0.665
24628WAT      O74125   2.130   1.096   6.311
24628WAT     H174126   2.218   1.106   6.358
24628WAT     H274127   2.144   1.050   6.224
24629WAT      O74128   3.688   4.129   1.024
24629WAT     H174129   3.638   4.048   0.996
24629WAT     H274130   3.698   4.191   0.945
24630WAT      O74131   8.492   8.009   5.172
24630WAT     H174132   8.413   8.046   5.123
24630WAT     H274133   8.505   8.060   5.257
24631WAT      O74134   1.713   7.504   3.844
24631WAT     H174135   1.760   7.490   3.757
24631WAT     H274136   1.703   7.416   3.891
24632WAT      O74137   4.215   6.053   3.055
24632WAT     H174138   4.133   6.094   3.015
24632WAT     H274139   4.267   6.124   3.104
24633WAT      O74140   2.319   1.440   7.538
24633WAT     H174141   2.414   1.457   7.564
24633WAT     H274142   2.272   1.527   7.523
24634WAT      O74143   9.596   5.013   3.818
24634WAT     H174144   9.560   5.026   3.911
24634WAT     H274145   9.672   5.077   3.803
24635WAT      O74146   6.118   6.684   9.263
24635WAT     H174147   6.189   6.733   9.213
24635WAT     H274148   6.030   6.730   9.248
24636WAT      O74149   8.023   7.830   2.537
24636WAT     H174150   7.940   7.780   2.561
24636WAT     H274151   8.007   7.882   2.453
24637WAT      O74152   5.138   0.276   7.417
24637WAT     H174153   5.192   0.192   7.408
24637WAT     H274154   5.167   0.342   7.349
24638WAT      O74155   5.778   4.991   4.204
24638WAT     H174156   5.709   5.000   4.277
24638WAT     H274157   5.748   5.042   4.124
24639WAT      O74158   5.452   0.100   8.213
24639WAT     H174159   5.359   0.062   8.219
24639WAT     H274160   5.519   0.027   8.228
24640WAT      O74161   2.133   0.895   3.751
24640WAT     H174162   2.043   0.853   3.746
24640WAT     H274163   2.171   0.882   3.843
24641WAT      O74164   5.958   6.771   5.294
24641WAT     H174165   5.955   6.824   5.379
24641WAT     H274166   6.050   6.776   5.255
24642WAT      O74167   1.968   5.853   6.587
24642WAT     H174168   1.975   5.909   6.669
24642WAT     H274169   2.039   5.782   6.589
24643WAT      O74170   4.479   7.828   0.648
24643WAT     H174171   4.381   7.826   0.628
24643WAT     H274172   4.504   7.747   0.701
24644WAT      O74173   0.640   1.083   9.236
24644WAT     H174174   0.645   1.167   9.291
24644WAT     H274175   0.544   1.056   9.227
24645WAT      O74176   2.303   0.336   3.517
24645WAT     H174177   2.295   0.293   3.607
24645WAT     H274178   2.398   0.365   3.501
24646WAT      O74179   6.942   2.408   7.929
24646WAT     H174180   6.921   2.349   7.851
24646WAT     H274181   6.986   2.492   7.896
24647WAT      O74182   0.617   3.756   5.065
24647WAT     H174183   0.712   3.741   5.036
24647WAT     H274184   0.581   3.838   5.020
24648WAT      O74185   9.384   5.166   5.186
24648WAT     H174186   9.303   5.184   5.130
24648WAT     H274187   9.406   5.248   5.239
24649WAT      O74188   3.580   6.667   1.118
24649WAT     H174189   3.504   6.732   1.108
24649WAT     H274190   3.543   6.575   1.129
24650WAT      O74191   1.765   5.914   2.847
24650WAT     H174192   1.806   5.825   2.826
24650WAT     H274193   1.799   5.946   2.935
24651WAT      O74194   4.818   0.043   9.173
24651WAT     H174195   4.876   0.125   9.172
24651WAT     H274196   4.740   0.057   9.112
24652WAT      O74197   9.746   4.980   0.828
24652WAT     H174198   9.691   5.062   0.845
24652WAT     H274199   9.719   4.939   0.741
24653WAT      O74200   4.435   0.080   7.710
24653WAT     H174201   4.478   0.160   7.753
24653WAT     H274202   4.460  -0.002   7.761
24654WAT      O74203   2.412   3.395   6.087
24654WAT     H174204   2.314   3.375   6.093
24654WAT     H274205   2.427   3.471   6.023
24655WAT      O74206   3.639   9.775   0.933
24655WAT     H174207   3.653   9.871   0.955
24655WAT     H274208   3.578   9.767   0.854
24656WAT      O74209   2.859   1.931   9.509
24656WAT     H174210   2.847   1.850   9.566
24656WAT     H274211   2.956   1.944   9.490
24657WAT      O74212   1.545   1.894   7.204
24657WAT     H174213   1.532   1.982   7.251
24657WAT     H274214   1.457   1.863   7.168
24658WAT      O74215   6.285   1.816   8.873
24658WAT     H174216   6.211   1.790   8.812
24658WAT     H274217   6.352   1.742   8.877
24659WAT      O74218   2.452   8.030   1.356
24659WAT     H174219   2.464   8.008   1.259
24659WAT     H274220   2.461   8.129   1.369
24660WAT      O74221   7.489   6.711   5.426
24660WAT     H174222   7.510   6.660   5.510
24660WAT     H274223   7.415   6.776   5.444
24661WAT      O74224   0.708   6.324   3.652
24661WAT     H174225   0.678   6.285   3.739
24661WAT     H274226   0.630   6.370   3.608
24662WAT      O74227   0.831   9.598   3.791
24662WAT     H174228   0.796   9.614   3.699
24662WAT     H274229   0.925   9.564   3.786
24663WAT      O74230   1.542   4.694   9.859
24663WAT     H174231   1.554   4.703   9.760
24663WAT     H274232   1.447   4.671   9.879
24664WAT      O74233   9.044   6.974   6.981
24664WAT     H174234   9.029   7.034   7.060
24664WAT     H274235   8.968   6.909   6.974
24665WAT      O74236   7.932   8.666   6.465
24665WAT     H174237   8.026   8.635   6.451
24665WAT     H274238   7.887   8.610   6.534
24666WAT      O74239   9.484   8.760   1.010
24666WAT     H174240   9.510   8.767   1.107
24666WAT     H274241   9.403   8.704   1.001
24667WAT      O74242   9.071   4.954   1.225
24667WAT     H174243   9.014   4.981   1.302
24667WAT     H274244   9.148   5.017   1.217
24668WAT      O74245   0.322   3.862   9.412
24668WAT     H174246   0.258   3.834   9.341
24668WAT     H274247   0.280   3.850   9.502
24669WAT      O74248   0.325   2.249   1.930
24669WAT     H174249   0.405   2.308   1.937
24669WAT     H274250   0.349   2.157   1.960
24670WAT      O74251   0.711   5.676   0.531
24670WAT     H174252   0.672   5.767   0.521
24670WAT     H274253   0.810   5.680   0.521
24671WAT      O74254   2.404   2.259   3.102
24671WAT     H174255   2.403   2.162   3.079
24671WAT     H274256   2.368   2.312   3.025
24672WAT      O74257   1.596   8.217   4.332
24672WAT     H174258   1.660   8.212   4.255
24672WAT     H274259   1.503   8.201   4.299
24673WAT      O74260   2.977   0.525   3.419
24673WAT     H174261   3.037   0.489   3.491
24673WAT     H274262   2.884   0.533   3.454
24674WAT      O74263   2.480   9.183   2.229
24674WAT     H174264   2.549   9.113   2.250
24674WAT     H274265   2.391   9.139   2.216
24675WAT      O74266   8.779   8.278   6.154
24675WAT     H174267   8.733   8.204   6.203
24675WAT     H274268   8.774   8.362   6.208
24676WAT      O74269   8.718   3.923   3.034
24676WAT     H174270   8.632   3.914   3.085
24676WAT     H274271   8.778   3.847   3.057
24677WAT      O74272   6.816   7.653   2.312
24677WAT     H174273   6.755   7.707   2.370
24677WAT     H274274   6.818   7.692   2.220
24678WAT      O74275   3.858   8.277   6.254
24678WAT     H174276   3.824   8.322   6.337
24678WAT     H274277   3.808   8.313   6.174
24679WAT      O74278   7.620   7.750   4.659
24679WAT     H174279   7.661   7.687   4.724
24679WAT     H274280   7.680   7.761   4.580
24680WAT      O74281   0.156   0.460   8.083
24680WAT     H174282   0.088   0.403   8.037
24680WAT     H274283   0.241   0.458   8.031
24681WAT      O74284   6.990   3.146   8.695
24681WAT     H174285   6.927   3.145   8.617
24681WAT     H274286   7.017   3.240   8.714
24682WAT      O74287   4.287   0.666   3.020
24682WAT     H174288   4.304   0.764   3.026
24682WAT     H274289   4.190   0.648   3.035
24683WAT      O74290   2.141   6.051   0.433
24683WAT     H174291   2.110   5.967   0.389
24683WAT     H274292   2.107   6.130   0.383
24684WAT      O74293   5.495   5.274   1.843
24684WAT     H174294   5.582   5.322   1.847
24684WAT     H274295   5.512   5.177   1.825
24685WAT      O74296   6.074   5.027   4.054
24685WAT     H174297   6.047   5.095   4.122
24685WAT     H274298   6.014   5.035   3.974
24686WAT      O74299   3.332   5.089   9.435
24686WAT     H174300   3.269   5.151   9.483
24686WAT     H274301   3.355   5.013   9.495
24687WAT      O74302   1.551   0.334   6.296
24687WAT     H174303   1.584   0.285   6.377
24687WAT     H274304   1.512   0.269   6.231
24688WAT      O74305   3.074   7.338   6.402
24688WAT     H174306   3.127   7.420   6.382
24688WAT     H274307   3.120   7.284   6.473
24689WAT      O74308   4.988   8.719   9.285
24689WAT     H174309   4.929   8.788   9.242
24689WAT     H274310   5.002   8.743   9.381
24690WAT      O74311   7.774   3.693   6.304
24690WAT     H174312   7.763   3.657   6.397
24690WAT     H274313   7.830   3.630   6.251
24691WAT      O74314   4.225   0.074   5.400
24691WAT     H174315   4.324   0.061   5.393
24691WAT     H274316   4.181   0.034   5.320
24692WAT      O74317   7.085   3.413   7.038
24692WAT     H174318   7.176   3.441   7.009
24692WAT     H274319   7.050   3.344   6.974
24693WAT      O74320   3.310   3.165   9.173
24693WAT     H174321   3.235   3.231   9.181
24693WAT     H274322   3.272   3.074   9.158
24694WAT      O74323   3.720   2.803   3.970
24694WAT     H174324   3.702   2.881   4.030
24694WAT     H274325   3.656   2.729   3.991
24695WAT      O74326   7.699   3.109   5.271
24695WAT     H174327   7.641   3.188   5.253
24695WAT     H274328   7.653   3.047   5.335
24696WAT      O74329   7.043   7.695   1.966
24696WAT     H174330   7.101   7.695   2.047
24696WAT     H274331   7.052   7.783   1.919
24697WAT      O74332   0.123   8.689   1.173
24697WAT     H174333   0.217   8.715   1.196
24697WAT     H274334   0.092   8.619   1.237
24698WAT      O74335   3.854   1.647   4.314
24698WAT     H174336   3.897   1.611   4.397
24698WAT     H274337   3.828   1.571   4.254
24699WAT      O74338   5.103   9.225   1.533
24699WAT     H174339   5.048   9.265   1.460
24699WAT     H274340   5.185   9.281   1.546
24700WAT      O74341   1.332   2.936   4.739
24700WAT     H174342   1.408   2.999   4.750
24700WAT     H274343   1.310   2.925   4.642
24701WAT      O74344   8.625   1.098   5.886
24701WAT     H174345   8.612   1.178   5.945
24701WAT     H274346   8.692   1.037   5.927
24702WAT      O74347   5.062   0.052   7.828
24702WAT     H174348   5.104   0.143   7.834
24702WAT     H274349   5.123  -0.010   7.780
24703WAT      O74350   9.594   2.297   2.610
24703WAT     H174351   9.634   2.213   2.644
24703WAT     H274352   9.584   2.292   2.510
24704WAT      O74353   5.732   4.289   7.315
24704WAT     H174354   5.706   4.276   7.220
24704WAT     H274355   5.821   4.335   7.319
24705WAT      O74356   1.906   9.187   0.980
24705WAT     H174357   1.829   9.223   1.033
24705WAT     H274358   1.973   9.147   1.042
24706WAT      O74359   8.735   4.425   1.006
24706WAT     H174360   8.776   4.516   1.013
24706WAT     H274361   8.776   4.366   1.076
24707WAT      O74362   8.745   4.915   8.966
24707WAT     H174363   8.834   4.952   8.993
24707WAT     H274364   8.686   4.990   8.934
24708WAT      O74365   3.555   8.907   3.687
24708WAT     H174366   3.617   8.970   3.733
24708WAT     H274367   3.486   8.959   3.636
24709WAT      O74368   2.581   3.745   0.415
24709WAT     H174369   2.663   3.696   0.442
24709WAT     H274370   2.606   3.826   0.361
24710WAT      O74371   6.465   5.159   9.320
24710WAT     H174372   6.430   5.157   9.414
24710WAT     H274373   6.561   5.187   9.321
24711WAT      O74374   6.412   6.989   5.917
24711WAT     H174375   6.390   7.003   6.014
24711WAT     H274376   6.341   7.033   5.861
24712WAT      O74377   9.229   1.639   0.353
24712WAT     H174378   9.238   1.695   0.271
24712WAT     H274379   9.219   1.698   0.433
24713WAT      O74380   9.556   2.406   3.354
24713WAT     H174381   9.519   2.495   3.381
24713WAT     H274382   9.574   2.352   3.436
24714WAT      O74383   1.868   3.172   3.713
24714WAT     H174384   1.837   3.264   3.689
24714WAT     H274385   1.944   3.178   3.777
24715WAT      O74386   9.805   0.007   8.730
24715WAT     H174387   9.739   0.020   8.804
24715WAT     H274388   9.806   0.088   8.672
24716WAT      O74389   5.607   7.971   5.786
24716WAT     H174390   5.649   8.040   5.727
24716WAT     H274391   5.664   7.888   5.786
24717WAT      O74392   6.485   7.224   6.378
24717WAT     H174393   6.554   7.179   6.321
24717WAT     H274394   6.471   7.170   6.462
24718WAT      O74395   5.890   2.345   3.397
24718WAT     H174396   5.932   2.256   3.380
24718WAT     H274397   5.903   2.370   3.493
24719WAT      O74398   8.316   8.735   5.256
24719WAT     H174399   8.415   8.726   5.255
24719WAT     H274400   8.282   8.718   5.349
24720WAT      O74401   9.293   6.985   7.793
24720WAT     H174402   9.314   6.905   7.849
24720WAT     H274403   9.222   7.040   7.838
24721WAT      O74404   3.115   2.595   1.520
24721WAT     H174405   3.205   2.614   1.482
24721WAT     H274406   3.045   2.620   1.453
24722WAT      O74407   4.906   7.466   2.898
24722WAT     H174408   4.889   7.383   2.950
24722WAT     H274409   4.947   7.442   2.810
24723WAT      O74410   3.406   1.510   4.052
24723WAT     H174411   3.398   1.599   4.097
24723WAT     H274412   3.397   1.437   4.120
24724WAT      O74413   2.325   2.620   3.090
24724WAT     H174414   2.305   2.591   3.183
24724WAT     H274415   2.266   2.697   3.065
24725WAT      O74416   2.954   2.536   9.703
24725WAT     H174417   2.863   2.501   9.727
24725WAT     H274418   3.017   2.459   9.692
24726WAT      O74419   8.847   0.869   9.857
24726WAT     H174420   8.827   0.915   9.770
24726WAT     H274421   8.775   0.891   9.923
24727WAT      O74422   3.357   0.716   8.287
24727WAT     H174423   3.318   0.780   8.354
24727WAT     H274424   3.311   0.628   8.296
24728WAT      O74425   6.621   8.025   3.351
24728WAT     H174426   6.661   7.934   3.341
24728WAT     H274427   6.657   8.086   3.281
24729WAT      O74428   6.912   9.195   6.270
24729WAT     H174429   7.011   9.188   6.268
24729WAT     H274430   6.880   9.237   6.185
24730WAT      O74431   9.519   8.464   4.777
24730WAT     H174432   9.544   8.417   4.692
24730WAT     H274433   9.420   8.470   4.783
24731WAT      O74434   1.325   5.973   7.656
24731WAT     H174435   1.269   6.038   7.605
24731WAT     H274436   1.301   5.976   7.753
24732WAT      O74437   9.154   4.272   1.109
24732WAT     H174438   9.163   4.300   1.014
24732WAT     H274439   9.111   4.346   1.162
24733WAT      O74440   8.731   5.849   4.004
24733WAT     H174441   8.724   5.903   4.089
24733WAT     H274442   8.818   5.869   3.960
24734WAT      O74443   6.818   2.850   6.114
24734WAT     H174444   6.721   2.873   6.117
24734WAT     H274445   6.855   2.853   6.207
24735WAT      O74446   2.175   3.249   4.649
24735WAT     H174447   2.179   3.274   4.552
24735WAT     H274448   2.148   3.153   4.657
24736WAT      O74449   0.887   8.589   3.009
24736WAT     H174450   0.859   8.646   2.932
24736WAT     H274451   0.986   8.571   3.003
24737WAT      O74452   2.089   4.718   5.983
24737WAT     H174453   2.172   4.750   5.936
24737WAT     H274454   2.013   4.780   5.963
24738WAT      O74455   4.245   8.990   7.601
24738WAT     H174456   4.278   9.022   7.512
24738WAT     H274457   4.323   8.963   7.658
24739WAT      O74458   5.665   1.506   5.782
24739WAT     H174459   5.651   1.487   5.685
24739WAT     H274460   5.756   1.545   5.796
24740WAT      O74461   7.919   4.672   1.853
24740WAT     H174462   7.903   4.615   1.772
24740WAT     H274463   7.843   4.663   1.917
24741WAT      O74464   3.339   9.560   7.279
24741WAT     H174465   3.431   9.556   7.240
24741WAT     H274466   3.334   9.500   7.359
24742WAT      O74467   0.022   7.617   6.008
24742WAT     H174468   0.010   7.527   6.050
24742WAT     H274469   0.017   7.609   5.909
24743WAT      O74470   5.378   8.903   1.043
24743WAT     H174471   5.457   8.890   1.103
24743WAT     H274472   5.329   8.816   1.034
24744WAT      O74473   6.026   5.913   4.804
24744WAT     H174474   5.926   5.918   4.795
24744WAT     H274475   6.069   5.970   4.734
24745WAT      O74476   3.762   6.001   3.715
24745WAT     H174477   3.750   5.929   3.647
24745WAT     H274478   3.739   5.966   3.806
24746WAT      O74479   1.954   0.532   9.046
24746WAT     H174480   2.048   0.499   9.052
24746WAT     H274481   1.895   0.458   9.013
24747WAT      O74482   4.882   7.642   7.141
24747WAT     H174483   4.892   7.681   7.050
24747WAT     H274484   4.967   7.596   7.167
24748WAT      O74485   5.248   0.729   5.559
24748WAT     H174486   5.220   0.791   5.486
24748WAT     H274487   5.245   0.635   5.526
24749WAT      O74488   2.999   7.934   7.043
24749WAT     H174489   2.992   7.834   7.053
24749WAT     H274490   2.956   7.977   7.122
24750WAT      O74491   6.259   4.908   4.726
24750WAT     H174492   6.227   4.910   4.821
24750WAT     H274493   6.350   4.868   4.722
24751WAT      O74494   1.425   1.349   9.519
24751WAT     H174495   1.372   1.392   9.445
24751WAT     H274496   1.473   1.268   9.483
24752WAT      O74497   2.380   8.918   1.095
24752WAT     H174498   2.315   8.923   1.019
24752WAT     H274499   2.396   9.010   1.131
24753WAT      O74500   8.547   5.243   4.253
24753WAT     H174501   8.522   5.186   4.331
24753WAT     H274502   8.478   5.314   4.239
24754WAT      O74503   3.226   5.913   8.670
24754WAT     H174504   3.246   5.932   8.574
24754WAT     H274505   3.306   5.932   8.726
24755WAT      O74506   6.170   7.273   3.225
24755WAT     H174507   6.214   7.335   3.161
24755WAT     H274508   6.071   7.279   3.215
24756WAT      O74509   5.746   6.798   1.016
24756WAT     H174510   5.786   6.762   1.101
24756WAT     H274511   5.810   6.783   0.941
24757WAT      O74512   1.855   7.234   8.833
24757WAT     H174513   1.834   7.327   8.862
24757WAT     H274514   1.945   7.233   8.788
24758WAT      O74515   0.768   3.144   9.421
24758WAT     H174516   0.673   3.174   9.414
24758WAT     H274517   0.828   3.217   9.386
24759WAT      O74518   3.864   1.549   2.095
24759WAT     H174519   3.932   1.621   2.081
24759WAT     H274520   3.903   1.478   2.154
24760WAT      O74521   2.351   0.159   0.645
24760WAT     H174522   2.264   0.207   0.632
24760WAT     H274523   2.337   0.083   0.709
24761WAT      O74524   1.826   3.196   1.052
24761WAT     H174525   1.738   3.153   1.069
24761WAT     H274526   1.815   3.269   0.985
24762WAT      O74527   9.569   3.397   3.982
24762WAT     H174528   9.497   3.371   4.046
24762WAT     H274529   9.622   3.316   3.956
24763WAT      O74530   9.531   2.780   4.509
24763WAT     H174531   9.472   2.729   4.571
24763WAT     H274532   9.590   2.717   4.459
24764WAT      O74533   8.333   3.219   5.909
24764WAT     H174534   8.249   3.272   5.922
24764WAT     H274535   8.350   3.162   5.990
24765WAT      O74536   6.303   5.765   2.367
24765WAT     H174537   6.271   5.672   2.386
24765WAT     H274538   6.402   5.765   2.356
24766WAT      O74539   7.946   5.855   9.441
24766WAT     H174540   7.953   5.805   9.528
24766WAT     H274541   7.850   5.862   9.414
24767WAT      O74542   9.479   6.449   0.320
24767WAT     H174543   9.393   6.437   0.272
24767WAT     H274544   9.466   6.515   0.395
24768WAT      O74545   1.976   7.940   4.679
24768WAT     H174546   1.913   7.868   4.707
24768WAT     H274547   2.004   7.993   4.760
24769WAT      O74548   8.914   0.854   5.102
24769WAT     H174549   8.953   0.922   5.040
24769WAT     H274550   8.859   0.790   5.050
24770WAT      O74551   0.418   7.355   2.842
24770WAT     H174552   0.402   7.331   2.746
24770WAT     H274553   0.426   7.454   2.851
24771WAT      O74554   9.751   3.813   4.825
24771WAT     H174555   9.736   3.910   4.804
24771WAT     H274556   9.692   3.757   4.767
24772WAT      O74557   9.752   0.312   0.698
24772WAT     H174558   9.808   0.325   0.780
24772WAT     H274559   9.802   0.347   0.618
24773WAT      O74560   4.840   9.621   0.032
24773WAT     H174561   4.898   9.701   0.019
24773WAT     H274562   4.894   9.548   0.075
24774WAT      O74563   0.379   7.202   8.222
24774WAT     H174564   0.450   7.156   8.168
24774WAT     H274565   0.295   7.147   8.221
24775WAT      O74566   2.976   1.084   9.538
24775WAT     H174567   2.980   0.985   9.553
24775WAT     H274568   3.069   1.121   9.541
24776WAT      O74569   0.206   7.801   0.214
24776WAT     H174570   0.123   7.826   0.264
24776WAT     H274571   0.182   7.748   0.133
24777WAT      O74572   0.974   0.377   0.622
24777WAT     H174573   0.912   0.327   0.562
24777WAT     H274574   1.061   0.329   0.629
24778WAT      O74575   2.743   6.530   2.370
24778WAT     H174576   2.705   6.613   2.409
24778WAT     H274577   2.814   6.494   2.430
24779WAT      O74578   2.817   5.840   3.967
24779WAT     H174579   2.826   5.940   3.974
24779WAT     H274580   2.724   5.813   3.992
24780WAT      O74581   2.899   8.497   6.376
24780WAT     H174582   2.800   8.510   6.371
24780WAT     H274583   2.938   8.564   6.439
24781WAT      O74584   5.856   0.764   1.563
24781WAT     H174585   5.887   0.677   1.600
24781WAT     H274586   5.817   0.750   1.472
24782WAT      O74587   3.256   1.423   7.910
24782WAT     H174588   3.271   1.441   7.813
24782WAT     H274589   3.196   1.344   7.921
24783WAT      O74590   1.344   9.392   9.458
24783WAT     H174591   1.392   9.320   9.408
24783WAT     H274592   1.406   9.434   9.524
24784WAT      O74593   7.519   2.285   9.385
24784WAT     H174594   7.511   2.376   9.343
24784WAT     H274595   7.435   2.263   9.434
24785WAT      O74596   7.622   4.443   0.159
24785WAT     H174597   7.637   4.511   0.088
24785WAT     H274598   7.525   4.442   0.184
24786WAT      O74599   7.933   4.774   8.741
24786WAT     H174600   7.896   4.781   8.833
24786WAT     H274601   7.945   4.866   8.702
24787WAT      O74602   3.851   1.533   2.437
24787WAT     H174603   3.911   1.510   2.514
24787WAT     H274604   3.853   1.631   2.421
24788WAT      O74605   5.381   1.412   8.549
24788WAT     H174606   5.356   1.389   8.455
24788WAT     H274607   5.411   1.329   8.596
24789WAT      O74608   4.276   5.193   6.173
24789WAT     H174609   4.263   5.095   6.160
24789WAT     H274610   4.373   5.213   6.184
24790WAT      O74611   8.844   7.546   3.731
24790WAT     H174612   8.918   7.497   3.683
24790WAT     H274613   8.759   7.495   3.721
24791WAT      O74614   1.712   1.297   6.553
24791WAT     H174615   1.682   1.239   6.629
24791WAT     H274616   1.674   1.261   6.467
24792WAT      O74617   5.829   2.979   2.580
24792WAT     H174618   5.910   3.006   2.631
24792WAT     H274619   5.749   3.027   2.616
24793WAT      O74620   1.835   6.303   2.077
24793WAT     H174621   1.795   6.287   1.987
24793WAT     H274622   1.808   6.230   2.139
24794WAT      O74623   6.420   9.432   6.261
24794WAT     H174624   6.372   9.376   6.328
24794WAT     H274625   6.416   9.528   6.289
24795WAT      O74626   1.114   4.709   2.319
24795WAT     H174627   1.154   4.728   2.408
24795WAT     H274628   1.138   4.616   2.291
24796WAT      O74629   4.531   7.961   3.131
24796WAT     H174630   4.497   7.871   3.103
24796WAT     H274631   4.598   7.951   3.204
24797WAT      O74632   4.198   6.087   4.079
24797WAT     H174633   4.204   5.988   4.061
24797WAT     H274634   4.178   6.135   3.994
24798WAT      O74635   8.624   6.820   7.431
24798WAT     H174636   8.602   6.917   7.426
24798WAT     H274637   8.618   6.779   7.340
24799WAT      O74638   9.534   5.281   1.615
24799WAT     H174639   9.585   5.303   1.532
24799WAT     H274640   9.526   5.363   1.672
24800WAT      O74641   6.808   6.670   8.796
24800WAT     H174642   6.834   6.710   8.884
24800WAT     H274643   6.822   6.737   8.723
24801WAT      O74644   0.583   7.761   1.925
24801WAT     H174645   0.504   7.701   1.941
24801WAT     H274646   0.664   7.722   1.969
24802WAT      O74647   5.877   7.047   3.029
24802WAT     H174648   5.827   6.960   3.028
24802WAT     H274649   5.956   7.040   2.968
24803WAT      O74650   8.422   5.093   7.089
24803WAT     H174651   8.417   5.029   7.166
24803WAT     H274652   8.446   5.184   7.123
24804WAT      O74653   3.932   7.521   2.611
24804WAT     H174654   3.887   7.534   2.699
24804WAT     H274655   4.013   7.579   2.607
24805WAT      O74656   3.033   7.671   6.518
24805WAT     H174657   2.968   7.613   6.567
24805WAT     H274658   3.031   7.763   6.556
24806WAT      O74659   0.981   6.206   1.034
24806WAT     H174660   1.027   6.256   0.961
24806WAT     H274661   1.008   6.110   1.030
24807WAT      O74662   9.202   7.949   1.812
24807WAT     H174663   9.260   7.903   1.745
24807WAT     H274664   9.106   7.925   1.795
24808WAT      O74665   9.767   6.698   1.453
24808WAT     H174666   9.761   6.796   1.475
24808WAT     H274667   9.836   6.684   1.383
24809WAT      O74668   4.429   4.366   0.166
24809WAT     H174669   4.390   4.441   0.219
24809WAT     H274670   4.447   4.396   0.073
24810WAT      O74671   1.059   0.891   5.515
24810WAT     H174672   1.114   0.961   5.470
24810WAT     H274673   1.110   0.805   5.519
24811WAT      O74674   7.185   8.899   6.824
24811WAT     H174675   7.158   8.989   6.860
24811WAT     H274676   7.105   8.842   6.814
24812WAT      O74677   5.174   7.843   3.819
24812WAT     H174678   5.138   7.804   3.734
24812WAT     H274679   5.245   7.911   3.798
24813WAT      O74680   9.247   4.104   2.673
24813WAT     H174681   9.202   4.120   2.585
24813WAT     H274682   9.189   4.045   2.730
24814WAT      O74683   4.607   2.060   1.868
24814WAT     H174684   4.634   2.095   1.778
24814WAT     H274685   4.513   2.026   1.863
24815WAT      O74686   9.498   1.261   9.880
24815WAT     H174687   9.525   1.199   9.953
24815WAT     H274688   9.531   1.226   9.792
24816WAT      O74689   5.406   8.459   1.286
24816WAT     H174690   5.478   8.391   1.299
24816WAT     H274691   5.317   8.417   1.308
24817WAT      O74692   9.348   4.301   0.883
24817WAT     H174693   9.280   4.367   0.850
24817WAT     H274694   9.348   4.220   0.824
24818WAT      O74695   5.313   5.086   4.470
24818WAT     H174696   5.237   5.047   4.522
24818WAT     H274697   5.281   5.165   4.419
24819WAT      O74698   9.626   3.608   2.647
24819WAT     H174699   9.694   3.612   2.573
24819WAT     H274700   9.540   3.571   2.612
24820WAT      O74701   7.813   3.428   5.406
24820WAT     H174702   7.910   3.405   5.401
24820WAT     H274703   7.793   3.504   5.344
24821WAT      O74704   9.269   0.871   5.578
24821WAT     H174705   9.368   0.877   5.585
24821WAT     H274706   9.238   0.781   5.608
24822WAT      O74707   8.057   3.550   5.002
24822WAT     H174708   7.977   3.510   5.047
24822WAT     H274709   8.140   3.510   5.040
24823WAT      O74710   8.801   8.203   6.888
24823WAT     H174711   8.760   8.116   6.917
24823WAT     H274712   8.899   8.201   6.909
24824WAT      O74713   6.268   4.060   8.030
24824WAT     H174714   6.224   4.050   7.941
24824WAT     H274715   6.243   4.148   8.070
24825WAT      O74716   0.377   8.724   4.543
24825WAT     H174717   0.388   8.782   4.462
24825WAT     H274718   0.374   8.781   4.625
24826WAT      O74719   6.701   2.538   7.767
24826WAT     H174720   6.684   2.628   7.727
24826WAT     H274721   6.792   2.537   7.809
24827WAT      O74722   6.890   4.112   3.299
24827WAT     H174723   6.873   4.087   3.203
24827WAT     H274724   6.984   4.088   3.323
24828WAT      O74725   0.311   7.326   1.910
24828WAT     H174726   0.248   7.402   1.924
24828WAT     H274727   0.260   7.245   1.882
24829WAT      O74728   8.878   4.373   2.525
24829WAT     H174729   8.862   4.371   2.624
24829WAT     H274730   8.918   4.462   2.500
24830WAT      O74731   9.836   6.193   3.519
24830WAT     H174732   9.792   6.267   3.571
24830WAT     H274733   9.820   6.106   3.566
24831WAT      O74734   7.871   4.909   3.673
24831WAT     H174735   7.966   4.902   3.705
24831WAT     H274736   7.860   4.991   3.617
24832WAT      O74737   4.974   4.512   8.463
24832WAT     H174738   4.917   4.529   8.543
24832WAT     H274739   4.937   4.561   8.385
24833WAT      O74740   5.865   3.955   0.643
24833WAT     H174741   5.962   3.961   0.664
24833WAT     H274742   5.827   4.047   0.634
24834WAT      O74743   8.761   4.470   9.166
24834WAT     H174744   8.860   4.459   9.177
24834WAT     H274745   8.722   4.508   9.250
24835WAT      O74746   6.209   7.643   9.418
24835WAT     H174747   6.112   7.666   9.417
24835WAT     H274748   6.232   7.600   9.506
24836WAT      O74749   0.727   3.126   2.629
24836WAT     H174750   0.748   3.035   2.665
24836WAT     H274751   0.656   3.118   2.559
24837WAT      O74752   0.896   4.305   6.213
24837WAT     H174753   0.809   4.326   6.257
24837WAT     H274754   0.900   4.350   6.123
24838WAT      O74755   1.278   3.781   2.367
24838WAT     H174756   1.279   3.771   2.268
24838WAT     H274757   1.371   3.768   2.403
24839WAT      O74758   6.940   5.951   3.162
24839WAT     H174759   6.987   5.998   3.088
24839WAT     H274760   6.958   5.852   3.156
24840WAT      O74761   0.697   8.556   6.356
24840WAT     H174762   0.643   8.625   6.405
24840WAT     H274763   0.775   8.529   6.413
24841WAT      O74764   3.764   3.282   2.613
24841WAT     H174765   3.697   3.319   2.549
24841WAT     H274766   3.834   3.231   2.562
24842WAT      O74767   1.900   5.553   0.250
24842WAT     H174768   1.854   5.568   0.162
24842WAT     H274769   1.849   5.485   0.303
24843WAT      O74770   2.080   4.264   0.216
24843WAT     H174771   2.058   4.290   0.310
24843WAT     H274772   2.016   4.307   0.153
24844WAT      O74773   7.481   1.060   5.446
24844WAT     H174774   7.511   1.152   5.470
24844WAT     H274775   7.463   1.054   5.348
24845WAT      O74776   7.362   6.984   4.133
24845WAT     H174777   7.430   6.993   4.206
24845WAT     H274778   7.349   7.072   4.088
24846WAT      O74779   1.118   5.042   1.031
24846WAT     H174780   1.212   5.073   1.017
24846WAT     H274781   1.117   4.972   1.103
24847WAT      O74782   7.207   8.272   1.728
24847WAT     H174783   7.216   8.327   1.810
24847WAT     H274784   7.122   8.296   1.681
24848WAT      O74785   9.623   8.065   9.882
24848WAT     H174786   9.634   7.970   9.855
24848WAT     H274787   9.608   8.122   9.802
24849WAT      O74788   9.176   8.635   5.251
24849WAT     H174789   9.253   8.675   5.301
24849WAT     H274790   9.106   8.705   5.236
24850WAT      O74791   1.006   4.625   1.999
24850WAT     H174792   0.995   4.702   2.062
24850WAT     H274793   1.006   4.659   1.905
24851WAT      O74794   1.251   9.031   3.836
24851WAT     H174795   1.293   9.008   3.748
24851WAT     H274796   1.233   8.947   3.888
24852WAT      O74797   3.674   8.935   9.794
24852WAT     H174798   3.598   8.905   9.852
24852WAT     H274799   3.714   9.019   9.831
24853WAT      O74800   7.737   2.563   4.593
24853WAT     H174801   7.686   2.647   4.616
24853WAT     H274802   7.834   2.579   4.608
24854WAT      O74803   4.394   2.770   2.041
24854WAT     H174804   4.474   2.738   1.990
24854WAT     H274805   4.311   2.746   1.990
24855WAT      O74806   3.884   2.951   7.216
24855WAT     H174807   3.900   3.043   7.251
24855WAT     H274808   3.916   2.883   7.282
24856WAT      O74809   6.144   2.145   0.400
24856WAT     H174810   6.175   2.058   0.360
24856WAT     H274811   6.186   2.158   0.490
24857WAT      O74812   9.531   5.461   6.673
24857WAT     H174813   9.533   5.559   6.690
24857WAT     H274814   9.566   5.412   6.754
24858WAT      O74815   8.784   1.768   8.857
24858WAT     H174816   8.819   1.764   8.763
24858WAT     H274817   8.714   1.840   8.863
24859WAT      O74818   5.077   7.204   3.512
24859WAT     H174819   5.172   7.186   3.486
24859WAT     H274820   5.073   7.284   3.572
24860WAT      O74821   2.140   2.645   0.700
24860WAT     H174822   2.074   2.619   0.629
24860WAT     H274823   2.215   2.580   0.702
24861WAT      O74824   6.405   3.605   0.324
24861WAT     H174825   6.381   3.527   0.267
24861WAT     H274826   6.366   3.688   0.285
24862WAT      O74827   3.762   9.555   4.035
24862WAT     H174828   3.827   9.558   3.960
24862WAT     H274829   3.810   9.537   4.121
24863WAT      O74830   9.522   0.346   7.125
24863WAT     H174831   9.424   0.336   7.140
24863WAT     H274832   9.570   0.269   7.168
24864WAT      O74833   5.944   3.468   7.328
24864WAT     H174834   5.874   3.508   7.269
24864WAT     H274835   6.030   3.462   7.278
24865WAT      O74836   8.684   1.017   6.249
24865WAT     H174837   8.668   1.116   6.254
24865WAT     H274838   8.598   0.969   6.263
24866WAT      O74839   4.024   4.038   2.413
24866WAT     H174840   3.955   4.044   2.340
24866WAT     H274841   3.985   4.073   2.498
24867WAT      O74842   8.034   7.895   4.597
24867WAT     H174843   8.097   7.967   4.568
24867WAT     H274844   7.967   7.933   4.660
24868WAT      O74845   7.405   3.519   3.002
24868WAT     H174846   7.381   3.480   3.090
24868WAT     H274847   7.343   3.484   2.931
24869WAT      O74848   2.251   7.179   3.262
24869WAT     H174849   2.276   7.119   3.186
24869WAT     H274850   2.185   7.132   3.321
24870WAT      O74851   9.224   7.592   3.100
24870WAT     H174852   9.316   7.607   3.062
24870WAT     H274853   9.176   7.680   3.107
24871WAT      O74854   5.373   0.818   8.665
24871WAT     H174855   5.275   0.797   8.670
24871WAT     H274856   5.421   0.769   8.738
24872WAT      O74857   5.768   7.197   0.530
24872WAT     H174858   5.862   7.228   0.518
24872WAT     H274859   5.717   7.211   0.445
24873WAT      O74860   2.838   7.970   9.290
24873WAT     H174861   2.804   7.981   9.384
24873WAT     H274862   2.932   8.003   9.284
24874WAT      O74863   6.302   6.214   8.704
24874WAT     H174864   6.293   6.142   8.774
24874WAT     H274865   6.239   6.195   8.629
24875WAT      O74866   7.809   3.393   5.064
24875WAT     H174867   7.835   3.319   5.127
24875WAT     H274868   7.797   3.355   4.972
24876WAT      O74869   1.902   1.263   4.110
24876WAT     H174870   1.939   1.235   4.021
24876WAT     H274871   1.820   1.317   4.096
24877WAT      O74872   2.834   6.957   4.998
24877WAT     H174873   2.857   7.030   5.062
24877WAT     H274874   2.820   6.996   4.906
24878WAT      O74875   0.390   4.926   7.870
24878WAT     H174876   0.381   4.897   7.774
24878WAT     H274877   0.453   4.863   7.917
24879WAT      O74878   6.260   7.174   4.871
24879WAT     H174879   6.181   7.119   4.900
24879WAT     H274880   6.268   7.171   4.771
24880WAT      O74881   7.339   4.992   6.544
24880WAT     H174882   7.295   4.924   6.486
24880WAT     H274883   7.342   5.080   6.497
24881WAT      O74884   3.634   2.532   6.528
24881WAT     H174885   3.700   2.563   6.459
24881WAT     H274886   3.675   2.539   6.619
24882WAT      O74887   0.620   9.199   6.126
24882WAT     H174888   0.664   9.119   6.086
24882WAT     H274889   0.691   9.265   6.154
24883WAT      O74890   9.593   2.323   8.170
24883WAT     H174891   9.614   2.284   8.260
24883WAT     H274892   9.559   2.251   8.110
24884WAT      O74893   5.510   2.067   3.297
24884WAT     H174894   5.550   2.142   3.245
24884WAT     H274895   5.534   2.077   3.394
24885WAT      O74896   6.617   3.455   7.594
24885WAT     H174897   6.534   3.477   7.543
24885WAT     H274898   6.619   3.357   7.614
24886WAT      O74899   0.741   0.373   2.811
24886WAT     H174900   0.804   0.309   2.856
24886WAT     H274901   0.792   0.450   2.774
24887WAT      O74902   7.472   8.486   5.496
24887WAT     H174903   7.430   8.473   5.586
24887WAT     H274904   7.405   8.465   5.424
24888WAT      O74905   7.717   9.820   7.646
24888WAT     H174906   7.643   9.883   7.667
24888WAT     H274907   7.682   9.726   7.647
24889WAT      O74908   7.357   1.114   2.593
24889WAT     H174909   7.431   1.068   2.642
24889WAT     H274910   7.325   1.055   2.518
24890WAT      O74911   1.235   2.161   8.295
24890WAT     H174912   1.196   2.115   8.375
24890WAT     H274913   1.281   2.245   8.324
24891WAT      O74914   8.575   4.510   2.822
24891WAT     H174915   8.627   4.594   2.838
24891WAT     H274916   8.586   4.482   2.726
24892WAT      O74917   0.785   1.853   5.144
24892WAT     H174918   0.778   1.889   5.051
24892WAT     H274919   0.747   1.920   5.208
24893WAT      O74920   6.208   3.677   7.777
24893WAT     H174921   6.140   3.727   7.830
24893WAT     H274922   6.182   3.679   7.680
24894WAT      O74923   2.262   6.240   8.562
24894WAT     H174924   2.311   6.194   8.636
24894WAT     H274925   2.191   6.180   8.527
24895WAT      O74926   6.901   7.616   7.808
24895WAT     H174927   6.931   7.536   7.756
24895WAT     H274928   6.867   7.588   7.897
24896WAT      O74929   2.404   5.478   7.944
24896WAT     H174930   2.495   5.455   7.909
24896WAT     H274931   2.353   5.528   7.874
24897WAT      O74932   5.155   8.142   5.364
24897WAT     H174933   5.145   8.239   5.343
24897WAT     H274934   5.065   8.103   5.386
24898WAT      O74935   7.001   6.129   9.772
24898WAT     H174936   6.951   6.078   9.701
24898WAT     H274937   6.970   6.224   9.773
24899WAT      O74938   9.097   9.128   9.333
24899WAT     H174939   9.103   9.058   9.262
24899WAT     H274940   9.021   9.190   9.312
24900WAT      O74941   0.405   4.257   4.419
24900WAT     H174942   0.438   4.164   4.406
24900WAT     H274943   0.438   4.292   4.507
24901WAT      O74944   4.077   0.024   6.920
24901WAT     H174945   4.101  -0.073   6.919
24901WAT     H274946   4.093   0.062   7.012
24902WAT      O74947   3.530   9.082   7.992
24902WAT     H174948   3.537   8.985   8.013
24902WAT     H274949   3.621   9.120   7.976
24903WAT      O74950   7.485   1.404   1.182
24903WAT     H174951   7.484   1.427   1.085
24903WAT     H274952   7.506   1.307   1.193
24904WAT      O74953   4.730   8.252   5.633
24904WAT     H174954   4.806   8.281   5.575
24904WAT     H274955   4.671   8.189   5.582
24905WAT      O74956   5.428   6.166   3.938
24905WAT     H174957   5.486   6.138   3.861
24905WAT     H274958   5.354   6.225   3.903
24906WAT      O74959   1.642   9.427   8.495
24906WAT     H174960   1.681   9.439   8.404
24906WAT     H274961   1.605   9.514   8.528
24907WAT      O74962   7.841   0.262   5.523
24907WAT     H174963   7.755   0.309   5.502
24907WAT     H274964   7.831   0.210   5.607
24908WAT      O74965   9.838   1.063   7.705
24908WAT     H174966   9.853   0.983   7.647
24908WAT     H274967   9.900   1.136   7.677
24909WAT      O74968   1.114   7.565   9.854
24909WAT     H174969   1.065   7.538   9.937
24909WAT     H274970   1.049   7.580   9.780
24910WAT      O74971   9.667   9.530   4.208
24910WAT     H174972   9.695   9.590   4.283
24910WAT     H274973   9.702   9.438   4.225
24911WAT      O74974   8.480   0.717   4.327
24911WAT     H174975   8.394   0.752   4.291
24911WAT     H274976   8.541   0.793   4.349
24912WAT      O74977   5.383   3.099   1.045
24912WAT     H174978   5.422   3.077   1.134
24912WAT     H274979   5.450   3.078   0.973
24913WAT      O74980   2.968   3.820   5.514
24913WAT     H174981   2.977   3.721   5.515
24913WAT     H274982   3.040   3.859   5.456
24914WAT      O74983   5.012   1.203   1.796
24914WAT     H174984   5.017   1.227   1.699
24914WAT     H274985   4.984   1.283   1.848
24915WAT      O74986   6.122   8.808   0.031
24915WAT     H174987   6.165   8.886  -0.015
24915WAT     H274988   6.149   8.808   0.128
24916WAT      O74989   0.454   0.290   0.954
24916WAT     H174990   0.450   0.234   0.871
24916WAT     H274991   0.507   0.243   1.024
24917WAT      O74992   7.439   7.537   1.863
24917WAT     H174993   7.355   7.542   1.808
24917WAT     H274994   7.433   7.457   1.923
24918WAT      O74995   5.166   5.968   3.406
24918WAT     H174996   5.175   6.030   3.328
24918WAT     H274997   5.211   6.008   3.486
24919WAT      O74998   7.196   8.860   7.994
24919WAT     H174999   7.146   8.924   7.936
24919WAT     H275000   7.149   8.853   8.083
24920WAT      O75001   0.200   5.379   9.651
24920WAT     H175002   0.203   5.299   9.592
24920WAT     H275003   0.185   5.350   9.746
24921WAT      O75004   7.271   5.836   0.615
24921WAT     H175005   7.302   5.762   0.556
24921WAT     H275006   7.213   5.899   0.562
24922WAT      O75007   8.823   2.800   4.529
24922WAT     H175008   8.851   2.755   4.444
24922WAT     H275009   8.882   2.879   4.547
24923WAT      O75010   8.474   1.404   5.459
24923WAT     H175011   8.439   1.494   5.431
24923WAT     H275012   8.547   1.376   5.396
24924WAT      O75013   7.657   1.201   8.536
24924WAT     H175014   7.730   1.266   8.516
24924WAT     H275015   7.664   1.171   8.631
24925WAT      O75016   3.918   3.981   5.042
24925WAT     H175017   3.873   3.892   5.048
24925WAT     H275018   4.017   3.968   5.034
24926WAT      O75019   4.787   5.338   4.443
24926WAT     H175020   4.827   5.395   4.515
24926WAT     H275021   4.791   5.386   4.355
24927WAT      O75022   3.954   6.641   3.833
24927WAT     H175023   4.008   6.646   3.918
24927WAT     H275024   3.947   6.733   3.793
24928WAT      O75025   6.948   5.078   5.153
24928WAT     H175026   7.009   5.032   5.218
24928WAT     H275027   6.986   5.073   5.061
24929WAT      O75028   5.768   4.244   4.819
24929WAT     H175029   5.745   4.334   4.854
24929WAT     H275030   5.857   4.247   4.774
24930WAT      O75031   5.224   5.725   1.748
24930WAT     H175032   5.195   5.811   1.706
24930WAT     H275033   5.144   5.676   1.782
24931WAT      O75034   9.351   0.100   4.418
24931WAT     H175035   9.333   0.005   4.392
24931WAT     H275036   9.339   0.110   4.517
24932WAT      O75037   1.667   7.481   0.932
24932WAT     H175038   1.696   7.385   0.930
24932WAT     H275039   1.664   7.513   1.026
24933WAT      O75040   7.950   6.002   0.090
24933WAT     H175041   7.960   6.101   0.100
24933WAT     H275042   7.900   5.982   0.006
24934WAT      O75043   4.338   5.533   9.151
24934WAT     H175044   4.245   5.570   9.151
24934WAT     H275045   4.386   5.562   9.234
24935WAT      O75046   5.848   6.991   9.030
24935WAT     H175047   5.806   7.076   8.998
24935WAT     H275048   5.924   6.967   8.969
24936WAT      O75049   8.629   0.834   0.497
24936WAT     H175050   8.578   0.749   0.482
24936WAT     H275051   8.700   0.818   0.566
24937WAT      O75052   5.636   0.355   6.161
24937WAT     H175053   5.721   0.313   6.194
24937WAT     H275054   5.649   0.384   6.066
24938WAT      O75055   4.184   5.068   3.800
24938WAT     H175056   4.281   5.078   3.822
24938WAT     H275057   4.174   5.003   3.725
24939WAT      O75058   0.227   3.542   9.771
24939WAT     H175059   0.169   3.543   9.852
24939WAT     H275060   0.179   3.497   9.695
24940WAT      O75061   3.324   8.968   6.849
24940WAT     H175062   3.235   8.987   6.890
24940WAT     H275063   3.316   8.969   6.749
24941WAT      O75064   6.303   0.206   6.140
24941WAT     H175065   6.351   0.248   6.064
24941WAT     H275066   6.364   0.199   6.219
24942WAT      O75067   7.123   4.436   7.971
24942WAT     H175068   7.170   4.394   7.893
24942WAT     H275069   7.183   4.433   8.051
24943WAT      O75070   3.151   6.734   3.620
24943WAT     H175071   3.100   6.746   3.705
24943WAT     H275072   3.197   6.645   3.621
24944WAT      O75073   4.608   5.977   7.985
24944WAT     H175074   4.550   6.017   7.915
24944WAT     H275075   4.564   5.894   8.021
24945WAT      O75076   9.433   6.217   6.205
24945WAT     H175077   9.479   6.200   6.118
24945WAT     H275078   9.336   6.194   6.197
24946WAT      O75079   5.841   8.036   5.975
24946WAT     H175080   5.887   7.953   5.942
24946WAT     H275081   5.751   8.042   5.933
24947WAT      O75082   3.916   2.604   9.402
24947WAT     H175083   3.948   2.519   9.360
24947WAT     H275084   3.966   2.620   9.487
24948WAT      O75085   4.912   3.198   2.169
24948WAT     H175086   4.976   3.124   2.192
24948WAT     H275087   4.893   3.253   2.250
24949WAT      O75088   7.268   9.122   9.559
24949WAT     H175089   7.353   9.070   9.570
24949WAT     H275090   7.287   9.220   9.566
24950WAT      O75091   6.278   6.700   3.039
24950WAT     H175092   6.334   6.681   2.958
24950WAT     H275093   6.183   6.714   3.012
24951WAT      O75094   5.254   6.842   6.456
24951WAT     H175095   5.287   6.917   6.512
24951WAT     H275096   5.154   6.836   6.464
24952WAT      O75097   9.220   3.584   6.331
24952WAT     H175098   9.193   3.671   6.372
24952WAT     H275099   9.139   3.533   6.304
24953WAT      O75100   9.810   7.455   7.201
24953WAT     H175101   9.714   7.432   7.220
24953WAT     H275102   9.870   7.401   7.259
24954WAT      O75103   7.365   4.728   8.231
24954WAT     H175104   7.380   4.814   8.281
24954WAT     H275105   7.276   4.690   8.256
24955WAT      O75106   3.447   0.253   4.206
24955WAT     H175107   3.386   0.178   4.178
24955WAT     H275108   3.518   0.264   4.137
24956WAT      O75109   0.596   7.280   6.076
24956WAT     H175110   0.626   7.269   6.170
24956WAT     H275111   0.538   7.203   6.049
24957WAT      O75112   0.802   0.584   3.655
24957WAT     H175113   0.893   0.598   3.618
24957WAT     H275114   0.734   0.622   3.593
24958WAT      O75115   8.713   3.325   3.888
24958WAT     H175116   8.616   3.339   3.868
24958WAT     H275117   8.722   3.268   3.970
24959WAT      O75118   5.578   5.844   4.174
24959WAT     H175119   5.646   5.905   4.215
24959WAT     H275120   5.619   5.794   4.098
24960WAT      O75121   6.761   5.883   4.644
24960WAT     H175122   6.823   5.825   4.696
24960WAT     H275123   6.798   5.896   4.551
24961WAT      O75124   6.413   2.741   8.598
24961WAT     H175125   6.475   2.792   8.539
24961WAT     H275126   6.337   2.800   8.625
24962WAT      O75127   2.918   1.077   4.510
24962WAT     H175128   2.826   1.047   4.536
24962WAT     H275129   2.932   1.172   4.540
24963WAT      O75130   3.501   7.600   0.652
24963WAT     H175131   3.434   7.529   0.671
24963WAT     H275132   3.490   7.633   0.559
24964WAT      O75133   8.634   8.726   1.083
24964WAT     H175134   8.679   8.813   1.101
24964WAT     H275135   8.562   8.739   1.015
24965WAT      O75136   5.930   6.815   2.686
24965WAT     H175137   5.964   6.750   2.618
24965WAT     H275138   5.866   6.879   2.644
24966WAT      O75139   7.972   6.427   0.965
24966WAT     H175140   7.915   6.361   1.014
24966WAT     H275141   7.917   6.507   0.941
24967WAT      O75142   7.434   0.235   7.242
24967WAT     H175143   7.429   0.324   7.287
24967WAT     H275144   7.377   0.236   7.160
24968WAT      O75145   4.151   0.311   3.759
24968WAT     H175146   4.062   0.289   3.720
24968WAT     H275147   4.220   0.311   3.686
24969WAT      O75148   7.958   4.027   3.845
24969WAT     H175149   8.042   4.073   3.874
24969WAT     H275150   7.879   4.077   3.882
24970WAT      O75151   9.715   5.474   9.843
24970WAT     H175152   9.739   5.526   9.762
24970WAT     H275153   9.734   5.377   9.828
24971WAT      O75154   2.746   4.294   4.309
24971WAT     H175155   2.757   4.283   4.408
24971WAT     H275156   2.834   4.282   4.264
24972WAT      O75157   7.265   8.673   6.181
24972WAT     H175158   7.245   8.680   6.084
24972WAT     H275159   7.244   8.581   6.213
24973WAT      O75160   4.351   4.047   9.369
24973WAT     H175161   4.364   4.037   9.270
24973WAT     H275162   4.302   3.967   9.404
24974WAT      O75163   9.011   5.241   4.894
24974WAT     H175164   9.054   5.230   4.984
24974WAT     H275165   9.064   5.306   4.839
24975WAT      O75166   2.357   8.446   2.852
24975WAT     H175167   2.451   8.428   2.881
24975WAT     H275168   2.358   8.484   2.760
24976WAT      O75169   3.085   6.385   1.349
24976WAT     H175170   3.035   6.311   1.393
24976WAT     H275171   3.182   6.376   1.370
24977WAT      O75172   9.784   1.647   1.844
24977WAT     H175173   9.840   1.598   1.910
24977WAT     H275174   9.700   1.596   1.826
24978WAT      O75175   3.077   3.719   4.006
24978WAT     H175176   3.097   3.784   4.079
24978WAT     H275177   2.982   3.728   3.978
24979WAT      O75178   1.598   8.503   8.076
24979WAT     H175179   1.544   8.422   8.052
24979WAT     H275180   1.682   8.504   8.021
24980WAT      O75181   6.474   8.950   4.291
24980WAT     H175182   6.566   8.983   4.270
24980WAT     H275183   6.467   8.853   4.266
24981WAT      O75184   3.172   3.019   7.619
24981WAT     H175185   3.199   3.105   7.661
24981WAT     H275186   3.101   2.975   7.675
24982WAT      O75187   4.148   7.669   2.641
24982WAT     H175188   4.109   7.745   2.692
24982WAT     H275189   4.201   7.611   2.702
24983WAT      O75190   7.021   6.843   7.839
24983WAT     H175191   7.046   6.755   7.879
24983WAT     H275192   7.095   6.909   7.855
24984WAT      O75193   3.889   7.950   9.229
24984WAT     H175194   3.825   7.887   9.186
24984WAT     H275195   3.969   7.963   9.170
24985WAT      O75196   6.360   0.023   3.930
24985WAT     H175197   6.343  -0.076   3.932
24985WAT     H275198   6.277   0.072   3.956
24986WAT      O75199   9.118   3.508   9.806
24986WAT     H175200   9.094   3.433   9.745
24986WAT     H275201   9.036   3.537   9.856
24987WAT      O75202   1.380   1.253   6.099
24987WAT     H175203   1.318   1.188   6.143
24987WAT     H275204   1.417   1.316   6.167
24988WAT      O75205   5.883   9.038   2.237
24988WAT     H175206   5.792   9.070   2.262
24988WAT     H275207   5.923   8.987   2.313
24989WAT      O75208   5.979   8.127   7.589
24989WAT     H175209   6.052   8.157   7.650
24989WAT     H275210   6.018   8.083   7.508
24990WAT      O75211   0.478   1.267   8.121
24990WAT     H175212   0.457   1.208   8.044
24990WAT     H275213   0.422   1.350   8.117
24991WAT      O75214   2.759   7.412   4.001
24991WAT     H175215   2.765   7.478   4.075
24991WAT     H275216   2.839   7.423   3.941
24992WAT      O75217   3.944   5.448   0.114
24992WAT     H175218   3.965   5.544   0.097
24992WAT     H275219   3.856   5.440   0.160
24993WAT      O75220   5.514   7.093   5.671
24993WAT     H175221   5.541   6.998   5.684
24993WAT     H275222   5.518   7.115   5.573
24994WAT      O75223   0.293   0.776   1.005
24994WAT     H175224   0.300   0.867   0.963
24994WAT     H275225   0.320   0.781   1.101
24995WAT      O75226   0.905   1.167   2.379
24995WAT     H175227   0.922   1.167   2.477
24995WAT     H275228   0.992   1.163   2.330
24996WAT      O75229   8.009   1.459   7.627
24996WAT     H175230   7.917   1.441   7.661
24996WAT     H275231   8.017   1.555   7.601
24997WAT      O75232   6.147   4.145   5.560
24997WAT     H175233   6.138   4.058   5.512
24997WAT     H275234   6.200   4.131   5.644
24998WAT      O75235   0.097   0.742   2.553
24998WAT     H175236   0.019   0.797   2.524
24998WAT     H275237   0.080   0.646   2.531
24999WAT      O75238   3.916   7.873   7.540
24999WAT     H175239   3.899   7.941   7.612
24999WAT     H275240   3.909   7.917   7.450
25000WAT      O75241   7.875   8.562   1.448
25000WAT     H175242   7.883   8.575   1.547
25000WAT     H275243   7.852   8.650   1.405
25001WAT      O75244   2.568   1.422   2.702
25001WAT     H175245   2.565   1.387   2.609
25001WAT     H275246   2.630   1.366   2.757
25002WAT      O75247   8.241   4.970   6.897
25002WAT     H175248   8.312   5.005   6.957
25002WAT     H275249   8.268   4.881   6.861
25003WAT      O75250   5.760   3.300   2.173
25003WAT     H175251   5.850   3.316   2.212
25003WAT     H275252   5.728   3.384   2.128
25004WAT      O75253   2.580   2.127   4.297
25004WAT     H175254   2.499   2.100   4.349
25004WAT     H275255   2.654   2.150   4.360
25005WAT      O75256   0.026   7.790   3.460
25005WAT     H175257  -0.018   7.703   3.435
25005WAT     H275258  -0.027   7.866   3.422
25006WAT      O75259   1.830   1.343   9.706
25006WAT     H175260   1.822   1.276   9.633
25006WAT     H275261   1.851   1.433   9.667
25007WAT      O75262   3.623   3.935   0.671
25007WAT     H175263   3.630   3.835   0.672
25007WAT     H275264   3.683   3.972   0.601
25008WAT      O75265   0.189   2.067   2.176
25008WAT     H175266   0.106   2.100   2.131
25008WAT     H275267   0.196   1.968   2.164
25009WAT      O75268   6.615   4.034   7.021
25009WAT     H175269   6.616   3.996   6.929
25009WAT     H275270   6.561   4.119   7.022
25010WAT      O75271   7.320   2.483   0.266
25010WAT     H175272   7.334   2.412   0.198
25010WAT     H275273   7.281   2.564   0.223
25011WAT      O75274   1.380   7.453   8.582
25011WAT     H175275   1.303   7.497   8.629
25011WAT     H275276   1.454   7.437   8.647
25012WAT      O75277   8.321   2.193   0.020
25012WAT     H175278   8.350   2.261   0.088
25012WAT     H275279   8.224   2.208  -0.002
25013WAT      O75280   3.510   6.399   1.158
25013WAT     H175281   3.434   6.374   1.096
25013WAT     H275282   3.580   6.328   1.153
25014WAT      O75283   2.138   8.416   1.510
25014WAT     H175284   2.095   8.450   1.594
25014WAT     H275285   2.137   8.316   1.511
25015WAT      O75286   1.492   1.494   2.633
25015WAT     H175287   1.415   1.523   2.690
25015WAT     H275288   1.565   1.459   2.692
25016WAT      O75289   2.864   6.342   1.674
25016WAT     H175290   2.883   6.292   1.589
25016WAT     H275291   2.768   6.370   1.674
25017WAT      O75292   2.570   2.376   1.078
25017WAT     H175293   2.618   2.448   1.027
25017WAT     H275294   2.487   2.350   1.029
25018WAT      O75295   1.544   1.365   4.701
25018WAT     H175296   1.636   1.385   4.666
25018WAT     H275297   1.490   1.319   4.630
25019WAT      O75298   9.510   7.146   7.323
25019WAT     H175299   9.551   7.059   7.296
25019WAT     H275300   9.466   7.136   7.412
25020WAT      O75301   4.157   8.463   8.939
25020WAT     H175302   4.229   8.446   8.872
25020WAT     H275303   4.187   8.535   9.002
25021WAT      O75304   7.490   9.123   4.597
25021WAT     H175305   7.431   9.169   4.663
25021WAT     H275306   7.434   9.070   4.533
25022WAT      O75307   2.739   9.707   9.596
25022WAT     H175308   2.737   9.607   9.602
25022WAT     H275309   2.720   9.746   9.687
25023WAT      O75310   4.151   0.326   5.443
25023WAT     H175311   4.164   0.230   5.420
25023WAT     H275312   4.238   0.375   5.430
25024WAT      O75313   2.687   1.398   4.922
25024WAT     H175314   2.745   1.334   4.871
25024WAT     H275315   2.642   1.350   4.997
25025WAT      O75316   6.259   5.879   3.357
25025WAT     H175317   6.336   5.913   3.305
25025WAT     H275318   6.240   5.784   3.332
25026WAT      O75319   4.967   5.373   3.481
25026WAT     H175320   4.880   5.413   3.452
25026WAT     H275321   5.042   5.424   3.439
25027WAT      O75322   2.910   9.834   8.235
25027WAT     H175323   2.880   9.798   8.324
25027WAT     H275324   2.904   9.934   8.235
25028WAT      O75325   7.659   6.373   0.918
25028WAT     H175326   7.571   6.377   0.870
25028WAT     H275327   7.687   6.465   0.945
25029WAT      O75328   7.896   5.029   8.629
25029WAT     H175329   7.830   4.976   8.574
25029WAT     H275330   7.984   5.031   8.582
25030WAT      O75331   3.156   4.077   7.759
25030WAT     H175332   3.092   4.091   7.834
25030WAT     H275333   3.106   4.062   7.674
25031WAT      O75334   7.268   5.942   1.450
25031WAT     H175335   7.237   5.961   1.357
25031WAT     H275336   7.360   5.903   1.447
25032WAT      O75337   4.905   9.022   8.722
25032WAT     H175338   4.996   9.039   8.759
25032WAT     H275339   4.851   8.970   8.788
25033WAT      O75340   2.912   0.180   9.317
25033WAT     H175341   2.953   0.248   9.379
25033WAT     H275342   2.907   0.092   9.363
25034WAT      O75343   7.852   7.202   7.026
25034WAT     H175344   7.793   7.173   7.101
25034WAT     H275345   7.911   7.126   6.998
25035WAT      O75346   4.207   1.283   8.095
25035WAT     H175347   4.127   1.319   8.046
25035WAT     H275348   4.230   1.343   8.171
25036WAT      O75349   1.843   3.022   8.108
25036WAT     H175350   1.845   2.998   8.011
25036WAT     H275351   1.790   2.954   8.159
25037WAT      O75352   9.322   6.925   0.975
25037WAT     H175353   9.329   7.014   0.930
25037WAT     H275354   9.276   6.936   1.063
25038WAT      O75355   7.716   6.655   0.206
25038WAT     H175356   7.797   6.650   0.148
25038WAT     H275357   7.647   6.712   0.162
25039WAT      O75358   7.515   0.295   2.443
25039WAT     H175359   7.430   0.333   2.478
25039WAT     H275360   7.565   0.251   2.517
25040WAT      O75361   3.910   4.031   2.710
25040WAT     H175362   3.830   4.066   2.662
25040WAT     H275363   3.881   3.979   2.789
25041WAT      O75364   3.854   2.093   8.058
25041WAT     H175365   3.914   2.021   8.024
25041WAT     H275366   3.828   2.074   8.152
25042WAT      O75367   7.486   8.873   0.615
25042WAT     H175368   7.568   8.930   0.616
25042WAT     H275369   7.513   8.776   0.617
25043WAT      O75370   7.788   7.880   4.818
25043WAT     H175371   7.812   7.974   4.795
25043WAT     H275372   7.727   7.843   4.748
25044WAT      O75373   4.173   3.871   4.974
25044WAT     H175374   4.149   3.932   4.898
25044WAT     H275375   4.221   3.791   4.938
25045WAT      O75376   8.170   6.841   5.652
25045WAT     H175377   8.218   6.918   5.695
25045WAT     H275378   8.170   6.763   5.714
25046WAT      O75379   4.522   5.405   4.709
25046WAT     H175380   4.444   5.363   4.756
25046WAT     H275381   4.600   5.343   4.712
25047WAT      O75382   3.877   2.641   7.931
25047WAT     H175383   3.826   2.723   7.905
25047WAT     H275384   3.974   2.655   7.911
25048WAT      O75385   8.508   7.211   5.501
25048WAT     H175386   8.605   7.187   5.493
25048WAT     H275387   8.464   7.149   5.566
25049WAT      O75388   5.136   7.654   6.375
25049WAT     H175389   5.136   7.687   6.470
25049WAT     H275390   5.082   7.570   6.370
25050WAT      O75391   2.715   1.100   7.300
25050WAT     H175392   2.621   1.124   7.275
25050WAT     H275393   2.727   1.113   7.398
25051WAT      O75394   7.646   8.581   7.647
25051WAT     H175395   7.738   8.584   7.687
25051WAT     H275396   7.614   8.487   7.645
25052WAT      O75397   0.944   6.470   5.711
25052WAT     H175398   0.883   6.522   5.652
25052WAT     H275399   1.034   6.465   5.669
25053WAT      O75400   8.459   4.877   1.792
25053WAT     H175401   8.514   4.935   1.732
25053WAT     H275402   8.504   4.868   1.880
25054WAT      O75403   7.841   0.525   4.701
25054WAT     H175404   7.862   0.457   4.771
25054WAT     H275405   7.744   0.545   4.701
25055WAT      O75406   1.451   1.261   0.544
25055WAT     H175407   1.492   1.170   0.540
25055WAT     H275408   1.385   1.266   0.618
25056WAT      O75409   0.714   1.678   7.310
25056WAT     H175410   0.662   1.666   7.225
25056WAT     H275411   0.739   1.774   7.320
25057WAT      O75412   1.426   4.968   0.041
25057WAT     H175413   1.488   4.891   0.024
25057WAT     H275414   1.387   4.960   0.132
25058WAT      O75415   1.970   6.629   0.684
25058WAT     H175416   1.994   6.719   0.720
25058WAT     H275417   2.054   6.574   0.674
25059WAT      O75418   3.187   7.218   5.658
25059WAT     H175419   3.266   7.177   5.704
25059WAT     H275420   3.109   7.221   5.721
25060WAT      O75421   8.860   5.239   6.741
25060WAT     H175422   8.804   5.185   6.677
25060WAT     H275423   8.931   5.181   6.780
25061WAT      O75424   6.297   2.542   0.902
25061WAT     H175425   6.342   2.467   0.854
25061WAT     H275426   6.363   2.615   0.918
25062WAT      O75427   2.499   4.303   7.906
25062WAT     H175428   2.508   4.339   7.813
25062WAT     H275429   2.504   4.379   7.972
25063WAT      O75430   8.483   0.654   2.843
25063WAT     H175431   8.526   0.722   2.783
25063WAT     H275432   8.388   0.680   2.860
25064WAT      O75433   5.943   5.066   3.789
25064WAT     H175434   5.919   5.027   3.700
25064WAT     H275435   5.917   5.162   3.791
25065WAT      O75436   4.191   0.617   8.459
25065WAT     H175437   4.275   0.580   8.420
25065WAT     H275438   4.125   0.543   8.473
25066WAT      O75439   9.649   8.172   6.698
25066WAT     H175440   9.633   8.102   6.628
25066WAT     H275441   9.566   8.227   6.709
25067WAT      O75442   8.846   2.400   7.646
25067WAT     H175443   8.845   2.373   7.742
25067WAT     H275444   8.754   2.430   7.619
25068WAT      O75445   2.695   3.273   0.254
25068WAT     H175446   2.631   3.332   0.303
25068WAT     H275447   2.714   3.311   0.164
25069WAT      O75448   6.914   8.683   5.209
25069WAT     H175449   6.821   8.698   5.244
25069WAT     H275450   6.948   8.595   5.243
25070WAT      O75451   7.943   6.185   0.709
25070WAT     H175452   7.937   6.284   0.715
25070WAT     H275453   8.025   6.159   0.657
25071WAT      O75454   5.216   9.354   6.678
25071WAT     H175455   5.292   9.368   6.741
25071WAT     H275456   5.130   9.354   6.729
25072WAT      O75457   0.961   8.540   2.075
25072WAT     H175458   1.047   8.524   2.026
25072WAT     H275459   0.978   8.603   2.151
25073WAT      O75460   7.546   6.480   8.329
25073WAT     H175461   7.619   6.541   8.359
25073WAT     H275462   7.568   6.443   8.239
25074WAT      O75463   5.513   4.645   5.310
25074WAT     H175464   5.423   4.613   5.339
25074WAT     H275465   5.560   4.687   5.388
25075WAT      O75466   5.206   1.657   2.944
25075WAT     H175467   5.114   1.680   2.975
25075WAT     H275468   5.245   1.734   2.893
25076WAT      O75469   1.979   5.242   6.527
25076WAT     H175470   1.999   5.337   6.550
25076WAT     H275471   1.885   5.220   6.553
25077WAT      O75472   5.334   7.819   1.902
25077WAT     H175473   5.278   7.878   1.960
25077WAT     H275474   5.275   7.755   1.852
25078WAT      O75475   4.665   5.216   1.119
25078WAT     H175476   4.733   5.258   1.060
25078WAT     H275477   4.710   5.154   1.184
25079WAT      O75478   6.212   2.446   3.332
25079WAT     H175479   6.115   2.451   3.353
25079WAT     H275480   6.234   2.356   3.295
25080WAT      O75481   3.535   9.115   6.963
25080WAT     H175482   3.460   9.048   6.966
25080WAT     H275483   3.519   9.179   6.888
25081WAT      O75484   9.245   9.569   8.347
25081WAT     H175485   9.300   9.499   8.393
25081WAT     H275486   9.221   9.537   8.256
25082WAT      O75487   1.803   5.079   0.060
25082WAT     H175488   1.778   4.983   0.046
25082WAT     H275489   1.902   5.089   0.055
25083WAT      O75490   2.321   4.099   7.824
25083WAT     H175491   2.388   4.168   7.850
25083WAT     H275492   2.230   4.140   7.822
25084WAT      O75493   6.301   8.396   7.979
25084WAT     H175494   6.226   8.409   8.044
25084WAT     H275495   6.264   8.379   7.888
25085WAT      O75496   4.137   3.016   6.976
25085WAT     H175497   4.073   3.048   6.906
25085WAT     H275498   4.122   2.918   6.992
25086WAT      O75499   0.541   6.435   2.306
25086WAT     H175500   0.634   6.452   2.274
25086WAT     H275501   0.500   6.362   2.251
25087WAT      O75502   4.085   4.999   8.455
25087WAT     H175503   4.175   4.996   8.411
25087WAT     H275504   4.046   4.907   8.458
25088WAT      O75505   6.326   9.027   7.736
25088WAT     H175506   6.236   9.069   7.722
25088WAT     H275507   6.380   9.038   7.652
25089WAT      O75508   8.966   3.055   2.055
25089WAT     H175509   8.910   3.091   1.981
25089WAT     H275510   8.908   3.034   2.134
25090WAT      O75511   2.376   2.068   3.935
25090WAT     H175512   2.327   1.988   3.969
25090WAT     H275513   2.333   2.151   3.970
25091WAT      O75514   9.865   4.831   3.937
25091WAT     H175515   9.843   4.871   3.848
25091WAT     H275516   9.964   4.821   3.946
25092WAT      O75517   0.222   8.800   6.982
25092WAT     H175518   0.254   8.895   6.979
25092WAT     H275519   0.255   8.751   6.902
25093WAT      O75520   9.320   1.434   1.412
25093WAT     H175521   9.411   1.420   1.451
25093WAT     H275522   9.326   1.502   1.338
25094WAT      O75523   5.809   7.714   5.405
25094WAT     H175524   5.846   7.624   5.383
25094WAT     H275525   5.876   7.785   5.383
25095WAT      O75526   5.815   7.523   9.023
25095WAT     H175527   5.742   7.535   9.091
25095WAT     H275528   5.853   7.612   8.999
25096WAT      O75529   2.506   4.407   8.821
25096WAT     H175530   2.550   4.370   8.903
25096WAT     H275531   2.464   4.333   8.768
25097WAT      O75532   2.655   1.809   8.896
25097WAT     H175533   2.608   1.721   8.907
25097WAT     H275534   2.594   1.874   8.850
25098WAT      O75535   6.002   8.122   6.487
25098WAT     H175536   6.001   8.210   6.535
25098WAT     H275537   6.078   8.120   6.422
25099WAT      O75538   3.197   3.016   1.678
25099WAT     H175539   3.183   3.075   1.598
25099WAT     H275540   3.157   3.059   1.758
25100WAT      O75541   6.422   3.164   6.334
25100WAT     H175542   6.394   3.208   6.248
25100WAT     H275543   6.353   3.097   6.361
25101WAT      O75544   2.343   6.149   7.009
25101WAT     H175545   2.282   6.171   6.934
25101WAT     H275546   2.310   6.193   7.093
25102WAT      O75547   6.102   0.535   8.130
25102WAT     H175548   6.107   0.534   8.230
25102WAT     H275549   6.034   0.602   8.100
25103WAT      O75550   2.578   3.255   4.109
25103WAT     H175551   2.648   3.203   4.061
25103WAT     H275552   2.603   3.352   4.109
25104WAT      O75553   5.105   0.633   8.460
25104WAT     H175554   5.141   0.587   8.380
25104WAT     H275555   5.021   0.682   8.435
25105WAT      O75556   3.939   4.712   8.163
25105WAT     H175557   3.899   4.803   8.168
25105WAT     H275558   4.028   4.713   8.210
25106WAT      O75559   0.044   5.889   3.186
25106WAT     H175560  -0.025   5.936   3.132
25106WAT     H275561   0.094   5.956   3.242
25107WAT      O75562   3.722   5.706   3.288
25107WAT     H175563   3.762   5.763   3.217
25107WAT     H275564   3.634   5.669   3.256
25108WAT      O75565   1.927   8.482   9.047
25108WAT     H175566   1.944   8.413   8.978
25108WAT     H275567   1.841   8.460   9.095
25109WAT      O75568   8.055   2.339   0.553
25109WAT     H175569   7.964   2.381   0.548
25109WAT     H275570   8.045   2.241   0.569
25110WAT      O75571   9.114   8.769   0.180
25110WAT     H175572   9.162   8.682   0.176
25110WAT     H275573   9.140   8.817   0.264
25111WAT      O75574   0.238   3.375   5.551
25111WAT     H175575   0.150   3.334   5.574
25111WAT     H275576   0.225   3.444   5.480
25112WAT      O75577   1.560   3.435   5.003
25112WAT     H175578   1.637   3.424   5.065
25112WAT     H275579   1.593   3.462   4.913
25113WAT      O75580   8.230   3.638   6.938
25113WAT     H175581   8.266   3.613   6.848
25113WAT     H275582   8.299   3.690   6.989
25114WAT      O75583   9.253   0.351   7.078
25114WAT     H175584   9.254   0.330   6.980
25114WAT     H275585   9.194   0.430   7.094
25115WAT      O75586   4.506   6.729   9.321
25115WAT     H175587   4.488   6.823   9.290
25115WAT     H275588   4.586   6.729   9.381
25116WAT      O75589   1.100   9.153   8.493
25116WAT     H175590   1.161   9.075   8.480
25116WAT     H275591   1.013   9.136   8.447
25117WAT      O75592   3.232   1.515   2.401
25117WAT     H175593   3.300   1.505   2.328
25117WAT     H275594   3.167   1.587   2.377
25118WAT      O75595   9.014   5.820   9.636
25118WAT     H175596   8.957   5.791   9.559
25118WAT     H275597   8.974   5.786   9.721
25119WAT      O75598   2.644   9.621   0.559
25119WAT     H175599   2.574   9.578   0.502
25119WAT     H275600   2.722   9.559   0.569
25120WAT      O75601   0.007   8.822   8.365
25120WAT     H175602  -0.016   8.918   8.350
25120WAT     H275603  -0.077   8.770   8.383
25121WAT      O75604   3.234   0.276   3.941
25121WAT     H175605   3.298   0.353   3.940
25121WAT     H275606   3.275   0.198   3.987
25122WAT      O75607   7.760   6.722   7.683
25122WAT     H175608   7.857   6.695   7.686
25122WAT     H275609   7.703   6.642   7.701
25123WAT      O75610   9.185   6.242   9.526
25123WAT     H175611   9.237   6.223   9.443
25123WAT     H275612   9.216   6.330   9.564
25124WAT      O75613   1.163   2.257   7.105
25124WAT     H175614   1.228   2.253   7.181
25124WAT     H275615   1.137   2.352   7.088
25125WAT      O75616   7.980   5.290   5.829
25125WAT     H175617   7.915   5.333   5.768
25125WAT     H275618   8.013   5.204   5.789
25126WAT      O75619   4.244   2.593   9.264
25126WAT     H175620   4.332   2.588   9.310
25126WAT     H275621   4.214   2.501   9.237
25127WAT      O75622   3.845   7.456   6.634
25127WAT     H175623   3.838   7.391   6.709
25127WAT     H275624   3.941   7.478   6.617
25128WAT      O75625   5.322   0.956   5.926
25128WAT     H175626   5.362   0.868   5.953
25128WAT     H275627   5.234   0.940   5.881
25129WAT      O75628   1.569   2.026   9.820
25129WAT     H175629   1.579   2.094   9.748
25129WAT     H275630   1.493   1.964   9.797
25130WAT      O75631   2.481   0.623   2.736
25130WAT     H175632   2.410   0.598   2.669
25130WAT     H275633   2.439   0.675   2.810
25131WAT      O75634   8.732   8.565   3.902
25131WAT     H175635   8.765   8.491   3.962
25131WAT     H275636   8.761   8.547   3.808
25132WAT      O75637   4.780   2.656   3.265
25132WAT     H175638   4.748   2.750   3.274
25132WAT     H275639   4.711   2.601   3.217
25133WAT      O75640   4.267   7.295   8.788
25133WAT     H175641   4.248   7.383   8.744
25133WAT     H275642   4.356   7.299   8.834
25134WAT      O75643   5.836   7.842   5.053
25134WAT     H175644   5.924   7.880   5.026
25134WAT     H275645   5.763   7.885   4.999
25135WAT      O75646   7.998   9.418   1.243
25135WAT     H175647   7.969   9.464   1.159
25135WAT     H275648   7.997   9.483   1.319
25136WAT      O75649   1.115   5.701   3.905
25136WAT     H175650   1.199   5.713   3.959
25136WAT     H275651   1.135   5.717   3.808
25137WAT      O75652   0.781   9.577   0.754
25137WAT     H175653   0.790   9.529   0.667
25137WAT     H275654   0.771   9.509   0.828
25138WAT      O75655   5.771   1.358   0.522
25138WAT     H175656   5.852   1.378   0.467
25138WAT     H275657   5.709   1.299   0.471
25139WAT      O75658   7.191   7.695   7.597
25139WAT     H175659   7.164   7.599   7.594
25139WAT     H275660   7.161   7.735   7.684
25140WAT      O75661   5.231   8.069   4.974
25140WAT     H175662   5.228   7.980   5.020
25140WAT     H275663   5.275   8.135   5.034
25141WAT      O75664   3.799   2.774   0.486
25141WAT     H175665   3.845   2.844   0.541
25141WAT     H275666   3.858   2.694   0.478
25142WAT      O75667   3.172   7.980   4.939
25142WAT     H175668   3.153   7.937   5.028
25142WAT     H275669   3.091   7.972   4.881
25143WAT      O75670   1.829   8.158   2.345
25143WAT     H175671   1.892   8.137   2.420
25143WAT     H275672   1.736   8.163   2.380
25144WAT      O75673   6.708   7.981   8.870
25144WAT     H175674   6.620   7.962   8.826
25144WAT     H275675   6.697   8.053   8.938
25145WAT      O75676   7.671   7.292   8.123
25145WAT     H175677   7.692   7.226   8.195
25145WAT     H275678   7.611   7.363   8.160
25146WAT      O75679   2.499   1.898   8.659
25146WAT     H175680   2.475   1.881   8.564
25146WAT     H275681   2.528   1.993   8.670
25147WAT      O75682   2.530   5.897   3.417
25147WAT     H175683   2.455   5.876   3.354
25147WAT     H275684   2.499   5.885   3.511
25148WAT      O75685   7.188   2.111   2.661
25148WAT     H175686   7.149   2.028   2.622
25148WAT     H275687   7.286   2.115   2.639
25149WAT      O75688   6.706   5.432   7.406
25149WAT     H175689   6.656   5.356   7.363
25149WAT     H275690   6.665   5.519   7.379
25150WAT      O75691   4.077   2.973   7.912
25150WAT     H175692   4.121   2.957   7.824
25150WAT     H275693   4.076   2.888   7.964
25151WAT      O75694   3.472   7.927   5.340
25151WAT     H175695   3.382   7.969   5.348
25151WAT     H275696   3.485   7.862   5.415
25152WAT      O75697   4.313   3.685   7.209
25152WAT     H175698   4.300   3.645   7.299
25152WAT     H275699   4.273   3.626   7.139
25153WAT      O75700   3.767   3.413   4.449
25153WAT     H175701   3.738   3.390   4.356
25153WAT     H275702   3.836   3.347   4.479
25154WAT      O75703   8.217   4.266   3.615
25154WAT     H175704   8.261   4.191   3.566
25154WAT     H275705   8.214   4.245   3.713
25155WAT      O75706   3.197   4.233   0.805
25155WAT     H175707   3.206   4.286   0.721
25155WAT     H275708   3.152   4.289   0.875
25156WAT      O75709   2.626   8.618   3.203
25156WAT     H175710   2.640   8.670   3.119
25156WAT     H275711   2.687   8.538   3.204
25157WAT      O75712   4.353   1.963   1.909
25157WAT     H175713   4.319   2.038   1.967
25157WAT     H275714   4.326   1.876   1.949
25158WAT      O75715   8.729   6.244   9.761
25158WAT     H175716   8.710   6.299   9.680
25158WAT     H275717   8.729   6.147   9.736
25159WAT      O75718   4.317   9.642   8.962
25159WAT     H175719   4.297   9.559   9.013
25159WAT     H275720   4.351   9.712   9.024
25160WAT      O75721   4.701   9.052   0.837
25160WAT     H175722   4.704   8.993   0.917
25160WAT     H275723   4.794   9.072   0.807
25161WAT      O75724   3.523   2.437   2.757
25161WAT     H175725   3.481   2.429   2.666
25161WAT     H275726   3.565   2.350   2.782
25162WAT      O75727   0.120   5.238   6.776
25162WAT     H175728   0.089   5.232   6.682
25162WAT     H275729   0.138   5.146   6.811
25163WAT      O75730   2.575   5.311   4.933
25163WAT     H175731   2.543   5.289   4.841
25163WAT     H275732   2.642   5.242   4.962
25164WAT      O75733   0.023   6.391   0.383
25164WAT     H175734   0.120   6.406   0.365
25164WAT     H275735  -0.031   6.461   0.334
25165WAT      O75736   6.529   4.892   4.047
25165WAT     H175737   6.589   4.873   4.125
25165WAT     H275738   6.465   4.965   4.071
25166WAT      O75739   4.309   6.943   7.534
25166WAT     H175740   4.210   6.963   7.535
25166WAT     H275741   4.351   6.985   7.614
25167WAT      O75742   1.970   4.482   9.240
25167WAT     H175743   1.962   4.419   9.317
25167WAT     H275744   1.915   4.564   9.259
25168WAT      O75745   4.195   9.471   1.158
25168WAT     H175746   4.253   9.514   1.088
25168WAT     H275747   4.146   9.541   1.208
25169WAT      O75748   0.005   7.475   1.349
25169WAT     H175749   0.083   7.480   1.410
25169WAT     H275750  -0.038   7.385   1.355
25170WAT      O75751   2.894   1.318   3.635
25170WAT     H175752   2.804   1.360   3.623
25170WAT     H275753   2.885   1.219   3.627
25171WAT      O75754   5.159   5.835   0.456
25171WAT     H175755   5.182   5.812   0.361
25171WAT     H275756   5.130   5.931   0.460
25172WAT      O75757   9.187   6.000   5.862
25172WAT     H175758   9.235   5.951   5.789
25172WAT     H275759   9.143   5.934   5.922
25173WAT      O75760   5.970   1.559   4.100
25173WAT     H175761   6.012   1.621   4.166
25173WAT     H275762   6.042   1.506   4.054
25174WAT      O75763   3.076   6.593   9.662
25174WAT     H175764   3.103   6.544   9.579
25174WAT     H275765   3.104   6.689   9.654
25175WAT      O75766   4.442   5.182   3.851
25175WAT     H175767   4.417   5.259   3.910
25175WAT     H275768   4.542   5.173   3.849
25176WAT      O75769   5.962   0.115   8.997
25176WAT     H175770   5.962   0.197   9.055
25176WAT     H275771   5.904   0.045   9.040
25177WAT      O75772   2.895   3.613   2.507
25177WAT     H175773   2.838   3.659   2.575
25177WAT     H275774   2.942   3.536   2.549
25178WAT      O75775   5.016   4.664   6.343
25178WAT     H175776   5.085   4.600   6.308
25178WAT     H275777   5.061   4.738   6.392
25179WAT      O75778   7.003   7.781   3.885
25179WAT     H175779   6.918   7.771   3.834
25179WAT     H275780   6.994   7.856   3.951
25180WAT      O75781   4.718   8.704   2.848
25180WAT     H175782   4.700   8.802   2.841
25180WAT     H275783   4.782   8.687   2.922
25181WAT      O75784   0.915   1.863   1.967
25181WAT     H175785   0.833   1.843   2.020
25181WAT     H275786   0.980   1.912   2.024
25182WAT      O75787   6.008   4.672   1.031
25182WAT     H175788   5.975   4.766   1.026
25182WAT     H275789   5.936   4.613   1.068
25183WAT      O75790   4.341   2.311   0.104
25183WAT     H175791   4.268   2.328   0.170
25183WAT     H275792   4.320   2.227   0.053
25184WAT      O75793   0.898   7.188   0.215
25184WAT     H175794   0.961   7.120   0.253
25184WAT     H275795   0.815   7.192   0.270
25185WAT      O75796   5.110   7.581   2.019
25185WAT     H175797   5.171   7.505   2.044
25185WAT     H275798   5.124   7.657   2.082
25186WAT      O75799   7.921   8.054   7.830
25186WAT     H175800   7.960   7.988   7.894
25186WAT     H275801   7.822   8.063   7.847
25187WAT      O75802   7.701   6.750   5.886
25187WAT     H175803   7.652   6.663   5.889
25187WAT     H275804   7.688   6.793   5.796
25188WAT      O75805   2.687   3.589   0.211
25188WAT     H175806   2.780   3.602   0.244
25188WAT     H275807   2.623   3.626   0.278
25189WAT      O75808   8.775   3.916   2.607
25189WAT     H175809   8.815   3.876   2.690
25189WAT     H275810   8.848   3.949   2.547
25190WAT      O75811   3.704   5.505   2.667
25190WAT     H175812   3.797   5.486   2.698
25190WAT     H275813   3.705   5.582   2.603
25191WAT      O75814   1.412   1.738   5.712
25191WAT     H175815   1.378   1.808   5.650
25191WAT     H275816   1.339   1.673   5.734
25192WAT      O75817   8.790   1.245   5.703
25192WAT     H175818   8.719   1.187   5.745
25192WAT     H275819   8.880   1.215   5.735
25193WAT      O75820   3.323   6.566   8.851
25193WAT     H175821   3.338   6.600   8.944
25193WAT     H275822   3.410   6.541   8.811
25194WAT      O75823   3.716   0.027   4.132
25194WAT     H175824   3.669  -0.029   4.064
25194WAT     H275825   3.659   0.033   4.215
25195WAT      O75826   0.636   8.080   6.438
25195WAT     H175827   0.644   8.073   6.339
25195WAT     H275828   0.707   8.026   6.482
25196WAT      O75829   5.466   5.243   9.142
25196WAT     H175830   5.491   5.176   9.072
25196WAT     H275831   5.525   5.323   9.134
25197WAT      O75832   2.116   3.772   2.689
25197WAT     H175833   2.134   3.680   2.723
25197WAT     H275834   2.019   3.792   2.697
25198WAT      O75835   1.993   8.183   3.166
25198WAT     H175836   2.051   8.234   3.104
25198WAT     H275837   1.933   8.246   3.215
25199WAT      O75838   1.692   0.236   1.347
25199WAT     H175839   1.713   0.139   1.362
25199WAT     H275840   1.625   0.267   1.414
25200WAT      O75841   5.539   2.198   7.602
25200WAT     H175842   5.591   2.142   7.666
25200WAT     H275843   5.585   2.198   7.513
25201WAT      O75844   0.912   8.031   5.069
25201WAT     H175845   0.875   7.967   5.002
25201WAT     H275846   0.952   7.980   5.145
25202WAT      O75847   4.450   9.058   6.652
25202WAT     H175848   4.543   9.082   6.623
25202WAT     H275849   4.416   9.127   6.717
25203WAT      O75850   3.741   3.487   5.597
25203WAT     H175851   3.692   3.453   5.516
25203WAT     H275852   3.774   3.580   5.579
25204WAT      O75853   9.736   0.375   8.903
25204WAT     H175854   9.765   0.402   8.995
25204WAT     H275855   9.805   0.405   8.837
25205WAT      O75856   2.662   9.726   1.398
25205WAT     H175857   2.575   9.767   1.426
25205WAT     H275858   2.668   9.726   1.298
25206WAT      O75859   7.129   7.896   6.924
25206WAT     H175860   7.078   7.982   6.929
25206WAT     H275861   7.068   7.820   6.947
25207WAT      O75862   2.354   5.383   2.582
25207WAT     H175863   2.269   5.404   2.534
25207WAT     H275864   2.429   5.434   2.539
25208WAT      O75865   6.509   5.487   5.154
25208WAT     H175866   6.477   5.538   5.234
25208WAT     H275867   6.513   5.390   5.176
25209WAT      O75868   5.803   1.670   1.536
25209WAT     H175869   5.822   1.767   1.523
25209WAT     H275870   5.759   1.656   1.625
25210WAT      O75871   8.826   0.509   2.592
25210WAT     H175872   8.833   0.550   2.684
25210WAT     H275873   8.763   0.564   2.537
25211WAT      O75874   3.945   6.463   7.892
25211WAT     H175875   4.013   6.432   7.959
25211WAT     H275876   3.863   6.407   7.900
25212WAT      O75877   0.662   0.114   7.754
25212WAT     H175878   0.725   0.037   7.764
25212WAT     H275879   0.648   0.133   7.657
25213WAT      O75880   0.995   2.380   1.264
25213WAT     H175881   1.083   2.415   1.297
25213WAT     H275882   0.956   2.446   1.199
25214WAT      O75883   7.833   8.254   9.811
25214WAT     H175884   7.803   8.324   9.747
25214WAT     H275885   7.754   8.214   9.856
25215WAT      O75886   6.826   7.751   8.657
25215WAT     H175887   6.764   7.751   8.735
25215WAT     H275888   6.860   7.843   8.641
25216WAT      O75889   9.192   1.187   7.270
25216WAT     H175890   9.120   1.220   7.208
25216WAT     H275891   9.150   1.161   7.358
25217WAT      O75892   9.456   2.232   3.167
25217WAT     H175893   9.514   2.294   3.219
25217WAT     H275894   9.360   2.251   3.186
25218WAT      O75895   6.133   6.797   3.316
25218WAT     H175896   6.086   6.742   3.248
25218WAT     H275897   6.232   6.783   3.308
25219WAT      O75898   4.551   3.769   4.687
25219WAT     H175899   4.528   3.726   4.600
25219WAT     H275900   4.468   3.795   4.735
25220WAT      O75901   6.932   3.027   7.166
25220WAT     H175902   6.840   3.066   7.177
25220WAT     H275903   6.976   3.020   7.255
25221WAT      O75904   1.787   2.544   5.709
25221WAT     H175905   1.800   2.559   5.807
25221WAT     H275906   1.727   2.465   5.695
25222WAT      O75907   2.111   5.522   1.846
25222WAT     H175908   2.138   5.614   1.818
25222WAT     H275909   2.113   5.516   1.946
25223WAT      O75910   2.491   2.016   0.827
25223WAT     H175911   2.478   2.073   0.746
25223WAT     H275912   2.576   2.041   0.873
25224WAT      O75913   1.931   1.573   5.667
25224WAT     H175914   1.842   1.557   5.625
25224WAT     H275915   1.917   1.602   5.762
25225WAT      O75916   7.281   4.610   4.119
25225WAT     H175917   7.215   4.544   4.155
25225WAT     H275918   7.355   4.561   4.073
25226WAT      O75919   6.168   3.901   2.650
25226WAT     H175920   6.221   3.822   2.620
25226WAT     H275921   6.208   3.939   2.733
25227WAT      O75922   5.721   1.776   4.445
25227WAT     H175923   5.774   1.861   4.450
25227WAT     H275924   5.766   1.705   4.499
25228WAT      O75925   6.439   7.358   0.648
25228WAT     H175926   6.408   7.452   0.631
25228WAT     H275927   6.362   7.296   0.637
25229WAT      O75928   7.587   9.240   1.731
25229WAT     H175929   7.556   9.277   1.819
25229WAT     H275930   7.637   9.310   1.681
25230WAT      O75931   0.378   7.100   3.390
25230WAT     H175932   0.460   7.073   3.339
25230WAT     H275933   0.403   7.159   3.466
25231WAT      O75934   0.457   4.758   0.099
25231WAT     H175935   0.469   4.823   0.174
25231WAT     H275936   0.406   4.801   0.025
25232WAT      O75937   5.045   7.039   6.249
25232WAT     H175938   4.950   7.061   6.226
25232WAT     H275939   5.057   6.940   6.247
25233WAT      O75940   1.695   6.908   5.796
25233WAT     H175941   1.724   6.967   5.871
25233WAT     H275942   1.736   6.817   5.807
25234WAT      O75943   6.507   3.059   8.230
25234WAT     H175944   6.601   3.085   8.210
25234WAT     H275945   6.445   3.102   8.164
25235WAT      O75946   2.713   6.794   9.235
25235WAT     H175947   2.725   6.893   9.247
25235WAT     H275948   2.622   6.776   9.199
25236WAT      O75949   8.316   6.616   7.883
25236WAT     H175950   8.246   6.678   7.847
25236WAT     H275951   8.392   6.610   7.817
25237WAT      O75952   1.246   8.399   7.028
25237WAT     H175953   1.292   8.310   7.029
25237WAT     H275954   1.304   8.467   7.074
25238WAT      O75955   4.179   7.031   6.068
25238WAT     H175956   4.247   7.074   6.008
25238WAT     H275957   4.221   7.011   6.157
25239WAT      O75958   1.443   2.694   6.886
25239WAT     H175959   1.415   2.686   6.982
25239WAT     H275960   1.539   2.723   6.883
25240WAT      O75961   7.343   7.001   8.527
25240WAT     H175962   7.376   6.989   8.434
25240WAT     H275963   7.420   7.019   8.588
25241WAT      O75964   6.533   7.984   9.768
25241WAT     H175965   6.492   7.995   9.858
25241WAT     H275966   6.523   7.889   9.738
25242WAT      O75967   3.710   3.615   6.396
25242WAT     H175968   3.776   3.681   6.432
25242WAT     H275969   3.651   3.660   6.329
25243WAT      O75970   2.833   7.407   2.714
25243WAT     H175971   2.811   7.449   2.802
25243WAT     H275972   2.805   7.469   2.640
25244WAT      O75973   5.931   1.066   3.614
25244WAT     H175974   5.902   1.160   3.594
25244WAT     H275975   5.893   1.005   3.545
25245WAT      O75976   0.090   8.740   9.096
25245WAT     H175977   0.102   8.810   9.167
25245WAT     H275978   0.020   8.675   9.125
25246WAT      O75979   0.616   7.883   7.994
25246WAT     H175980   0.563   7.931   7.924
25246WAT     H275981   0.668   7.950   8.048
25247WAT      O75982   3.603   5.085   0.359
25247WAT     H175983   3.625   5.041   0.447
25247WAT     H275984   3.577   5.180   0.375
25248WAT      O75985   1.121   0.072   4.293
25248WAT     H175986   1.090   0.109   4.381
25248WAT     H275987   1.211   0.111   4.271
25249WAT      O75988   6.203   4.964   3.607
25249WAT     H175989   6.204   5.006   3.517
25249WAT     H275990   6.109   4.955   3.639
25250WAT      O75991   2.078   2.230   2.239
25250WAT     H175992   2.081   2.329   2.224
25250WAT     H275993   2.022   2.210   2.320
25251WAT      O75994   4.859   3.622   0.319
25251WAT     H175995   4.885   3.637   0.415
25251WAT     H275996   4.933   3.574   0.272
25252WAT      O75997   1.606   7.745   3.963
25252WAT     H175998   1.623   7.687   4.043
25252WAT     H275999   1.620   7.692   3.879
25253WAT      O76000   5.832   7.055   1.403
25253WAT     H176001   5.759   7.121   1.423
25253WAT     H276002   5.807   6.966   1.441
25254WAT      O76003   7.956   9.554   3.144
25254WAT     H176004   7.874   9.599   3.180
25254WAT     H276005   8.019   9.623   3.108
25255WAT      O76006   7.520   4.669   4.367
25255WAT     H176007   7.566   4.636   4.284
25255WAT     H276008   7.441   4.724   4.341
25256WAT      O76009   7.887   1.750   8.860
25256WAT     H176010   7.961   1.686   8.844
25256WAT     H276011   7.920   1.826   8.916
25257WAT      O76012   4.139   2.705   5.013
25257WAT     H176013   4.177   2.782   4.962
25257WAT     H276014   4.057   2.671   4.966
25258WAT      O76015   5.918   7.525   4.360
25258WAT     H176016   5.976   7.561   4.433
25258WAT     H276017   5.870   7.444   4.392
25259WAT      O76018   2.932   7.210   4.784
25259WAT     H176019   2.860   7.262   4.829
25259WAT     H276020   2.988   7.272   4.729
25260WAT      O76021   9.545   1.771   3.812
25260WAT     H176022   9.623   1.788   3.873
25260WAT     H276023   9.461   1.770   3.865
25261WAT      O76024   6.492   9.056   8.484
25261WAT     H176025   6.565   9.111   8.525
25261WAT     H276026   6.433   9.020   8.556
25262WAT      O76027   0.939   7.594   2.237
25262WAT     H176028   1.004   7.605   2.162
25262WAT     H276029   0.846   7.586   2.200
25263WAT      O76030   0.563   2.926   2.303
25263WAT     H176031   0.521   3.017   2.298
25263WAT     H276032   0.491   2.857   2.299
25264WAT      O76033   6.217   2.994   3.767
25264WAT     H176034   6.204   2.895   3.769
25264WAT     H276035   6.195   3.029   3.676
25265WAT      O76036   9.758   1.078   9.559
25265WAT     H176037   9.813   1.087   9.476
25265WAT     H276038   9.750   1.168   9.603
25266WAT      O76039   7.088   1.197   7.063
25266WAT     H176040   7.011   1.134   7.048
25266WAT     H276041   7.072   1.282   7.013
25267WAT      O76042   7.194   9.186   6.253
25267WAT     H176043   7.214   9.093   6.283
25267WAT     H276044   7.182   9.187   6.154
25268WAT      O76045   6.483   4.839   1.503
25268WAT     H176046   6.570   4.826   1.455
25268WAT     H276047   6.441   4.925   1.472
25269WAT      O76048   2.840   4.461   5.212
25269WAT     H176049   2.887   4.549   5.224
25269WAT     H276050   2.823   4.420   5.301
25270WAT      O76051   6.020   1.672   9.402
25270WAT     H176052   5.970   1.608   9.459
25270WAT     H276053   5.956   1.734   9.356
25271WAT      O76054   7.596   1.521   1.932
25271WAT     H176055   7.513   1.494   1.980
25271WAT     H276056   7.579   1.603   1.877
25272WAT      O76057   4.512   7.916   2.827
25272WAT     H176058   4.498   7.891   2.923
25272WAT     H276059   4.449   7.863   2.770
25273WAT      O76060   3.077   7.363   3.023
25273WAT     H176061   3.160   7.391   3.072
25273WAT     H276062   3.020   7.442   3.005
25274WAT      O76063   1.189   6.709   2.563
25274WAT     H176064   1.094   6.697   2.533
25274WAT     H276065   1.200   6.801   2.600
25275WAT      O76066   2.950   2.646   7.640
25275WAT     H176067   2.953   2.582   7.716
25275WAT     H276068   2.916   2.734   7.672
25276WAT      O76069   5.537   0.934   8.129
25276WAT     H176070   5.468   0.863   8.143
25276WAT     H276071   5.491   1.022   8.117
25277WAT      O76072   5.785   2.190   9.048
25277WAT     H176073   5.725   2.168   9.124
25277WAT     H276074   5.733   2.237   8.977
25278WAT      O76075   2.379   7.900   2.491
25278WAT     H176076   2.298   7.884   2.547
25278WAT     H276077   2.361   7.976   2.428
25279WAT      O76078   0.855   4.212   3.367
25279WAT     H176079   0.776   4.151   3.382
25279WAT     H276080   0.906   4.221   3.453
25280WAT      O76081   8.812   9.798   4.879
25280WAT     H176082   8.824   9.867   4.951
25280WAT     H276083   8.845   9.835   4.792
25281WAT      O76084   9.420   3.969   6.904
25281WAT     H176085   9.400   3.953   7.001
25281WAT     H276086   9.360   4.040   6.869
25282WAT      O76087   9.690   7.389   9.861
25282WAT     H176088   9.650   7.466   9.811
25282WAT     H276089   9.645   7.379   9.949
25283WAT      O76090   5.761   6.639   8.226
25283WAT     H176091   5.829   6.704   8.261
25283WAT     H276092   5.755   6.561   8.288
25284WAT      O76093   2.896   7.231   1.391
25284WAT     H176094   2.849   7.254   1.306
25284WAT     H276095   2.899   7.132   1.402
25285WAT      O76096   7.618   6.571   3.524
25285WAT     H176097   7.657   6.548   3.435
25285WAT     H276098   7.650   6.505   3.592
25286WAT      O76099   8.239   5.481   6.968
25286WAT     H176100   8.151   5.528   6.971
25286WAT     H276101   8.278   5.477   7.061
25287WAT      O76102   0.351   8.508   3.241
25287WAT     H176103   0.319   8.603   3.233
25287WAT     H276104   0.448   8.508   3.265
25288WAT      O76105   0.761   6.073   0.043
25288WAT     H176106   0.697   6.052  -0.031
25288WAT     H276107   0.854   6.051   0.015
25289WAT      O76108   6.782   6.754   7.694
25289WAT     H176109   6.871   6.759   7.739
25289WAT     H276110   6.796   6.748   7.595
25290WAT      O76111   0.167   7.718   8.104
25290WAT     H176112   0.261   7.705   8.072
25290WAT     H276113   0.167   7.778   8.183
25291WAT      O76114   9.234   3.022   0.376
25291WAT     H176115   9.147   2.975   0.361
25291WAT     H276116   9.227   3.083   0.455
25292WAT      O76117   6.600   2.301   3.332
25292WAT     H176118   6.612   2.229   3.263
25292WAT     H276119   6.629   2.267   3.421
25293WAT      O76120   5.811   9.574   8.928
25293WAT     H176121   5.827   9.633   9.007
25293WAT     H276122   5.754   9.497   8.955
25294WAT      O76123   1.954   9.458   2.366
25294WAT     H176124   2.011   9.540   2.360
25294WAT     H276125   1.858   9.484   2.365
25295WAT      O76126   6.088   1.587   7.050
25295WAT     H176127   6.150   1.510   7.061
25295WAT     H276128   6.037   1.578   6.965
25296WAT      O76129   6.208   0.086   9.783
25296WAT     H176130   6.207   0.101   9.684
25296WAT     H276131   6.150   0.008   9.806
25297WAT      O76132   2.480   4.390   9.178
25297WAT     H176133   2.447   4.306   9.220
25297WAT     H276134   2.404   4.452   9.162
25298WAT      O76135   0.580   0.669   3.490
25298WAT     H176136   0.499   0.677   3.549
25298WAT     H276137   0.598   0.758   3.448
25299WAT      O76138   5.556   0.019   9.416
25299WAT     H176139   5.488  -0.052   9.398
25299WAT     H276140   5.581   0.064   9.330
25300WAT      O76141   4.568   7.338   5.545
25300WAT     H176142   4.506   7.330   5.467
25300WAT     H276143   4.653   7.380   5.516
25301WAT      O76144   8.907   7.331   7.763
25301WAT     H176145   8.993   7.341   7.714
25301WAT     H276146   8.832   7.325   7.697
25302WAT      O76147   5.355   8.838   2.764
25302WAT     H176148   5.328   8.934   2.757
25302WAT     H276149   5.377   8.817   2.859
25303WAT      O76150   8.428   2.786   2.370
25303WAT     H176151   8.353   2.721   2.384
25303WAT     H276152   8.465   2.774   2.278
25304WAT      O76153   0.675   5.857   3.075
25304WAT     H176154   0.767   5.855   3.034
25304WAT     H276155   0.609   5.884   3.006
25305WAT      O76156   0.119   4.775   7.946
25305WAT     H176157   0.195   4.772   7.881
25305WAT     H276158   0.085   4.869   7.954
25306WAT      O76159   4.748   9.320   7.552
25306WAT     H176160   4.683   9.344   7.623
25306WAT     H276161   4.794   9.403   7.519
25307WAT      O76162   0.899   9.279   3.265
25307WAT     H176163   0.923   9.231   3.350
25307WAT     H276164   0.978   9.281   3.204
25308WAT      O76165   6.336   7.352   8.028
25308WAT     H176166   6.417   7.323   8.079
25308WAT     H276167   6.317   7.286   7.955
25309WAT      O76168   3.434   2.876   4.213
25309WAT     H176169   3.447   2.779   4.192
25309WAT     H276170   3.336   2.898   4.209
25310WAT      O76171   1.861   2.358   6.953
25310WAT     H176172   1.804   2.390   6.877
25310WAT     H276173   1.818   2.277   6.994
25311WAT      O76174   6.085   6.427   6.913
25311WAT     H176175   6.169   6.473   6.940
25311WAT     H276176   6.014   6.445   6.981
25312WAT      O76177   9.533   4.316   2.040
25312WAT     H176178   9.543   4.407   2.080
25312WAT     H276179   9.444   4.308   1.995
25313WAT      O76180   9.178   8.881   9.497
25313WAT     H176181   9.108   8.862   9.429
25313WAT     H276182   9.269   8.866   9.457
25314WAT      O76183   2.377   2.887   3.714
25314WAT     H176184   2.428   2.968   3.684
25314WAT     H276185   2.392   2.873   3.812
25315WAT      O76186   9.192   1.121   4.678
25315WAT     H176187   9.095   1.098   4.667
25315WAT     H276188   9.201   1.206   4.729
25316WAT      O76189   6.336   3.613   5.340
25316WAT     H176190   6.279   3.691   5.363
25316WAT     H276191   6.309   3.534   5.395
25317WAT      O76192   0.241   0.974   0.709
25317WAT     H176193   0.251   1.069   0.740
25317WAT     H276194   0.207   0.973   0.615
25318WAT      O76195   9.666   0.368   4.206
25318WAT     H176196   9.738   0.336   4.268
25318WAT     H276197   9.691   0.345   4.112
25319WAT      O76198   3.297   6.129   9.260
25319WAT     H176199   3.320   6.226   9.250
25319WAT     H276200   3.330   6.079   9.180
25320WAT      O76201   7.046   7.912   1.794
25320WAT     H176202   7.123   7.970   1.818
25320WAT     H276203   6.980   7.964   1.739
25321WAT      O76204   2.499   4.054   7.107
25321WAT     H176205   2.552   3.969   7.108
25321WAT     H276206   2.522   4.106   7.025
25322WAT      O76207   2.601   4.361   4.053
25322WAT     H176208   2.535   4.434   4.070
25322WAT     H276209   2.647   4.336   4.138
25323WAT      O76210   3.636   2.577   3.690
25323WAT     H176211   3.685   2.540   3.769
25323WAT     H276212   3.653   2.675   3.683
25324WAT      O76213   6.866   6.840   8.135
25324WAT     H176214   6.795   6.869   8.199
25324WAT     H276215   6.951   6.821   8.186
25325WAT      O76216   8.092   6.195   4.746
25325WAT     H176217   8.186   6.175   4.773
25325WAT     H276218   8.092   6.261   4.672
25326WAT      O76219   5.117   4.964   4.211
25326WAT     H176220   5.088   5.015   4.292
25326WAT     H276221   5.086   4.869   4.219
25327WAT      O76222   7.065   4.686   8.059
25327WAT     H176223   7.086   4.614   7.994
25327WAT     H276224   7.093   4.658   8.151
25328WAT      O76225   6.105   9.319   5.833
25328WAT     H176226   6.148   9.364   5.911
25328WAT     H276227   6.128   9.367   5.749
25329WAT      O76228   0.824   1.316   1.684
25329WAT     H176229   0.739   1.272   1.716
25329WAT     H276230   0.878   1.250   1.632
25330WAT      O76231   7.889   3.970   6.768
25330WAT     H176232   7.880   3.954   6.866
25330WAT     H276233   7.880   4.068   6.749
25331WAT      O76234   6.538   6.910   4.998
25331WAT     H176235   6.467   6.865   4.945
25331WAT     H276236   6.506   7.001   5.025
25332WAT      O76237   4.853   3.457   8.072
25332WAT     H176238   4.808   3.385   8.125
25332WAT     H276239   4.943   3.425   8.041
25333WAT      O76240   2.237   2.089   3.306
25333WAT     H176241   2.227   2.118   3.210
25333WAT     H276242   2.289   2.004   3.310
25334WAT      O76243   8.896   8.652   6.984
25334WAT     H176244   8.845   8.576   6.943
25334WAT     H276245   8.947   8.619   7.063
25335WAT      O76246   6.584   3.342   7.150
25335WAT     H176247   6.614   3.365   7.058
25335WAT     H276248   6.641   3.269   7.187
25336WAT      O76249   7.917   8.771   7.666
25336WAT     H176250   7.946   8.684   7.707
25336WAT     H276251   7.946   8.846   7.725
25337WAT      O76252   0.008   6.625   4.073
25337WAT     H176253   0.011   6.717   4.113
25337WAT     H276254   0.031   6.630   3.976
25338WAT      O76255   9.395   5.774   8.717
25338WAT     H176256   9.456   5.696   8.725
25338WAT     H276257   9.410   5.818   8.628
25339WAT      O76258   4.323   4.212   2.496
25339WAT     H176259   4.269   4.252   2.570
25339WAT     H276260   4.419   4.237   2.508
25340WAT      O76261   1.805   1.159   0.405
25340WAT     H176262   1.805   1.220   0.484
25340WAT     H276263   1.899   1.144   0.374
25341WAT      O76264   4.983   2.983   6.775
25341WAT     H176265   4.896   2.984   6.726
25341WAT     H276266   5.028   2.895   6.761
25342WAT      O76267   9.219   1.560   3.438
25342WAT     H176268   9.229   1.461   3.448
25342WAT     H276269   9.300   1.597   3.393
25343WAT      O76270   7.126   1.307   0.347
25343WAT     H176271   7.050   1.243   0.362
25343WAT     H276272   7.154   1.346   0.435
25344WAT      O76273   9.160   0.706   4.013
25344WAT     H176274   9.200   0.653   3.938
25344WAT     H276275   9.101   0.778   3.975
25345WAT      O76276   9.196   7.570   5.048
25345WAT     H176277   9.287   7.606   5.069
25345WAT     H276278   9.153   7.629   4.980
25346WAT      O76279   9.349   1.189   5.928
25346WAT     H176280   9.326   1.160   5.836
25346WAT     H276281   9.265   1.211   5.978
25347WAT      O76282   2.975   5.142   6.349
25347WAT     H176283   2.926   5.131   6.435
25347WAT     H276284   3.074   5.138   6.366
25348WAT      O76285   2.130   3.358   2.228
25348WAT     H176286   2.141   3.457   2.235
25348WAT     H276287   2.074   3.336   2.147
25349WAT      O76288   6.732   5.081   1.672
25349WAT     H176289   6.690   5.154   1.618
25349WAT     H276290   6.681   5.068   1.757
25350WAT      O76291   7.014   1.299   0.748
25350WAT     H176292   6.938   1.351   0.708
25350WAT     H276293   6.990   1.202   0.749
25351WAT      O76294   4.086   7.365   7.931
25351WAT     H176295   4.165   7.353   7.870
25351WAT     H276296   4.031   7.442   7.899
25352WAT      O76297   1.374   6.168   0.825
25352WAT     H176298   1.368   6.103   0.749
25352WAT     H276299   1.406   6.257   0.791
25353WAT      O76300   6.196   0.335   1.979
25353WAT     H176301   6.222   0.311   2.073
25353WAT     H276302   6.135   0.265   1.942
25354WAT      O76303   8.238   5.276   4.380
25354WAT     H176304   8.310   5.220   4.421
25354WAT     H276305   8.278   5.359   4.341
25355WAT      O76306   7.025   0.965   8.672
25355WAT     H176307   7.120   0.995   8.679
25355WAT     H276308   6.991   0.985   8.580
25356WAT      O76309   7.522   0.956   4.369
25356WAT     H176310   7.457   1.009   4.315
25356WAT     H276311   7.481   0.869   4.395
25357WAT      O76312   5.393   2.377   5.761
25357WAT     H176313   5.453   2.336   5.830
25357WAT     H276314   5.355   2.305   5.703
25358WAT      O76315   7.210   3.793   7.442
25358WAT     H176316   7.240   3.706   7.483
25358WAT     H276317   7.172   3.776   7.351
25359WAT      O76318   0.148   2.110   3.279
25359WAT     H176319   0.151   2.210   3.275
25359WAT     H276320   0.055   2.079   3.258
25360WAT      O76321   5.311   5.320   3.710
25360WAT     H176322   5.253   5.267   3.771
25360WAT     H276323   5.290   5.417   3.720
25361WAT      O76324   1.804   4.026   6.316
25361WAT     H176325   1.704   4.025   6.308
25361WAT     H276326   1.841   4.100   6.259
25362WAT      O76327   5.650   4.867   8.968
25362WAT     H176328   5.682   4.823   8.884
25362WAT     H276329   5.710   4.841   9.044
25363WAT      O76330   1.397   4.794   5.828
25363WAT     H176331   1.383   4.798   5.729
25363WAT     H276332   1.360   4.877   5.870
25364WAT      O76333   1.128   9.009   6.801
25364WAT     H176334   1.193   9.081   6.778
25364WAT     H276335   1.128   8.940   6.728
25365WAT      O76336   6.806   7.572   0.448
25365WAT     H176337   6.784   7.482   0.487
25365WAT     H276338   6.885   7.563   0.387
25366WAT      O76339   7.435   6.314   3.337
25366WAT     H176340   7.389   6.241   3.286
25366WAT     H276341   7.525   6.283   3.366
25367WAT      O76342   3.459   2.269   8.402
25367WAT     H176343   3.514   2.194   8.440
25367WAT     H276344   3.464   2.266   8.302
25368WAT      O76345   4.850   0.532   5.894
25368WAT     H176346   4.942   0.509   5.864
25368WAT     H276347   4.784   0.501   5.826
25369WAT      O76348   6.644   2.868   2.375
25369WAT     H176349   6.700   2.950   2.372
25369WAT     H276350   6.688   2.795   2.322
25370WAT      O76351   4.409   8.075   0.807
25370WAT     H176352   4.433   7.988   0.764
25370WAT     H276353   4.457   8.150   0.760
25371WAT      O76354   1.783   2.723   0.502
25371WAT     H176355   1.751   2.740   0.409
25371WAT     H276356   1.834   2.803   0.534
25372WAT      O76357   8.711   5.391   3.597
25372WAT     H176358   8.799   5.364   3.558
25372WAT     H276359   8.725   5.426   3.690
25373WAT      O76360   1.677   9.512   5.294
25373WAT     H176361   1.663   9.569   5.213
25373WAT     H276362   1.594   9.458   5.311
25374WAT      O76363   4.389   4.727   9.733
25374WAT     H176364   4.300   4.717   9.778
25374WAT     H276365   4.405   4.823   9.712
25375WAT      O76366   1.945   0.788   1.668
25375WAT     H176367   1.891   0.840   1.734
25375WAT     H276368   1.902   0.699   1.652
25376WAT      O76369   2.270   5.907   6.590
25376WAT     H176370   2.252   5.996   6.548
25376WAT     H276371   2.231   5.905   6.682
25377WAT      O76372   4.224   5.084   3.331
25377WAT     H176373   4.166   5.059   3.254
25377WAT     H276374   4.188   5.044   3.416
25378WAT      O76375   7.881   3.467   8.031
25378WAT     H176376   7.850   3.400   7.964
25378WAT     H276377   7.880   3.426   8.122
25379WAT      O76378   8.162   9.259   5.425
25379WAT     H176379   8.244   9.306   5.457
25379WAT     H276380   8.164   9.163   5.453
25380WAT      O76381   1.756   7.839   6.338
25380WAT     H176382   1.660   7.864   6.323
25380WAT     H276383   1.804   7.915   6.381
25381WAT      O76384   0.634   1.994   3.332
25381WAT     H176385   0.681   1.996   3.420
25381WAT     H276386   0.551   2.050   3.338
25382WAT      O76387   0.037   4.532   6.155
25382WAT     H176388   0.119   4.535   6.098
25382WAT     H276389   0.030   4.443   6.199
25383WAT      O76390   2.808   8.230   0.444
25383WAT     H176391   2.768   8.312   0.404
25383WAT     H276392   2.815   8.240   0.543
25384WAT      O76393   6.437   1.850   9.483
25384WAT     H176394   6.346   1.866   9.446
25384WAT     H276395   6.504   1.901   9.429
25385WAT      O76396   1.274   7.564   4.790
25385WAT     H176397   1.248   7.505   4.867
25385WAT     H276398   1.232   7.529   4.706
25386WAT      O76399   6.436   8.278   6.388
25386WAT     H176400   6.378   8.332   6.449
25386WAT     H276401   6.459   8.333   6.308
25387WAT      O76402   2.848   7.703   0.255
25387WAT     H176403   2.808   7.613   0.275
25387WAT     H276404   2.936   7.691   0.210
25388WAT      O76405   3.842   5.802   1.084
25388WAT     H176406   3.796   5.819   1.171
25388WAT     H276407   3.826   5.880   1.023
25389WAT      O76408   9.142   1.763   2.468
25389WAT     H176409   9.203   1.796   2.541
25389WAT     H276410   9.116   1.840   2.409
25390WAT      O76411   2.084   2.183   7.168
25390WAT     H176412   2.002   2.133   7.195
25390WAT     H276413   2.084   2.274   7.210
25391WAT      O76414   9.433   0.754   0.986
25391WAT     H176415   9.439   0.821   0.913
25391WAT     H276416   9.515   0.759   1.043
25392WAT      O76417   2.007   6.520   1.896
25392WAT     H176418   2.005   6.620   1.904
25392WAT     H276419   1.940   6.480   1.958
25393WAT      O76420   1.386   1.720   5.374
25393WAT     H176421   1.339   1.634   5.393
25393WAT     H276422   1.323   1.782   5.328
25394WAT      O76423   5.904   5.775   6.354
25394WAT     H176424   5.808   5.770   6.382
25394WAT     H276425   5.917   5.851   6.290
25395WAT      O76426   8.034   7.470   5.825
25395WAT     H176427   7.961   7.447   5.760
25395WAT     H276428   8.039   7.569   5.836
25396WAT      O76429   6.468   7.354   8.622
25396WAT     H176430   6.568   7.366   8.627
25396WAT     H276431   6.439   7.294   8.697
25397WAT      O76432   8.873   5.032   5.801
25397WAT     H176433   8.787   4.983   5.810
25397WAT     H276434   8.863   5.124   5.840
25398WAT      O76435   0.519   3.915   0.441
25398WAT     H176436   0.456   3.899   0.517
25398WAT     H276437   0.468   3.949   0.362
25399WAT      O76438   5.711   1.279   7.948
25399WAT     H176439   5.797   1.308   7.906
25399WAT     H276440   5.720   1.282   8.047
25400WAT      O76441   1.503   8.009   7.361
25400WAT     H176442   1.403   8.020   7.362
25400WAT     H276443   1.531   7.981   7.269
25401WAT      O76444   5.935   0.025   1.290
25401WAT     H176445   5.962   0.064   1.202
25401WAT     H276446   5.861   0.079   1.329
25402WAT      O76447   9.313   6.570   6.958
25402WAT     H176448   9.257   6.652   6.948
25402WAT     H276449   9.275   6.497   6.901
25403WAT      O76450   9.435   2.749   0.132
25403WAT     H176451   9.515   2.809   0.124
25403WAT     H276452   9.352   2.805   0.140
25404WAT      O76453   2.540   1.754   7.882
25404WAT     H176454   2.476   1.805   7.823
25404WAT     H276455   2.492   1.678   7.925
25405WAT      O76456   7.923   1.063   6.863
25405WAT     H176457   8.012   1.072   6.819
25405WAT     H276458   7.926   0.985   6.925
25406WAT      O76459   9.435   8.374   5.799
25406WAT     H176460   9.366   8.340   5.735
25406WAT     H276461   9.489   8.297   5.834
25407WAT      O76462   4.681   9.099   5.942
25407WAT     H176463   4.665   9.132   6.035
25407WAT     H276464   4.679   9.175   5.878
25408WAT      O76465   6.204   4.528   2.899
25408WAT     H176466   6.120   4.577   2.876
25408WAT     H276467   6.276   4.554   2.835
25409WAT      O76468   6.373   0.076   8.398
25409WAT     H176469   6.279   0.102   8.375
25409WAT     H276470   6.380   0.062   8.496
25410WAT      O76471   1.256   2.148   2.410
25410WAT     H176472   1.194   2.094   2.468
25410WAT     H276473   1.328   2.088   2.374
25411WAT      O76474   7.926   0.049   4.869
25411WAT     H176475   7.900  -0.021   4.934
25411WAT     H276476   7.851   0.066   4.805
25412WAT      O76477   6.401   9.467   0.440
25412WAT     H176478   6.456   9.520   0.375
25412WAT     H276479   6.416   9.369   0.423
25413WAT      O76480   2.223   6.796   4.884
25413WAT     H176481   2.239   6.717   4.825
25413WAT     H276482   2.310   6.835   4.913
25414WAT      O76483   3.342   1.285   1.318
25414WAT     H176484   3.432   1.291   1.273
25414WAT     H276485   3.356   1.273   1.416
25415WAT      O76486   8.526   0.340   5.406
25415WAT     H176487   8.576   0.282   5.341
25415WAT     H276488   8.437   0.298   5.426
25416WAT      O76489   1.639   6.622   4.395
25416WAT     H176490   1.639   6.565   4.478
25416WAT     H276491   1.654   6.718   4.421
25417WAT      O76492   1.221   3.971   8.177
25417WAT     H176493   1.185   3.878   8.170
25417WAT     H276494   1.296   3.982   8.112
25418WAT      O76495   6.926   3.076   6.312
25418WAT     H176496   6.845   3.095   6.256
25418WAT     H276497   6.929   3.140   6.388
25419WAT      O76498   7.212   2.974   7.628
25419WAT     H176499   7.250   3.062   7.658
25419WAT     H276500   7.287   2.915   7.597
25420WAT      O76501   8.955   0.877   3.603
25420WAT     H176502   8.976   0.784   3.634
25420WAT     H276503   8.967   0.882   3.504
25421WAT      O76504   3.084   6.485   9.376
25421WAT     H176505   3.069   6.392   9.344
25421WAT     H276506   3.024   6.548   9.327
25422WAT      O76507   2.835   5.133   8.080
25422WAT     H176508   2.893   5.118   8.000
25422WAT     H276509   2.851   5.226   8.115
25423WAT      O76510   0.340   6.093   5.040
25423WAT     H176511   0.313   6.156   5.112
25423WAT     H276512   0.405   6.139   4.978
25424WAT      O76513   2.161   2.379   5.567
25424WAT     H176514   2.132   2.446   5.636
25424WAT     H276515   2.091   2.372   5.496
25425WAT      O76516   8.873   6.693   3.185
25425WAT     H176517   8.856   6.617   3.248
25425WAT     H276518   8.942   6.666   3.118
25426WAT      O76519   5.109   4.077   0.332
25426WAT     H176520   5.026   4.096   0.383
25426WAT     H276521   5.106   3.982   0.298
25427WAT      O76522   7.288   0.311   9.500
25427WAT     H176523   7.245   0.253   9.569
25427WAT     H276524   7.323   0.254   9.426
25428WAT      O76525   0.966   2.745   8.769
25428WAT     H176526   0.878   2.718   8.730
25428WAT     H276527   1.034   2.753   8.695
25429WAT      O76528   5.138   7.018   5.719
25429WAT     H176529   5.186   6.943   5.675
25429WAT     H276530   5.131   7.000   5.818
25430WAT      O76531   0.691   1.923   6.858
25430WAT     H176532   0.703   1.999   6.794
25430WAT     H276533   0.684   1.959   6.951
25431WAT      O76534   0.032   1.580   7.755
25431WAT     H176535   0.088   1.503   7.786
25431WAT     H276536  -0.018   1.553   7.673
25432WAT      O76537   8.104   0.146   1.581
25432WAT     H176538   8.124   0.160   1.484
25432WAT     H276539   8.005   0.150   1.595
25433WAT      O76540   4.205   9.339   7.346
25433WAT     H176541   4.232   9.403   7.274
25433WAT     H276542   4.121   9.372   7.390
25434WAT      O76543   3.833   0.424   3.046
25434WAT     H176544   3.775   0.496   3.084
25434WAT     H276545   3.783   0.375   2.975
25435WAT      O76546   5.307   8.369   9.588
25435WAT     H176547   5.276   8.324   9.504
25435WAT     H276548   5.332   8.300   9.656
25436WAT      O76549   7.588   1.726   4.991
25436WAT     H176550   7.669   1.732   5.050
25436WAT     H276551   7.537   1.643   5.012
25437WAT      O76552   4.704   9.537   9.009
25437WAT     H176553   4.769   9.566   8.938
25437WAT     H276554   4.708   9.437   9.018
25438WAT      O76555   4.249   6.127   5.422
25438WAT     H176556   4.230   6.207   5.365
25438WAT     H276557   4.238   6.151   5.519
25439WAT      O76558   5.023   0.351   7.644
25439WAT     H176559   5.048   0.295   7.565
25439WAT     H276560   5.083   0.328   7.721
25440WAT      O76561   2.421   5.804   4.497
25440WAT     H176562   2.414   5.763   4.406
25440WAT     H276563   2.416   5.732   4.566
25441WAT      O76564   2.210   3.022   9.569
25441WAT     H176565   2.133   3.003   9.508
25441WAT     H276566   2.268   2.940   9.577
25442WAT      O76567   5.411   5.243   3.251
25442WAT     H176568   5.324   5.209   3.286
25442WAT     H276569   5.440   5.322   3.304
25443WAT      O76570   5.130   7.897   7.203
25443WAT     H176571   5.156   7.843   7.123
25443WAT     H276572   5.173   7.987   7.198
25444WAT      O76573   0.780   3.409   9.038
25444WAT     H176574   0.826   3.327   9.073
25444WAT     H276575   0.737   3.389   8.950
25445WAT      O76576   5.908   3.681   2.989
25445WAT     H176577   5.935   3.776   2.974
25445WAT     H276578   5.981   3.633   3.037
25446WAT      O76579   5.134   5.647   4.668
25446WAT     H176580   5.141   5.714   4.742
25446WAT     H276581   5.213   5.586   4.670
25447WAT      O76582   8.186   2.452   8.361
25447WAT     H176583   8.271   2.505   8.355
25447WAT     H276584   8.192   2.372   8.302
25448WAT      O76585   8.081   2.580   5.975
25448WAT     H176586   8.072   2.528   6.060
25448WAT     H276587   7.990   2.602   5.939
25449WAT      O76588   0.435   1.335   3.831
25449WAT     H176589   0.391   1.390   3.901
25449WAT     H276590   0.454   1.391   3.750
25450WAT      O76591   5.985   7.102   4.281
25450WAT     H176592   5.944   7.010   4.281
25450WAT     H276593   5.924   7.166   4.234
25451WAT      O76594   8.199   0.220   5.865
25451WAT     H176595   8.220   0.242   5.960
25451WAT     H276596   8.139   0.290   5.827
25452WAT      O76597   2.351   7.153   9.011
25452WAT     H176598   2.310   7.074   8.965
25452WAT     H276599   2.282   7.223   9.026
25453WAT      O76600   7.112   6.563   2.423
25453WAT     H176601   7.032   6.514   2.458
25453WAT     H276602   7.170   6.500   2.371
25454WAT      O76603   5.677   1.794   7.623
25454WAT     H176604   5.709   1.776   7.530
25454WAT     H276605   5.654   1.708   7.668
25455WAT      O76606   6.065   3.174   1.035
25455WAT     H176607   6.051   3.265   1.074
25455WAT     H276608   6.157   3.169   0.997
25456WAT      O76609   2.416   9.297   4.130
25456WAT     H176610   2.325   9.324   4.163
25456WAT     H276611   2.481   9.298   4.206
25457WAT      O76612   4.736   9.306   6.769
25457WAT     H176613   4.737   9.293   6.670
25457WAT     H276614   4.711   9.221   6.815
25458WAT      O76615   0.554   3.629   1.168
25458WAT     H176616   0.503   3.715   1.156
25458WAT     H276617   0.496   3.553   1.140
25459WAT      O76618   0.015   6.969   2.265
25459WAT     H176619   0.032   7.067   2.275
25459WAT     H276620  -0.078   6.954   2.232
25460WAT      O76621   1.803   8.811   7.980
25460WAT     H176622   1.741   8.786   7.905
25460WAT     H276623   1.850   8.728   8.012
25461WAT      O76624   5.271   9.088   5.090
25461WAT     H176625   5.224   9.168   5.053
25461WAT     H276626   5.210   9.041   5.154
25462WAT      O76627   5.890   2.372   7.076
25462WAT     H176628   5.971   2.379   7.134
25462WAT     H276629   5.919   2.364   6.980
25463WAT      O76630   3.639   9.836   0.032
25463WAT     H176631   3.566   9.866   0.093
25463WAT     H276632   3.699   9.913   0.012
25464WAT      O76633   4.228   1.694   5.090
25464WAT     H176634   4.224   1.794   5.085
25464WAT     H276635   4.323   1.665   5.093
25465WAT      O76636   0.254   3.385   7.904
25465WAT     H176637   0.159   3.361   7.923
25465WAT     H276638   0.282   3.459   7.965
25466WAT      O76639   7.757   0.757   9.402
25466WAT     H176640   7.726   0.852   9.407
25466WAT     H276641   7.773   0.723   9.494
25467WAT      O76642   9.726   2.346   1.280
25467WAT     H176643   9.741   2.334   1.182
25467WAT     H276644   9.747   2.261   1.328
25468WAT      O76645   6.537   6.292   3.948
25468WAT     H176646   6.455   6.268   3.896
25468WAT     H276647   6.556   6.220   4.016
25469WAT      O76648   8.743   7.481   4.308
25469WAT     H176649   8.721   7.560   4.365
25469WAT     H276650   8.803   7.509   4.234
25470WAT      O76651   3.496   5.349   0.409
25470WAT     H176652   3.478   5.439   0.449
25470WAT     H276653   3.418   5.289   0.424
25471WAT      O76654   7.237   8.638   7.278
25471WAT     H176655   7.313   8.630   7.343
25471WAT     H276656   7.254   8.713   7.214
25472WAT      O76657   3.910   8.309   2.865
25472WAT     H176658   3.824   8.335   2.821
25472WAT     H276659   3.894   8.291   2.962
25473WAT      O76660   0.311   2.518   6.770
25473WAT     H176661   0.342   2.522   6.675
25473WAT     H276662   0.251   2.596   6.788
25474WAT      O76663   6.354   9.379   0.961
25474WAT     H176664   6.332   9.348   0.868
25474WAT     H276665   6.365   9.478   0.961
25475WAT      O76666   4.133   2.397   6.059
25475WAT     H176667   4.117   2.433   5.967
25475WAT     H276668   4.147   2.473   6.123
25476WAT      O76669   8.391   4.176   9.412
25476WAT     H176670   8.458   4.186   9.486
25476WAT     H276671   8.372   4.265   9.372
25477WAT      O76672   4.697   3.115   8.991
25477WAT     H176673   4.641   3.198   8.991
25477WAT     H276674   4.637   3.035   8.983
25478WAT      O76675   1.665   6.004   2.352
25478WAT     H176676   1.649   5.943   2.275
25478WAT     H276677   1.666   5.951   2.437
25479WAT      O76678   7.219   0.040   2.007
25479WAT     H176679   7.191   0.046   1.912
25479WAT     H276680   7.302  -0.015   2.015
25480WAT      O76681   3.461   8.435   0.528
25480WAT     H176682   3.389   8.383   0.481
25480WAT     H276683   3.497   8.505   0.466
25481WAT      O76684   1.133   9.706   9.339
25481WAT     H176685   1.185   9.789   9.320
25481WAT     H276686   1.035   9.725   9.332
25482WAT      O76687   1.397   1.778   4.863
25482WAT     H176688   1.438   1.788   4.953
25482WAT     H276689   1.468   1.783   4.793
25483WAT      O76690   7.471   6.453   6.563
25483WAT     H176691   7.565   6.472   6.534
25483WAT     H276692   7.443   6.363   6.530
25484WAT      O76693   5.074   3.574   1.945
25484WAT     H176694   5.022   3.502   1.901
25484WAT     H276695   5.012   3.633   1.998
25485WAT      O76696   0.458   4.112   8.114
25485WAT     H176697   0.471   4.026   8.063
25485WAT     H276698   0.382   4.101   8.178
25486WAT      O76699   1.888   0.729   4.817
25486WAT     H176700   1.909   0.658   4.884
25486WAT     H276701   1.795   0.762   4.831
25487WAT      O76702   1.031   6.537   1.721
25487WAT     H176703   0.963   6.589   1.670
25487WAT     H276704   1.032   6.443   1.688
25488WAT      O76705   8.015   5.653   2.469
25488WAT     H176706   7.934   5.711   2.465
25488WAT     H276707   8.035   5.618   2.378
25489WAT      O76708   7.511   1.673   4.533
25489WAT     H176709   7.593   1.626   4.566
25489WAT     H276710   7.456   1.704   4.611
25490WAT      O76711   8.967   5.323   1.345
25490WAT     H176712   8.892   5.267   1.309
25490WAT     H276713   8.938   5.370   1.428
25491WAT      O76714   1.469   6.081   1.817
25491WAT     H176715   1.445   6.049   1.909
25491WAT     H276716   1.509   6.005   1.766
25492WAT      O76717   1.592   4.859   6.065
25492WAT     H176718   1.530   4.816   5.999
25492WAT     H276719   1.580   4.958   6.061
25493WAT      O76720   2.620   7.386   6.165
25493WAT     H176721   2.570   7.373   6.079
25493WAT     H276722   2.592   7.316   6.231
25494WAT      O76723   3.952   5.103   4.569
25494WAT     H176724   3.938   5.053   4.654
25494WAT     H276725   3.909   5.053   4.493
25495WAT      O76726   3.661   5.759   7.818
25495WAT     H176727   3.642   5.713   7.905
25495WAT     H276728   3.588   5.825   7.799
25496WAT      O76729   0.808   8.992   7.577
25496WAT     H176730   0.745   8.916   7.586
25496WAT     H276731   0.805   9.027   7.483
25497WAT      O76732   1.233   2.413   0.912
25497WAT     H176733   1.271   2.459   0.992
25497WAT     H276734   1.230   2.476   0.835
25498WAT      O76735   6.637   3.086   4.590
25498WAT     H176736   6.594   3.043   4.511
25498WAT     H276737   6.589   3.057   4.673
25499WAT      O76738   5.939   0.559   0.747
25499WAT     H176739   5.939   0.650   0.707
25499WAT     H276740   5.845   0.523   0.748
25500WAT      O76741   7.555   1.743   1.473
25500WAT     H176742   7.508   1.658   1.448
25500WAT     H276743   7.575   1.794   1.390
25501WAT      O76744   9.206   0.961   5.333
25501WAT     H176745   9.230   1.058   5.323
25501WAT     H276746   9.230   0.931   5.425
25502WAT      O76747   5.365   8.282   5.100
25502WAT     H176748   5.462   8.299   5.117
25502WAT     H276749   5.313   8.289   5.185
25503WAT      O76750   0.993   4.707   1.710
25503WAT     H176751   0.964   4.803   1.714
25503WAT     H276752   0.923   4.654   1.662
25504WAT      O76753   3.312   4.493   0.715
25504WAT     H176754   3.220   4.530   0.725
25504WAT     H276755   3.324   4.459   0.622
25505WAT      O76756   0.191   4.264   2.997
25505WAT     H176757   0.212   4.214   2.913
25505WAT     H276758   0.125   4.336   2.977
25506WAT      O76759   6.084   7.653   8.825
25506WAT     H176760   6.161   7.700   8.867
25506WAT     H276761   6.097   7.650   8.726
25507WAT      O76762   4.247   9.471   6.172
25507WAT     H176763   4.345   9.489   6.162
25507WAT     H276764   4.213   9.519   6.253
25508WAT      O76765   7.391   1.555   3.870
25508WAT     H176766   7.409   1.519   3.779
25508WAT     H276767   7.299   1.528   3.899
25509WAT      O76768   2.694   8.186   3.394
25509WAT     H176769   2.629   8.122   3.354
25509WAT     H276770   2.743   8.141   3.469
25510WAT      O76771   5.677   5.167   8.502
25510WAT     H176772   5.595   5.177   8.445
25510WAT     H276773   5.651   5.178   8.598
25511WAT      O76774   7.858   0.943   0.187
25511WAT     H176775   7.854   0.845   0.204
25511WAT     H276776   7.778   0.987   0.228
25512WAT      O76777   2.541   7.381   9.424
25512WAT     H176778   2.623   7.435   9.440
25512WAT     H276779   2.462   7.442   9.416
25513WAT      O76780   3.309   4.514   0.064
25513WAT     H176781   3.379   4.563   0.014
25513WAT     H276782   3.220   4.529   0.021
25514WAT      O76783   1.417   9.019   9.443
25514WAT     H176784   1.420   9.056   9.536
25514WAT     H276785   1.337   9.056   9.395
25515WAT      O76786   8.611   8.849   7.315
25515WAT     H176787   8.668   8.769   7.335
25515WAT     H276788   8.521   8.818   7.284
25516WAT      O76789   8.588   7.673   2.170
25516WAT     H176790   8.598   7.631   2.080
25516WAT     H276791   8.555   7.604   2.235
25517WAT      O76792   8.388   4.417   3.019
25517WAT     H176793   8.443   4.436   3.100
25517WAT     H276794   8.442   4.434   2.937
25518WAT      O76795   8.521   6.718   2.252
25518WAT     H176796   8.471   6.803   2.272
25518WAT     H276797   8.468   6.640   2.284
25519WAT      O76798   7.167   0.926   9.271
25519WAT     H176799   7.265   0.908   9.274
25519WAT     H276800   7.139   0.973   9.354
25520WAT      O76801   4.032   0.775   5.057
25520WAT     H176802   3.932   0.776   5.056
25520WAT     H276803   4.066   0.736   4.971
25521WAT      O76804   7.192   6.143   8.059
25521WAT     H176805   7.208   6.099   8.147
25521WAT     H276806   7.116   6.207   8.067
25522WAT      O76807   5.169   0.890   2.503
25522WAT     H176808   5.118   0.897   2.589
25522WAT     H276809   5.261   0.926   2.517
25523WAT      O76810   4.573   1.254   7.754
25523WAT     H176811   4.571   1.190   7.830
25523WAT     H276812   4.662   1.250   7.709
25524WAT      O76813   2.358   4.194   1.624
25524WAT     H176814   2.266   4.227   1.645
25524WAT     H276815   2.424   4.232   1.689
25525WAT      O76816   1.898   9.619   9.411
25525WAT     H176817   1.897   9.551   9.337
25525WAT     H276818   1.832   9.690   9.391
25526WAT      O76819   0.896   9.653   7.233
25526WAT     H176820   0.833   9.632   7.157
25526WAT     H276821   0.848   9.710   7.300
25527WAT      O76822   7.621   3.066   6.571
25527WAT     H176823   7.691   2.995   6.569
25527WAT     H276824   7.545   3.040   6.511
25528WAT      O76825   2.275   1.938   8.175
25528WAT     H176826   2.307   2.004   8.107
25528WAT     H276827   2.235   1.859   8.128
25529WAT      O76828   9.369   7.673   0.046
25529WAT     H176829   9.338   7.640   0.135
25529WAT     H276830   9.290   7.685  -0.014
25530WAT      O76831   8.021   9.693   7.328
25530WAT     H176832   8.033   9.600   7.361
25530WAT     H276833   7.995   9.691   7.231
25531WAT      O76834   4.092   6.411   0.361
25531WAT     H176835   4.156   6.484   0.339
25531WAT     H276836   4.141   6.326   0.373
25532WAT      O76837   8.209   7.192   0.558
25532WAT     H176838   8.153   7.155   0.484
25532WAT     H276839   8.182   7.287   0.576
25533WAT      O76840   8.447   4.620   0.013
25533WAT     H176841   8.505   4.615  -0.068
25533WAT     H276842   8.485   4.562   0.085
25534WAT      O76843   8.639   9.166   5.294
25534WAT     H176844   8.556   9.111   5.308
25534WAT     H276845   8.696   9.124   5.224
25535WAT      O76846   5.555   7.365   4.074
25535WAT     H176847   5.544   7.308   3.992
25535WAT     H276848   5.493   7.333   4.145
25536WAT      O76849   7.096   5.645   0.310
25536WAT     H176850   7.132   5.731   0.272
25536WAT     H276851   7.170   5.597   0.357
25537WAT      O76852   7.806   0.119   7.909
25537WAT     H176853   7.775   0.084   7.821
25537WAT     H276854   7.769   0.062   7.983
25538WAT      O76855   8.299   0.902   4.156
25538WAT     H176856   8.252   0.951   4.082
25538WAT     H276857   8.268   0.939   4.244
25539WAT      O76858   4.187   1.736   4.732
25539WAT     H176859   4.147   1.787   4.808
25539WAT     H276860   4.233   1.799   4.670
25540WAT      O76861   6.311   0.527   4.509
25540WAT     H176862   6.318   0.549   4.411
25540WAT     H276863   6.283   0.431   4.518
25541WAT      O76864   3.750   9.826   1.508
25541WAT     H176865   3.759   9.893   1.434
25541WAT     H276866   3.667   9.771   1.494
25542WAT      O76867   7.678   0.296   4.423
25542WAT     H176868   7.666   0.355   4.343
25542WAT     H276869   7.603   0.312   4.487
25543WAT      O76870   8.866   5.058   7.141
25543WAT     H176871   8.808   5.021   7.215
25543WAT     H276872   8.891   5.153   7.163
25544WAT      O76873   0.400   8.928   0.854
25544WAT     H176874   0.356   8.841   0.875
25544WAT     H276875   0.356   9.002   0.905
25545WAT      O76876   1.329   5.101   3.516
25545WAT     H176877   1.283   5.014   3.536
25545WAT     H276878   1.287   5.143   3.435
25546WAT      O76879   3.271   2.069   5.267
25546WAT     H176880   3.180   2.067   5.226
25546WAT     H276881   3.266   2.038   5.362
25547WAT      O76882   2.222   2.004   9.129
25547WAT     H176883   2.250   1.915   9.165
25547WAT     H276884   2.123   2.003   9.112
25548WAT      O76885   7.060   7.210   0.169
25548WAT     H176886   6.962   7.192   0.161
25548WAT     H276887   7.086   7.211   0.265
25549WAT      O76888   4.357   8.361   0.299
25549WAT     H176889   4.384   8.457   0.283
25549WAT     H276890   4.418   8.301   0.248
25550WAT      O76891   3.118   7.499   5.834
25550WAT     H176892   3.061   7.429   5.790
25550WAT     H276893   3.138   7.471   5.928
25551WAT      O76894   9.295   0.811   0.077
25551WAT     H176895   9.319   0.715   0.090
25551WAT     H276896   9.208   0.829   0.122
25552WAT      O76897   2.787   9.263   2.549
25552WAT     H176898   2.855   9.215   2.606
25552WAT     H276899   2.821   9.354   2.528
25553WAT      O76900   1.750   0.844   7.013
25553WAT     H176901   1.707   0.760   7.047
25553WAT     H276902   1.700   0.876   6.933
25554WAT      O76903   2.107   2.754   8.521
25554WAT     H176904   2.088   2.665   8.561
25554WAT     H276905   2.024   2.809   8.521
25555WAT      O76906   1.733   0.535   2.061
25555WAT     H176907   1.679   0.534   1.977
25555WAT     H276908   1.689   0.596   2.128
25556WAT      O76909   8.015   5.857   6.187
25556WAT     H176910   7.999   5.826   6.281
25556WAT     H276911   7.940   5.825   6.129
25557WAT      O76912   0.108   1.206   5.188
25557WAT     H176913   0.014   1.175   5.202
25557WAT     H276914   0.153   1.215   5.277
25558WAT      O76915   0.741   6.963   4.171
25558WAT     H176916   0.780   7.054   4.161
25558WAT     H276917   0.669   6.964   4.241
25559WAT      O76918   4.932   2.443   1.705
25559WAT     H176919   4.894   2.423   1.614
25559WAT     H276920   4.885   2.523   1.744
25560WAT      O76921   8.615   2.561   9.283
25560WAT     H176922   8.589   2.657   9.293
25560WAT     H276923   8.709   2.555   9.251
25561WAT      O76924   8.218   6.193   5.548
25561WAT     H176925   8.309   6.183   5.508
25561WAT     H276926   8.202   6.288   5.572
25562WAT      O76927   1.696   8.498   7.102
25562WAT     H176928   1.682   8.449   7.016
25562WAT     H276929   1.750   8.580   7.084
25563WAT      O76930   5.511   9.697   4.902
25563WAT     H176931   5.412   9.698   4.909
25563WAT     H276932   5.547   9.787   4.928
25564WAT      O76933   8.929   4.438   1.739
25564WAT     H176934   8.903   4.534   1.739
25564WAT     H276935   8.855   4.383   1.779
25565WAT      O76936   5.396   4.060   1.821
25565WAT     H176937   5.378   4.073   1.723
25565WAT     H276938   5.366   3.969   1.848
25566WAT      O76939   0.873   3.521   2.616
25566WAT     H176940   0.870   3.424   2.642
25566WAT     H276941   0.940   3.569   2.673
25567WAT      O76942   0.576   9.497   3.869
25567WAT     H176943   0.524   9.556   3.931
25567WAT     H276944   0.665   9.538   3.850
25568WAT      O76945   4.491   0.466   9.591
25568WAT     H176946   4.408   0.412   9.601
25568WAT     H276947   4.481   0.553   9.639
25569WAT      O76948   9.724   6.911   3.292
25569WAT     H176949   9.626   6.930   3.305
25569WAT     H276950   9.739   6.813   3.296
25570WAT      O76951   4.654   3.319   4.166
25570WAT     H176952   4.738   3.365   4.138
25570WAT     H276953   4.661   3.294   4.263
25571WAT      O76954   0.410   1.060   7.036
25571WAT     H176955   0.452   1.109   6.959
25571WAT     H276956   0.424   0.962   7.023
25572WAT      O76957   1.363   0.350   0.335
25572WAT     H176958   1.408   0.399   0.410
25572WAT     H276959   1.311   0.274   0.372
25573WAT      O76960   6.255   4.116   7.728
25573WAT     H176961   6.255   4.029   7.678
25573WAT     H276962   6.177   4.171   7.700
25574WAT      O76963   8.575   5.249   0.666
25574WAT     H176964   8.519   5.304   0.604
25574WAT     H276965   8.664   5.231   0.623
25575WAT      O76966   0.548   9.432   6.688
25575WAT     H176967   0.540   9.346   6.637
25575WAT     H276968   0.472   9.440   6.752
25576WAT      O76969   3.514   7.689   6.595
25576WAT     H176970   3.458   7.771   6.606
25576WAT     H276971   3.606   7.707   6.631
25577WAT      O76972   8.865   7.012   7.583
25577WAT     H176973   8.938   6.944   7.581
25577WAT     H276974   8.842   7.033   7.678
25578WAT      O76975   4.113   2.761   6.051
25578WAT     H176976   4.167   2.794   6.128
25578WAT     H276977   4.035   2.709   6.085
25579WAT      O76978   3.737   6.757   2.840
25579WAT     H176979   3.766   6.723   2.751
25579WAT     H276980   3.723   6.681   2.903
25580WAT      O76981   4.237   3.223   1.996
25580WAT     H176982   4.327   3.188   2.019
25580WAT     H276983   4.246   3.296   1.928
25581WAT      O76984   4.077   5.383   6.656
25581WAT     H176985   4.139   5.306   6.666
25581WAT     H276986   4.128   5.463   6.624
25582WAT      O76987   7.377   9.764   8.560
25582WAT     H176988   7.455   9.746   8.501
25582WAT     H276989   7.299   9.791   8.503
25583WAT      O76990   9.504   7.386   6.903
25583WAT     H176991   9.405   7.391   6.892
25583WAT     H276992   9.548   7.432   6.825
25584WAT      O76993   1.402   4.204   7.218
25584WAT     H176994   1.320   4.191   7.162
25584WAT     H276995   1.417   4.123   7.275
25585WAT      O76996   5.568   4.010   9.138
25585WAT     H176997   5.523   3.966   9.060
25585WAT     H276998   5.513   4.086   9.171
25586WAT      O76999   9.721   3.959   5.418
25586WAT     H177000   9.625   3.984   5.437
25586WAT     H277001   9.769   3.945   5.504
25587WAT      O77002   3.635   7.154   8.542
25587WAT     H177003   3.599   7.090   8.475
25587WAT     H277004   3.613   7.247   8.515
25588WAT      O77005   4.348   7.243   1.413
25588WAT     H177006   4.410   7.241   1.491
25588WAT     H277007   4.328   7.339   1.389
25589WAT      O77008   2.593   0.761   7.273
25589WAT     H177009   2.640   0.766   7.185
25589WAT     H277010   2.532   0.840   7.283
25590WAT      O77011   4.149   4.036   2.841
25590WAT     H177012   4.209   3.977   2.787
25590WAT     H277013   4.055   4.028   2.808
25591WAT      O77014   9.432   7.757   4.065
25591WAT     H177015   9.357   7.692   4.052
25591WAT     H277016   9.395   7.846   4.093
25592WAT      O77017   4.058   8.462   1.236
25592WAT     H177018   4.082   8.368   1.211
25592WAT     H277019   4.140   8.511   1.266
25593WAT      O77020   2.869   1.514   2.504
25593WAT     H177021   2.773   1.545   2.503
25593WAT     H277022   2.898   1.491   2.411
25594WAT      O77023   2.464   3.961   9.683
25594WAT     H177024   2.380   3.928   9.641
25594WAT     H277025   2.541   3.948   9.620
25595WAT      O77026   5.401   3.704   4.765
25595WAT     H177027   5.439   3.612   4.761
25595WAT     H277028   5.301   3.698   4.768
25596WAT      O77029   1.053   0.303   6.525
25596WAT     H177030   0.956   0.314   6.545
25596WAT     H277031   1.066   0.290   6.427
25597WAT      O77032   7.300   0.909   3.973
25597WAT     H177033   7.340   0.822   4.001
25597WAT     H277034   7.256   0.953   4.051
25598WAT      O77035   3.159   2.060   6.361
25598WAT     H177036   3.191   2.085   6.452
25598WAT     H277037   3.059   2.062   6.360
25599WAT      O77038   2.433   0.124   7.586
25599WAT     H177039   2.526   0.119   7.622
25599WAT     H277040   2.419   0.052   7.518
25600WAT      O77041   4.329   8.274   2.253
25600WAT     H177042   4.391   8.205   2.289
25600WAT     H277043   4.356   8.364   2.286
25601WAT      O77044   4.450   0.907   5.060
25601WAT     H177045   4.522   0.862   5.112
25601WAT     H277046   4.492   0.967   4.991
25602WAT      O77047   8.031   8.225   1.580
25602WAT     H177048   8.122   8.190   1.602
25602WAT     H277049   8.020   8.316   1.621
25603WAT      O77050   8.940   3.641   8.156
25603WAT     H177051   8.877   3.568   8.130
25603WAT     H277052   8.891   3.728   8.155
25604WAT      O77053   4.637   1.378   1.435
25604WAT     H177054   4.681   1.441   1.499
25604WAT     H277055   4.581   1.430   1.370
25605WAT      O77056   8.749   3.314   4.842
25605WAT     H177057   8.719   3.410   4.843
25605WAT     H277058   8.788   3.292   4.753
25606WAT      O77059   0.726   1.707   4.448
25606WAT     H177060   0.765   1.752   4.528
25606WAT     H277061   0.774   1.620   4.432
25607WAT      O77062   9.186   5.982   5.085
25607WAT     H177063   9.263   6.045   5.089
25607WAT     H277064   9.209   5.898   5.135
25608WAT      O77065   0.327   7.931   3.399
25608WAT     H177066   0.327   7.834   3.423
25608WAT     H277067   0.372   7.983   3.471
25609WAT      O77068   4.153   2.926   4.861
25609WAT     H177069   4.203   2.919   4.775
25609WAT     H277070   4.059   2.953   4.843
25610WAT      O77071   6.692   8.954   4.072
25610WAT     H177072   6.718   8.977   3.978
25610WAT     H277073   6.774   8.927   4.123
25611WAT      O77074   2.337   4.682   6.639
25611WAT     H177075   2.280   4.659   6.718
25611WAT     H277076   2.296   4.644   6.556
25612WAT      O77077   4.700   6.198   9.654
25612WAT     H177078   4.706   6.235   9.747
25612WAT     H277079   4.686   6.099   9.658
25613WAT      O77080   1.404   8.479   0.890
25613WAT     H177081   1.451   8.459   0.804
25613WAT     H277082   1.317   8.429   0.894
25614WAT      O77083   7.022   4.387   5.376
25614WAT     H177084   7.012   4.302   5.324
25614WAT     H277085   6.980   4.462   5.324
25615WAT      O77086   3.264   3.129   6.214
25615WAT     H177087   3.331   3.168   6.277
25615WAT     H277088   3.172   3.163   6.238
25616WAT      O77089   0.364   8.917   3.533
25616WAT     H177090   0.287   8.867   3.493
25616WAT     H277091   0.331   8.982   3.601
25617WAT      O77092   0.646   2.410   6.295
25617WAT     H177093   0.609   2.503   6.293
25617WAT     H277094   0.746   2.414   6.295
25618WAT      O77095   3.431   5.364   7.663
25618WAT     H177096   3.345   5.413   7.647
25618WAT     H277097   3.444   5.350   7.761
25619WAT      O77098   9.111   1.165   2.969
25619WAT     H177099   9.014   1.175   2.948
25619WAT     H277100   9.138   1.069   2.960
25620WAT      O77101   3.937   4.009   7.338
25620WAT     H177102   3.879   3.940   7.381
25620WAT     H277103   3.900   4.032   7.248
25621WAT      O77104   2.710   9.812   9.854
25621WAT     H177105   2.680   9.740   9.916
25621WAT     H277106   2.675   9.900   9.887
25622WAT      O77107   9.775   3.873   2.511
25622WAT     H177108   9.694   3.928   2.489
25622WAT     H277109   9.763   3.781   2.475
25623WAT      O77110   5.048   1.729   7.035
25623WAT     H177111   5.036   1.638   6.995
25623WAT     H277112   5.142   1.738   7.067
25624WAT      O77113   8.456   3.157   3.533
25624WAT     H177114   8.404   3.231   3.577
25624WAT     H277115   8.451   3.168   3.434
25625WAT      O77116   1.847   1.370   4.607
25625WAT     H177117   1.908   1.334   4.536
25625WAT     H277118   1.890   1.357   4.697
25626WAT      O77119   2.744   2.781   8.061
25626WAT     H177120   2.844   2.782   8.058
25626WAT     H277121   2.712   2.867   8.101
25627WAT      O77122   9.478   9.130   9.688
25627WAT     H177123   9.520   9.192   9.755
25627WAT     H277124   9.391   9.097   9.724
25628WAT      O77125   4.776   5.660   4.436
25628WAT     H177126   4.832   5.743   4.426
25628WAT     H277127   4.705   5.659   4.366
25629WAT      O77128   0.181   7.433   3.131
25629WAT     H177129   0.132   7.389   3.057
25629WAT     H277130   0.161   7.386   3.217
25630WAT      O77131   0.525   1.011   0.589
25630WAT     H177132   0.600   0.964   0.635
25630WAT     H277133   0.442   1.003   0.643
25631WAT      O77134   9.243   0.741   8.693
25631WAT     H177135   9.209   0.673   8.627
25631WAT     H277136   9.322   0.788   8.654
25632WAT      O77137   1.710   8.050   4.552
25632WAT     H177138   1.673   8.105   4.477
25632WAT     H277139   1.806   8.075   4.567
25633WAT      O77140   5.758   7.556   5.048
25633WAT     H177141   5.796   7.641   5.083
25633WAT     H277142   5.749   7.490   5.123
25634WAT      O77143   0.175   6.358   9.022
25634WAT     H177144   0.105   6.384   8.957
25634WAT     H277145   0.262   6.399   8.996
25635WAT      O77146   7.869   7.319   2.842
25635WAT     H177147   7.863   7.257   2.921
25635WAT     H277148   7.830   7.274   2.762
25636WAT      O77149   4.960   4.874   7.221
25636WAT     H177150   4.884   4.820   7.185
25636WAT     H277151   4.981   4.948   7.157
25637WAT      O77152   0.417   3.010   8.103
25637WAT     H177153   0.503   2.971   8.134
25637WAT     H277154   0.429   3.049   8.011
25638WAT      O77155   5.945   1.094   2.401
25638WAT     H177156   5.950   1.189   2.371
25638WAT     H277157   5.959   1.033   2.322
25639WAT      O77158   5.119   6.669   2.751
25639WAT     H177159   5.217   6.657   2.765
25639WAT     H277160   5.077   6.580   2.732
25640WAT      O77161   1.392   2.413   9.256
25640WAT     H177162   1.327   2.475   9.300
25640WAT     H277163   1.401   2.330   9.311
25641WAT      O77164   2.938   4.388   2.877
25641WAT     H177165   3.033   4.403   2.848
25641WAT     H277166   2.876   4.432   2.813
25642WAT      O77167   2.754   0.773   1.032
25642WAT     H177168   2.726   0.855   0.982
25642WAT     H277169   2.693   0.760   1.110
25643WAT      O77170   8.814   5.024   6.547
25643WAT     H177171   8.913   5.006   6.549
25643WAT     H277172   8.767   4.958   6.605
25644WAT      O77173   0.428   2.509   5.611
25644WAT     H177174   0.462   2.417   5.593
25644WAT     H277175   0.496   2.561   5.662
25645WAT      O77176   3.905   7.576   4.314
25645WAT     H177177   3.905   7.506   4.386
25645WAT     H277178   3.889   7.532   4.225
25646WAT      O77179   6.619   7.480   4.687
25646WAT     H177180   6.634   7.427   4.603
25646WAT     H277181   6.598   7.418   4.762
25647WAT      O77182   0.924   6.006   2.996
25647WAT     H177183   0.953   6.011   3.092
25647WAT     H277184   0.896   6.097   2.966
25648WAT      O77185   4.924   5.458   7.775
25648WAT     H177186   4.850   5.403   7.736
25648WAT     H277187   4.932   5.544   7.723
25649WAT      O77188   1.507   7.552   9.887
25649WAT     H177189   1.567   7.473   9.896
25649WAT     H277190   1.418   7.523   9.852
25650WAT      O77191   7.518   3.559   8.258
25650WAT     H177192   7.590   3.492   8.243
25650WAT     H277193   7.462   3.567   8.175
25651WAT      O77194   1.819   2.975   5.574
25651WAT     H177195   1.906   2.992   5.621
25651WAT     H277196   1.814   2.878   5.549
25652WAT      O77197   7.808   5.676   1.692
25652WAT     H177198   7.895   5.689   1.644
25652WAT     H277199   7.809   5.725   1.779
25653WAT      O77200   4.163   0.792   6.963
25653WAT     H177201   4.253   0.761   6.995
25653WAT     H277202   4.154   0.772   6.865
25654WAT      O77203   7.560   7.211   5.877
25654WAT     H177204   7.609   7.293   5.850
25654WAT     H277205   7.625   7.135   5.887
25655WAT      O77206   5.941   3.717   3.649
25655WAT     H177207   5.916   3.634   3.700
25655WAT     H277208   5.858   3.766   3.624
25656WAT      O77209   1.020   2.940   0.251
25656WAT     H177210   1.041   2.887   0.333
25656WAT     H277211   0.954   2.891   0.195
25657WAT      O77212   1.902   1.239   5.306
25657WAT     H177213   1.839   1.221   5.382
25657WAT     H277214   1.874   1.187   5.226
25658WAT      O77215   3.041   3.832   7.058
25658WAT     H177216   3.062   3.744   7.100
25658WAT     H277217   3.124   3.887   7.052
25659WAT      O77218   5.259   3.209   2.750
25659WAT     H177219   5.176   3.163   2.781
25659WAT     H277220   5.281   3.178   2.657
25660WAT      O77221   0.826   4.121   1.119
25660WAT     H177222   0.781   4.093   1.034
25660WAT     H277223   0.844   4.041   1.175
25661WAT      O77224   3.655   9.503   3.360
25661WAT     H177225   3.711   9.585   3.373
25661WAT     H277226   3.559   9.526   3.373
25662WAT      O77227   6.071   3.631   3.870
25662WAT     H177228   6.031   3.573   3.942
25662WAT     H277229   6.014   3.712   3.857
25663WAT      O77230   1.656   0.260   2.362
25663WAT     H177231   1.696   0.175   2.395
25663WAT     H277232   1.688   0.336   2.418
25664WAT      O77233   7.437   1.064   2.922
25664WAT     H177234   7.485   1.149   2.905
25664WAT     H277235   7.465   0.995   2.855
25665WAT      O77236   3.129   5.680   4.817
25665WAT     H177237   3.111   5.720   4.727
25665WAT     H277238   3.047   5.633   4.849
25666WAT      O77239   3.905   7.320   9.355
25666WAT     H177240   3.870   7.414   9.356
25666WAT     H277241   3.971   7.309   9.430
25667WAT      O77242   9.623   8.603   6.653
25667WAT     H177243   9.598   8.550   6.734
25667WAT     H277244   9.611   8.700   6.671
25668WAT      O77245   6.392   8.662   6.616
25668WAT     H177246   6.492   8.665   6.612
25668WAT     H277247   6.355   8.755   6.617
25669WAT      O77248   4.651   2.147   3.084
25669WAT     H177249   4.688   2.074   3.026
25669WAT     H277250   4.715   2.223   3.086
25670WAT      O77251   3.858   4.395   9.079
25670WAT     H177252   3.794   4.324   9.108
25670WAT     H277253   3.932   4.402   9.146
25671WAT      O77254   5.701   0.729   0.196
25671WAT     H177255   5.698   0.813   0.251
25671WAT     H277256   5.790   0.721   0.151
25672WAT      O77257   2.766   2.955   9.853
25672WAT     H177258   2.803   2.898   9.780
25672WAT     H277259   2.818   2.938   9.937
25673WAT      O77260   7.151   0.261   3.085
25673WAT     H177261   7.244   0.296   3.078
25673WAT     H277262   7.089   0.333   3.116
25674WAT      O77263   6.180   2.813   5.597
25674WAT     H177264   6.209   2.733   5.649
25674WAT     H277265   6.254   2.880   5.593
25675WAT      O77266   7.498   1.592   9.061
25675WAT     H177267   7.548   1.676   9.041
25675WAT     H277268   7.482   1.586   9.160
25676WAT      O77269   9.203   6.185   4.851
25676WAT     H177270   9.172   6.163   4.759
25676WAT     H277271   9.128   6.228   4.902
25677WAT      O77272   6.379   9.209   5.056
25677WAT     H177273   6.468   9.182   5.093
25677WAT     H277274   6.364   9.306   5.074
25678WAT      O77275   0.759   2.374   3.631
25678WAT     H177276   0.719   2.322   3.555
25678WAT     H277277   0.858   2.376   3.622
25679WAT      O77278   7.941   7.825   8.409
25679WAT     H177279   8.008   7.767   8.363
25679WAT     H277280   7.988   7.902   8.451
25680WAT      O77281   4.971   3.147   9.463
25680WAT     H177282   4.894   3.111   9.409
25680WAT     H277283   4.978   3.246   9.448
25681WAT      O77284   6.044   4.776   8.959
25681WAT     H177285   6.011   4.869   8.975
25681WAT     H277286   6.054   4.761   8.861
25682WAT      O77287   2.753   3.834   5.341
25682WAT     H177288   2.833   3.814   5.397
25682WAT     H277289   2.770   3.807   5.246
25683WAT      O77290   3.246   3.549   5.692
25683WAT     H177291   3.292   3.478   5.639
25683WAT     H277292   3.183   3.507   5.757
25684WAT      O77293   2.281   2.783   2.083
25684WAT     H177294   2.272   2.878   2.112
25684WAT     H277295   2.190   2.742   2.074
25685WAT      O77296   3.309   5.684   1.401
25685WAT     H177297   3.355   5.706   1.315
25685WAT     H277298   3.292   5.586   1.406
25686WAT      O77299   2.645   5.566   5.995
25686WAT     H177300   2.566   5.535   6.048
25686WAT     H277301   2.672   5.494   5.932
25687WAT      O77302   7.140   0.475   4.173
25687WAT     H177303   7.098   0.389   4.145
25687WAT     H277304   7.229   0.485   4.128
25688WAT      O77305   7.322   8.627   8.049
25688WAT     H177306   7.242   8.584   8.091
25688WAT     H277307   7.295   8.714   8.007
25689WAT      O77308   5.753   1.339   3.816
25689WAT     H177309   5.815   1.294   3.881
25689WAT     H277310   5.751   1.437   3.834
25690WAT      O77311   8.525   1.097   4.526
25690WAT     H177312   8.591   1.022   4.534
25690WAT     H277313   8.446   1.067   4.472
25691WAT      O77314   5.428   2.181   6.905
25691WAT     H177315   5.445   2.084   6.888
25691WAT     H277316   5.512   2.233   6.888
25692WAT      O77317   4.167   0.299   2.864
25692WAT     H177318   4.166   0.351   2.949
25692WAT     H277319   4.258   0.259   2.851
25693WAT      O77320   4.594   5.665   4.218
25693WAT     H177321   4.579   5.567   4.228
25693WAT     H277322   4.609   5.687   4.122
25694WAT      O77323   3.800   9.192   6.955
25694WAT     H177324   3.715   9.147   6.982
25694WAT     H277325   3.780   9.283   6.920
25695WAT      O77326   8.785   5.238   5.997
25695WAT     H177327   8.696   5.223   6.040
25695WAT     H277328   8.857   5.222   6.064
25696WAT      O77329   0.766   4.272   6.860
25696WAT     H177330   0.762   4.172   6.868
25696WAT     H277331   0.675   4.310   6.874
25697WAT      O77332   3.332   1.990   8.182
25697WAT     H177333   3.294   2.069   8.230
25697WAT     H277334   3.387   2.021   8.104
25698WAT      O77335   4.327   7.496   1.318
25698WAT     H177336   4.251   7.458   1.266
25698WAT     H277337   4.374   7.564   1.262
25699WAT      O77338   6.905   3.381   2.509
25699WAT     H177339   6.819   3.332   2.507
25699WAT     H277340   6.895   3.469   2.463
25700WAT      O77341   1.953   1.232   4.379
25700WAT     H177342   1.874   1.171   4.382
25700WAT     H277343   1.951   1.285   4.295
25701WAT      O77344   1.825   9.375   1.687
25701WAT     H177345   1.819   9.276   1.676
25701WAT     H277346   1.889   9.397   1.760
25702WAT      O77347   0.626   5.546   9.358
25702WAT     H177348   0.667   5.585   9.440
25702WAT     H277349   0.566   5.614   9.315
25703WAT      O77350   7.144   8.759   0.462
25703WAT     H177351   7.163   8.788   0.556
25703WAT     H277352   7.159   8.836   0.399
25704WAT      O77353   1.093   5.006   1.494
25704WAT     H177354   1.150   4.956   1.429
25704WAT     H277355   1.147   5.079   1.536
25705WAT      O77356   7.258   7.379   6.048
25705WAT     H177357   7.344   7.339   6.079
25705WAT     H277358   7.276   7.467   6.005
25706WAT      O77359   1.483   6.220   2.910
25706WAT     H177360   1.498   6.132   2.866
25706WAT     H277361   1.520   6.293   2.852
25707WAT      O77362   1.832   0.114   5.018
25707WAT     H177363   1.829   0.068   5.106
25707WAT     H277364   1.760   0.182   5.013
25708WAT      O77365   2.220   8.307   7.789
25708WAT     H177366   2.138   8.265   7.749
25708WAT     H277367   2.206   8.319   7.888
25709WAT      O77368   0.742   5.806   5.924
25709WAT     H177369   0.745   5.902   5.896
25709WAT     H277370   0.821   5.758   5.886
25710WAT      O77371   2.926   3.465   7.085
25710WAT     H177372   3.016   3.479   7.044
25710WAT     H277373   2.925   3.377   7.133
25711WAT      O77374   7.909   2.622   8.634
25711WAT     H177375   7.846   2.622   8.712
25711WAT     H277376   7.857   2.641   8.550
25712WAT      O77377   8.278   8.385   2.287
25712WAT     H177378   8.263   8.320   2.362
25712WAT     H277379   8.351   8.449   2.313
25713WAT      O77380   1.900   5.435   3.498
25713WAT     H177381   1.995   5.420   3.527
25713WAT     H277382   1.852   5.348   3.493
25714WAT      O77383   8.357   1.836   2.803
25714WAT     H177384   8.346   1.737   2.814
25714WAT     H277385   8.427   1.869   2.866
25715WAT      O77386   7.742   5.674   2.828
25715WAT     H177387   7.829   5.650   2.783
25715WAT     H277388   7.723   5.771   2.813
25716WAT      O77389   6.828   8.250   7.016
25716WAT     H177390   6.740   8.210   6.989
25716WAT     H277391   6.902   8.205   6.968
25717WAT      O77392   7.242   1.033   0.608
25717WAT     H177393   7.250   1.122   0.563
25717WAT     H277394   7.160   1.032   0.666
25718WAT      O77395   2.992   1.136   9.066
25718WAT     H177396   2.972   1.041   9.091
25718WAT     H277397   3.090   1.148   9.052
25719WAT      O77398   9.140   2.096   5.752
25719WAT     H177399   9.106   2.138   5.837
25719WAT     H277400   9.124   2.159   5.676
25720WAT      O77401   7.254   2.239   5.117
25720WAT     H177402   7.258   2.200   5.025
25720WAT     H277403   7.344   2.271   5.143
25721WAT      O77404   5.314   5.752   0.846
25721WAT     H177405   5.249   5.784   0.914
25721WAT     H277406   5.375   5.684   0.887
25722WAT      O77407   6.372   3.910   1.187
25722WAT     H177408   6.281   3.871   1.205
25722WAT     H277409   6.395   3.899   1.090
25723WAT      O77410   2.601   6.489   7.008
25723WAT     H177411   2.570   6.507   6.914
25723WAT     H277412   2.650   6.568   7.043
25724WAT      O77413   8.404   4.541   5.128
25724WAT     H177414   8.394   4.623   5.185
25724WAT     H277415   8.497   4.506   5.136
25725WAT      O77416   2.781   4.932   4.846
25725WAT     H177417   2.864   4.880   4.826
25725WAT     H277418   2.806   5.017   4.892
25726WAT      O77419   2.802   3.236   2.982
25726WAT     H177420   2.725   3.198   3.033
25726WAT     H277421   2.887   3.192   3.013
25727WAT      O77422   0.048   7.406   1.640
25727WAT     H177423   0.127   7.452   1.600
25727WAT     H277424  -0.021   7.475   1.665
25728WAT      O77425   7.940   4.060   1.876
25728WAT     H177426   7.847   4.049   1.842
25728WAT     H277427   7.958   4.157   1.894
25729WAT      O77428   6.727   6.360   4.555
25729WAT     H177429   6.637   6.337   4.519
25729WAT     H277430   6.726   6.453   4.592
25730WAT      O77431   2.797   7.823   7.253
25730WAT     H177432   2.870   7.845   7.318
25730WAT     H277433   2.721   7.888   7.266
25731WAT      O77434   0.025   3.231   8.809
25731WAT     H177435   0.002   3.146   8.856
25731WAT     H277436  -0.013   3.309   8.858
25732WAT      O77437   1.153   2.028   4.414
25732WAT     H177438   1.150   2.075   4.502
25732WAT     H277439   1.188   2.090   4.344
25733WAT      O77440   6.996   1.570   9.617
25733WAT     H177441   6.975   1.613   9.529
25733WAT     H277442   6.966   1.630   9.691
25734WAT      O77443   8.793   4.839   3.516
25734WAT     H177444   8.733   4.905   3.469
25734WAT     H277445   8.752   4.814   3.604
25735WAT      O77446   8.855   6.255   2.268
25735WAT     H177447   8.826   6.202   2.188
25735WAT     H277448   8.852   6.352   2.246
25736WAT      O77449   1.470   1.644   3.114
25736WAT     H177450   1.555   1.594   3.126
25736WAT     H277451   1.476   1.732   3.161
25737WAT      O77452   8.373   6.796   8.270
25737WAT     H177453   8.433   6.835   8.340
25737WAT     H277454   8.417   6.805   8.181
25738WAT      O77455   7.407   2.793   7.608
25738WAT     H177456   7.481   2.731   7.582
25738WAT     H277457   7.351   2.750   7.679
25739WAT      O77458   8.092   1.061   3.014
25739WAT     H177459   8.080   1.160   3.007
25739WAT     H277460   8.015   1.015   2.970
25740WAT      O77461   4.824   8.646   5.041
25740WAT     H177462   4.810   8.574   4.974
25740WAT     H277463   4.890   8.713   5.005
25741WAT      O77464   2.902   1.979   3.053
25741WAT     H177465   3.000   2.002   3.054
25741WAT     H277466   2.852   2.046   3.108
25742WAT      O77467   6.244   8.289   4.400
25742WAT     H177468   6.225   8.363   4.336
25742WAT     H277469   6.180   8.214   4.383
25743WAT      O77470   0.548   4.329   6.995
25743WAT     H177471   0.461   4.310   7.041
25743WAT     H277472   0.624   4.316   7.059
25744WAT      O77473   9.507   6.818   9.202
25744WAT     H177474   9.556   6.774   9.278
25744WAT     H277475   9.491   6.914   9.224
25745WAT      O77476   7.992   9.539   6.806
25745WAT     H177477   7.958   9.496   6.723
25745WAT     H277478   8.053   9.476   6.855
25746WAT      O77479   2.545   2.654   5.475
25746WAT     H177480   2.616   2.696   5.419
25746WAT     H277481   2.580   2.570   5.517
25747WAT      O77482   1.087   9.321   9.413
25747WAT     H177483   1.030   9.399   9.387
25747WAT     H277484   1.177   9.354   9.443
25748WAT      O77485   4.380   4.361   8.700
25748WAT     H177486   4.361   4.457   8.681
25748WAT     H277487   4.347   4.338   8.791
25749WAT      O77488   8.635   9.285   2.059
25749WAT     H177489   8.620   9.224   1.981
25749WAT     H277490   8.707   9.351   2.037
25750WAT      O77491   0.546   3.713   8.228
25750WAT     H177492   0.579   3.629   8.271
25750WAT     H277493   0.611   3.787   8.244
25751WAT      O77494   8.525   5.485   6.872
25751WAT     H177495   8.431   5.462   6.898
25751WAT     H277496   8.538   5.584   6.879
25752WAT      O77497   5.754   6.013   0.587
25752WAT     H177498   5.837   5.991   0.535
25752WAT     H277499   5.769   6.097   0.639
25753WAT      O77500   8.387   9.653   7.640
25753WAT     H177501   8.413   9.693   7.552
25753WAT     H277502   8.418   9.559   7.645
25754WAT      O77503   7.008   8.967   3.066
25754WAT     H177504   6.940   8.904   3.103
25754WAT     H277505   7.046   9.022   3.141
25755WAT      O77506   4.411   7.187   1.164
25755WAT     H177507   4.372   7.196   1.255
25755WAT     H277508   4.473   7.263   1.146
25756WAT      O77509   6.438   0.012   2.260
25756WAT     H177510   6.343  -0.001   2.233
25756WAT     H277511   6.445   0.007   2.360
25757WAT      O77512   5.840   0.782   2.989
25757WAT     H177513   5.799   0.855   3.044
25757WAT     H277514   5.868   0.707   3.049
25758WAT      O77515   4.709   7.648   6.401
25758WAT     H177516   4.799   7.684   6.378
25758WAT     H277517   4.639   7.715   6.378
25759WAT      O77518   4.401   0.197   8.521
25759WAT     H177519   4.327   0.260   8.547
25759WAT     H277520   4.426   0.212   8.426
25760WAT      O77521   9.596   0.009   2.317
25760WAT     H177522   9.649   0.049   2.392
25760WAT     H277523   9.645   0.021   2.231
25761WAT      O77524   6.030   1.856   7.185
25761WAT     H177525   6.110   1.902   7.148
25761WAT     H277526   6.016   1.769   7.137
25762WAT      O77527   1.811   5.345   4.393
25762WAT     H177528   1.738   5.327   4.327
25762WAT     H277529   1.846   5.438   4.380
25763WAT      O77530   8.448   0.986   1.376
25763WAT     H177531   8.538   1.006   1.415
25763WAT     H277532   8.377   1.022   1.436
25764WAT      O77533   3.181   4.026   5.456
25764WAT     H177534   3.276   4.001   5.469
25764WAT     H277535   3.176   4.116   5.413
25765WAT      O77536   7.153   6.765   0.225
25765WAT     H177537   7.078   6.766   0.158
25765WAT     H277538   7.213   6.688   0.207
25766WAT      O77539   2.596   4.171   6.874
25766WAT     H177540   2.649   4.129   6.800
25766WAT     H277541   2.542   4.246   6.837
25767WAT      O77542   5.605   9.571   1.773
25767WAT     H177543   5.690   9.521   1.756
25767WAT     H277544   5.552   9.524   1.844
25768WAT      O77545   6.853   2.348   1.055
25768WAT     H177546   6.838   2.257   1.018
25768WAT     H277547   6.765   2.392   1.073
25769WAT      O77548   9.265   1.251   3.651
25769WAT     H177549   9.342   1.313   3.632
25769WAT     H277550   9.301   1.164   3.683
25770WAT      O77551   1.780   0.071   7.520
25770WAT     H177552   1.785   0.116   7.609
25770WAT     H277553   1.764   0.139   7.449
25771WAT      O77554   5.183   5.895   9.223
25771WAT     H177555   5.247   5.951   9.275
25771WAT     H277556   5.184   5.923   9.127
25772WAT      O77557   4.875   1.170   3.380
25772WAT     H177558   4.872   1.267   3.405
25772WAT     H277559   4.783   1.140   3.354
25773WAT      O77560   2.447   0.095   2.339
25773WAT     H177561   2.467   0.186   2.304
25773WAT     H277562   2.524   0.062   2.393
25774WAT      O77563   2.500   2.667   0.643
25774WAT     H177564   2.443   2.585   0.646
25774WAT     H277565   2.551   2.669   0.557
25775WAT      O77566   4.640   0.104   4.046
25775WAT     H177567   4.602   0.096   4.138
25775WAT     H277568   4.585   0.169   3.993
25776WAT      O77569   3.301   9.373   2.023
25776WAT     H177570   3.263   9.466   2.022
25776WAT     H277571   3.298   9.336   1.930
25777WAT      O77572   5.398   3.828   7.313
25777WAT     H177573   5.469   3.882   7.267
25777WAT     H277574   5.324   3.809   7.250
25778WAT      O77575   0.651   8.474   7.637
25778WAT     H177576   0.735   8.508   7.679
25778WAT     H277577   0.576   8.483   7.702
25779WAT      O77578   6.067   6.151   3.942
25779WAT     H177579   6.151   6.150   3.996
25779WAT     H277580   6.081   6.204   3.859
25780WAT      O77581   8.580   3.767   1.083
25780WAT     H177582   8.498   3.774   1.026
25780WAT     H277583   8.558   3.792   1.177
25781WAT      O77584   7.140   3.255   4.240
25781WAT     H177585   7.201   3.234   4.163
25781WAT     H277586   7.082   3.175   4.258
25782WAT      O77587   6.298   6.802   4.143
25782WAT     H177588   6.352   6.764   4.068
25782WAT     H277589   6.202   6.806   4.116
25783WAT      O77590   1.824   5.118   5.486
25783WAT     H177591   1.835   5.056   5.408
25783WAT     H277592   1.737   5.166   5.478
25784WAT      O77593   4.032   6.920   1.543
25784WAT     H177594   4.076   6.964   1.464
25784WAT     H277595   4.095   6.853   1.582
25785WAT      O77596   7.325   5.488   3.214
25785WAT     H177597   7.351   5.535   3.130
25785WAT     H277598   7.248   5.427   3.196
25786WAT      O77599   0.737   5.452   8.668
25786WAT     H177600   0.791   5.409   8.595
25786WAT     H277601   0.794   5.518   8.717
25787WAT      O77602   7.823   7.418   7.267
25787WAT     H177603   7.782   7.467   7.343
25787WAT     H277604   7.808   7.470   7.182
25788WAT      O77605   7.039   7.664   4.424
25788WAT     H177606   7.032   7.568   4.398
25788WAT     H277607   7.027   7.673   4.523
25789WAT      O77608   4.647   4.790   1.881
25789WAT     H177609   4.729   4.801   1.825
25789WAT     H277610   4.579   4.859   1.855
25790WAT      O77611   9.266   9.035   5.331
25790WAT     H177612   9.304   9.071   5.246
25790WAT     H277613   9.293   8.939   5.341
25791WAT      O77614   1.106   4.815   6.002
25791WAT     H177615   1.022   4.870   6.011
25791WAT     H277616   1.180   4.872   5.967
25792WAT      O77617   5.449   8.494   5.938
25792WAT     H177618   5.518   8.482   6.010
25792WAT     H277619   5.401   8.408   5.922
25793WAT      O77620   4.152   2.021   7.572
25793WAT     H177621   4.160   2.119   7.557
25793WAT     H277622   4.199   1.972   7.499
25794WAT      O77623   4.130   3.626   2.901
25794WAT     H177624   4.130   3.536   2.947
25794WAT     H277625   4.224   3.655   2.885
25795WAT      O77626   7.517   3.297   0.394
25795WAT     H177627   7.571   3.257   0.468
25795WAT     H277628   7.438   3.345   0.433
25796WAT      O77629   2.174   0.216   5.021
25796WAT     H177630   2.176   0.221   4.921
25796WAT     H277631   2.096   0.160   5.049
25797WAT      O77632   8.103   0.621   4.228
25797WAT     H177633   8.112   0.522   4.215
25797WAT     H277634   8.054   0.640   4.313
25798WAT      O77635   1.776   2.244   8.824
25798WAT     H177636   1.799   2.223   8.920
25798WAT     H277637   1.678   2.231   8.810
25799WAT      O77638   6.752   0.315   4.282
25799WAT     H177639   6.656   0.305   4.256
25799WAT     H277640   6.772   0.412   4.298
25800WAT      O77641   9.493   7.833   7.152
25800WAT     H177642   9.440   7.911   7.120
25800WAT     H277643   9.582   7.865   7.187
25801WAT      O77644   9.708   9.290   9.129
25801WAT     H177645   9.719   9.340   9.044
25801WAT     H277646   9.620   9.312   9.170
25802WAT      O77647   1.457   0.970   5.258
25802WAT     H177648   1.367   0.996   5.293
25802WAT     H277649   1.509   1.053   5.237
25803WAT      O77650   7.824   5.838   6.925
25803WAT     H177651   7.822   5.856   7.024
25803WAT     H277652   7.741   5.875   6.883
25804WAT      O77653   2.026   1.311   6.188
25804WAT     H177654   2.042   1.314   6.089
25804WAT     H277655   2.062   1.225   6.225
25805WAT      O77656   3.178   7.852   1.847
25805WAT     H177657   3.128   7.799   1.915
25805WAT     H277658   3.161   7.815   1.756
25806WAT      O77659   2.115   0.987   7.428
25806WAT     H177660   2.203   0.957   7.393
25806WAT     H277661   2.102   1.084   7.406
25807WAT      O77662   8.265   9.777   4.471
25807WAT     H177663   8.292   9.873   4.466
25807WAT     H277664   8.189   9.760   4.408
25808WAT      O77665   9.219   6.712   3.510
25808WAT     H177666   9.289   6.692   3.441
25808WAT     H277667   9.139   6.753   3.465
25809WAT      O77668   9.820   2.053   9.246
25809WAT     H177669   9.841   1.958   9.270
25809WAT     H277670   9.725   2.059   9.216
25810WAT      O77671   0.183   2.354   1.126
25810WAT     H177672   0.133   2.391   1.048
25810WAT     H277673   0.181   2.421   1.201
25811WAT      O77674   7.131   5.149   2.468
25811WAT     H177675   7.170   5.234   2.502
25811WAT     H277676   7.042   5.134   2.511
25812WAT      O77677   1.148   3.877   6.825
25812WAT     H177678   1.204   3.814   6.772
25812WAT     H277679   1.118   3.953   6.766
25813WAT      O77680   1.887   0.671   6.339
25813WAT     H177681   1.797   0.630   6.355
25813WAT     H277682   1.932   0.688   6.427
25814WAT      O77683   8.202   5.921   4.553
25814WAT     H177684   8.187   5.999   4.492
25814WAT     H277685   8.118   5.901   4.603
25815WAT      O77686   3.111   9.535   0.020
25815WAT     H177687   3.071   9.491   0.101
25815WAT     H277688   3.080   9.630   0.015
25816WAT      O77689   2.195   1.699   7.495
25816WAT     H177690   2.262   1.752   7.443
25816WAT     H277691   2.111   1.690   7.442
25817WAT      O77692   3.584   0.288   7.554
25817WAT     H177693   3.529   0.207   7.535
25817WAT     H277694   3.544   0.367   7.507
25818WAT      O77695   5.766   6.332   3.291
25818WAT     H177696   5.704   6.328   3.212
25818WAT     H277697   5.809   6.242   3.303
25819WAT      O77698   7.512   0.984   8.789
25819WAT     H177699   7.428   0.981   8.736
25819WAT     H277700   7.580   0.923   8.748
25820WAT      O77701   9.193   4.475   2.299
25820WAT     H177702   9.150   4.440   2.215
25820WAT     H277703   9.126   4.526   2.352
25821WAT      O77704   6.589   2.052   9.796
25821WAT     H177705   6.643   2.057   9.881
25821WAT     H277706   6.564   1.957   9.778
25822WAT      O77707   9.113   3.944   9.655
25822WAT     H177708   9.189   4.009   9.648
25822WAT     H277709   9.028   3.991   9.633
25823WAT      O77710   9.671   1.677   8.280
25823WAT     H177711   9.677   1.771   8.312
25823WAT     H277712   9.707   1.615   8.350
25824WAT      O77713   1.686   6.467   2.362
25824WAT     H177714   1.671   6.392   2.298
25824WAT     H277715   1.609   6.530   2.359
25825WAT      O77716   3.250   0.818   1.971
25825WAT     H177717   3.279   0.766   2.051
25825WAT     H277718   3.166   0.868   1.992
25826WAT      O77719   0.161   1.289   5.454
25826WAT     H177720   0.222   1.357   5.496
25826WAT     H277721   0.184   1.198   5.488
25827WAT      O77722  -0.002   2.601   9.197
25827WAT     H177723   0.022   2.504   9.202
25827WAT     H277724   0.080   2.655   9.178
25828WAT      O77725   4.264   3.944   5.943
25828WAT     H177726   4.289   3.995   6.025
25828WAT     H277727   4.281   3.847   5.957
25829WAT      O77728   0.253   9.492   4.983
25829WAT     H177729   0.196   9.454   5.055
25829WAT     H277730   0.347   9.500   5.016
25830WAT      O77731   3.152   7.296   8.964
25830WAT     H177732   3.207   7.220   8.999
25830WAT     H277733   3.188   7.382   9.000
25831WAT      O77734   3.718   3.264   7.521
25831WAT     H177735   3.690   3.358   7.504
25831WAT     H277736   3.680   3.233   7.608
25832WAT      O77737   5.276   6.529   8.536
25832WAT     H177738   5.306   6.507   8.629
25832WAT     H277739   5.315   6.616   8.508
25833WAT      O77740   2.335   6.646   5.733
25833WAT     H177741   2.361   6.741   5.754
25833WAT     H277742   2.416   6.596   5.703
25834WAT      O77743   3.244   7.275   1.383
25834WAT     H177744   3.149   7.257   1.408
25834WAT     H277745   3.304   7.208   1.428
25835WAT      O77746   5.057   0.740   2.323
25835WAT     H177747   5.119   0.760   2.247
25835WAT     H277748   5.088   0.788   2.405
25836WAT      O77749   9.422   0.430   5.898
25836WAT     H177750   9.443   0.443   5.801
25836WAT     H277751   9.498   0.463   5.954
25837WAT      O77752   3.227   4.053   3.181
25837WAT     H177753   3.284   4.043   3.100
25837WAT     H277754   3.210   4.151   3.198
25838WAT      O77755   8.930   8.438   1.433
25838WAT     H177756   8.903   8.527   1.396
25838WAT     H277757   8.976   8.385   1.362
25839WAT      O77758   5.950   7.403   4.864
25839WAT     H177759   5.891   7.466   4.915
25839WAT     H277760   5.899   7.318   4.846
25840WAT      O77761   3.550   4.814   3.216
25840WAT     H177762   3.482   4.823   3.289
25840WAT     H277763   3.590   4.903   3.196
25841WAT      O77764   0.380   6.453   0.755
25841WAT     H177765   0.309   6.390   0.785
25841WAT     H277766   0.339   6.539   0.726
25842WAT      O77767   7.280   2.269   7.323
25842WAT     H177768   7.246   2.213   7.248
25842WAT     H277769   7.260   2.365   7.303
25843WAT      O77770   3.854   7.387   3.544
25843WAT     H177771   3.785   7.380   3.617
25843WAT     H277772   3.808   7.388   3.455
25844WAT      O77773   9.576   9.493   7.760
25844WAT     H177774   9.491   9.450   7.728
25844WAT     H277775   9.581   9.486   7.859
25845WAT      O77776   9.028   6.404   0.546
25845WAT     H177777   9.010   6.305   0.542
25845WAT     H277778   8.946   6.453   0.518
25846WAT      O77779   9.389   6.145   0.937
25846WAT     H177780   9.392   6.183   1.029
25846WAT     H277781   9.389   6.220   0.870
25847WAT      O77782   2.279   5.190   3.697
25847WAT     H177783   2.261   5.147   3.609
25847WAT     H277784   2.360   5.149   3.738
25848WAT      O77785   2.056   0.164   4.586
25848WAT     H177786   2.051   0.094   4.514
25848WAT     H277787   1.964   0.181   4.622
25849WAT      O77788   5.085   1.050   4.107
25849WAT     H177789   5.009   1.062   4.172
25849WAT     H277790   5.061   1.093   4.020
25850WAT      O77791   4.540   5.671   8.390
25850WAT     H177792   4.629   5.692   8.431
25850WAT     H277793   4.536   5.574   8.365
25851WAT      O77794   1.573   3.379   7.789
25851WAT     H177795   1.616   3.323   7.718
25851WAT     H277796   1.474   3.362   7.788
25852WAT      O77797   0.760   0.984   7.054
25852WAT     H177798   0.806   1.072   7.065
25852WAT     H277799   0.733   0.972   6.959
25853WAT      O77800   0.507   1.349   9.734
25853WAT     H177801   0.456   1.373   9.817
25853WAT     H277802   0.446   1.354   9.655
25854WAT      O77803   7.954   8.353   1.265
25854WAT     H177804   8.004   8.404   1.196
25854WAT     H277805   7.921   8.415   1.336
25855WAT      O77806   7.102   1.123   2.053
25855WAT     H177807   7.125   1.080   2.140
25855WAT     H277808   7.172   1.191   2.030
25856WAT      O77809   9.384   3.622   8.478
25856WAT     H177810   9.327   3.596   8.556
25856WAT     H277811   9.383   3.548   8.410
25857WAT      O77812   9.800   1.995   2.419
25857WAT     H177813   9.736   2.052   2.470
25857WAT     H277814   9.765   1.979   2.327
25858WAT      O77815   3.423   6.298   0.877
25858WAT     H177816   3.517   6.269   0.860
25858WAT     H277817   3.391   6.355   0.801
25859WAT      O77818   4.980   4.951   0.785
25859WAT     H177819   4.958   4.888   0.710
25859WAT     H277820   5.052   4.912   0.842
25860WAT      O77821   3.500   8.480   0.780
25860WAT     H177822   3.530   8.400   0.832
25860WAT     H277823   3.477   8.453   0.687
25861WAT      O77824   3.122   2.257   3.007
25861WAT     H177825   3.143   2.162   3.029
25861WAT     H277826   3.134   2.272   2.909
25862WAT      O77827   6.869   8.635   8.299
25862WAT     H177828   6.831   8.567   8.362
25862WAT     H277829   6.952   8.674   8.339
25863WAT      O77830   7.445   8.124   8.311
25863WAT     H177831   7.459   8.132   8.409
25863WAT     H277832   7.395   8.204   8.278
25864WAT      O77833   2.464   5.125   9.861
25864WAT     H177834   2.530   5.102   9.789
25864WAT     H277835   2.419   5.211   9.838
25865WAT      O77836   3.436   9.158   9.544
25865WAT     H177837   3.369   9.118   9.481
25865WAT     H277838   3.392   9.231   9.597
25866WAT      O77839   5.716   6.158   9.857
25866WAT     H177840   5.750   6.216   9.932
25866WAT     H277841   5.773   6.173   9.776
25867WAT      O77842   7.423   2.851   4.270
25867WAT     H177843   7.459   2.779   4.210
25867WAT     H277844   7.425   2.819   4.365
25868WAT      O77845   3.146   0.421   4.618
25868WAT     H177846   3.209   0.362   4.668
25868WAT     H277847   3.062   0.371   4.598
25869WAT      O77848   5.274   2.384   7.234
25869WAT     H177849   5.187   2.434   7.226
25869WAT     H277850   5.297   2.374   7.331
25870WAT      O77851   8.108   6.413   7.153
25870WAT     H177852   8.097   6.342   7.083
25870WAT     H277853   8.090   6.502   7.113
25871WAT      O77854   2.936   3.237   8.860
25871WAT     H177855   2.873   3.214   8.934
25871WAT     H277856   2.986   3.320   8.884
25872WAT      O77857   2.169   6.346   6.388
25872WAT     H177858   2.140   6.251   6.379
25872WAT     H277859   2.223   6.372   6.308
25873WAT      O77860   6.126   1.910   0.700
25873WAT     H177861   6.036   1.915   0.743
25873WAT     H277862   6.181   1.840   0.745
25874WAT      O77863   5.078   1.732   3.365
25874WAT     H177864   5.028   1.784   3.434
25874WAT     H277865   5.175   1.731   3.389
25875WAT      O77866   8.114   6.962   4.700
25875WAT     H177867   8.053   7.003   4.633
25875WAT     H277868   8.207   6.995   4.687
25876WAT      O77869   7.710   2.100   0.929
25876WAT     H177870   7.762   2.015   0.931
25876WAT     H277871   7.631   2.090   0.868
25877WAT      O77872   4.711   3.283   8.257
25877WAT     H177873   4.688   3.372   8.297
25877WAT     H277874   4.769   3.232   8.321
25878WAT      O77875   8.870   9.497   2.190
25878WAT     H177876   8.779   9.538   2.195
25878WAT     H277877   8.903   9.475   2.282
25879WAT      O77878   5.060   1.043   0.671
25879WAT     H177879   5.090   1.028   0.765
25879WAT     H277880   5.103   0.975   0.611
25880WAT      O77881   1.423   0.698   3.912
25880WAT     H177882   1.451   0.788   3.878
25880WAT     H277883   1.329   0.680   3.885
25881WAT      O77884   1.431   7.178   1.020
25881WAT     H177885   1.397   7.120   1.094
25881WAT     H277886   1.364   7.249   1.000
25882WAT      O77887   7.063   5.582   2.621
25882WAT     H177888   7.007   5.551   2.698
25882WAT     H277889   7.030   5.671   2.589
25883WAT      O77890   3.266   3.621   7.530
25883WAT     H177891   3.330   3.556   7.488
25883WAT     H277892   3.317   3.698   7.568
25884WAT      O77893   8.613   3.446   5.436
25884WAT     H177894   8.702   3.408   5.462
25884WAT     H277895   8.622   3.545   5.420
25885WAT      O77896   8.336   5.354   4.988
25885WAT     H177897   8.312   5.379   4.895
25885WAT     H277898   8.414   5.409   5.019
25886WAT      O77899   4.334   6.923   9.837
25886WAT     H177900   4.371   7.011   9.809
25886WAT     H277901   4.309   6.870   9.756
25887WAT      O77902   0.911   2.281   5.138
25887WAT     H177903   0.819   2.298   5.102
25887WAT     H277904   0.940   2.359   5.192
25888WAT      O77905   5.877   7.280   8.375
25888WAT     H177906   5.841   7.344   8.306
25888WAT     H277907   5.861   7.317   8.466
25889WAT      O77908   8.126   2.103   6.766
25889WAT     H177909   8.114   2.019   6.818
25889WAT     H277910   8.209   2.150   6.798
25890WAT      O77911   0.225   2.757   8.208
25890WAT     H177912   0.186   2.715   8.126
25890WAT     H277913   0.293   2.825   8.181
25891WAT      O77914   5.753   8.560   6.056
25891WAT     H177915   5.703   8.479   6.086
25891WAT     H277916   5.850   8.551   6.081
25892WAT      O77917   2.658   8.274   3.767
25892WAT     H177918   2.589   8.339   3.736
25892WAT     H277919   2.658   8.269   3.867
25893WAT      O77920   3.603   0.884   8.439
25893WAT     H177921   3.668   0.851   8.370
25893WAT     H277922   3.515   0.903   8.395
25894WAT      O77923   3.356   3.317   1.326
25894WAT     H177924   3.355   3.339   1.228
25894WAT     H277925   3.394   3.394   1.377
25895WAT      O77926   1.854   3.564   2.656
25895WAT     H177927   1.862   3.501   2.734
25895WAT     H277928   1.774   3.541   2.601
25896WAT      O77929   3.867   1.210   8.358
25896WAT     H177930   3.926   1.263   8.298
25896WAT     H277931   3.785   1.182   8.308
25897WAT      O77932   9.819   5.044   9.558
25897WAT     H177933   9.823   5.111   9.633
25897WAT     H277934   9.745   5.068   9.496
25898WAT      O77935   6.324   8.236   6.970
25898WAT     H177936   6.321   8.177   6.889
25898WAT     H277937   6.308   8.331   6.943
25899WAT      O77938   6.280   8.575   5.911
25899WAT     H177939   6.350   8.506   5.925
25899WAT     H277940   6.229   8.556   5.827
25900WAT      O77941   1.050   1.802   6.419
25900WAT     H177942   1.114   1.726   6.428
25900WAT     H277943   1.000   1.814   6.505
25901WAT      O77944   1.944   0.426   4.346
25901WAT     H177945   1.925   0.329   4.363
25901WAT     H277946   1.977   0.468   4.430
25902WAT      O77947   9.117   6.738   4.483
25902WAT     H177948   9.126   6.639   4.485
25902WAT     H277949   9.102   6.768   4.388
25903WAT      O77950   4.001   1.318   1.716
25903WAT     H177951   4.061   1.312   1.796
25903WAT     H277952   3.940   1.396   1.726
25904WAT      O77953   2.395   6.643   2.423
25904WAT     H177954   2.379   6.545   2.411
25904WAT     H277955   2.311   6.686   2.459
25905WAT      O77956   5.624   8.519   1.983
25905WAT     H177957   5.535   8.561   1.999
25905WAT     H277958   5.612   8.433   1.933
25906WAT      O77959   9.366   8.281   8.779
25906WAT     H177960   9.463   8.305   8.783
25906WAT     H277961   9.346   8.239   8.691
25907WAT      O77962   6.426   7.864   2.445
25907WAT     H177963   6.353   7.796   2.453
25907WAT     H277964   6.426   7.903   2.353
25908WAT      O77965   0.899   2.094   6.514
25908WAT     H177966   0.963   2.168   6.531
25908WAT     H277967   0.926   2.012   6.565
25909WAT      O77968   1.329   6.166   6.391
25909WAT     H177969   1.399   6.135   6.455
25909WAT     H277970   1.284   6.247   6.428
25910WAT      O77971   9.405   0.403   0.485
25910WAT     H177972   9.479   0.337   0.469
25910WAT     H277973   9.439   0.496   0.467
25911WAT      O77974   2.860   5.336   1.033
25911WAT     H177975   2.816   5.325   1.123
25911WAT     H277976   2.790   5.353   0.964
25912WAT      O77977   9.612   1.014   7.219
25912WAT     H177978   9.543   0.963   7.270
25912WAT     H277979   9.703   0.986   7.250
25913WAT      O77980   2.727   5.680   7.135
25913WAT     H177981   2.709   5.731   7.219
25913WAT     H277982   2.769   5.740   7.068
25914WAT      O77983   5.990   7.887   0.350
25914WAT     H177984   5.985   7.844   0.259
25914WAT     H277985   5.954   7.980   0.345
25915WAT      O77986   6.749   2.123   0.124
25915WAT     H177987   6.813   2.191   0.087
25915WAT     H277988   6.774   2.101   0.218
25916WAT      O77989   6.643   6.436   4.987
25916WAT     H177990   6.722   6.466   4.933
25916WAT     H277991   6.647   6.477   5.078
25917WAT      O77992   4.512   2.755   4.981
25917WAT     H177993   4.507   2.783   5.077
25917WAT     H277994   4.474   2.663   4.971
25918WAT      O77995   7.419   4.830   8.998
25918WAT     H177996   7.455   4.779   8.920
25918WAT     H277997   7.323   4.853   8.982
25919WAT      O77998   6.709   6.548   8.287
25919WAT     H177999   6.706   6.464   8.341
25919WAT     H278000   6.772   6.536   8.210
25920WAT      O78001   0.277   4.411   9.411
25920WAT     H178002   0.330   4.390   9.329
25920WAT     H278003   0.293   4.506   9.438
25921WAT      O78004   1.800   1.396   2.082
25921WAT     H178005   1.752   1.340   2.150
25921WAT     H278006   1.766   1.489   2.084
25922WAT      O78007   3.490   4.134   3.975
25922WAT     H178008   3.398   4.174   3.967
25922WAT     H278009   3.481   4.035   3.992
25923WAT      O78010   9.255   4.860   4.056
25923WAT     H178011   9.334   4.831   4.002
25923WAT     H278012   9.280   4.940   4.112
25924WAT      O78013   5.437   4.140   2.365
25924WAT     H178014   5.447   4.154   2.463
25924WAT     H278015   5.357   4.190   2.332
25925WAT      O78016   5.775   5.854   9.226
25925WAT     H178017   5.855   5.800   9.250
25925WAT     H278018   5.709   5.852   9.301
25926WAT      O78019   2.803   1.011   0.100
25926WAT     H178020   2.735   1.016   0.026
25926WAT     H278021   2.764   1.049   0.184
25927WAT      O78022   9.716   3.744   0.521
25927WAT     H178023   9.668   3.664   0.486
25927WAT     H278024   9.653   3.821   0.528
25928WAT      O78025   7.706   0.882   3.617
25928WAT     H178026   7.654   0.953   3.664
25928WAT     H278027   7.783   0.854   3.674
25929WAT      O78028   8.506   1.070   0.459
25929WAT     H178029   8.543   1.140   0.521
25929WAT     H278030   8.533   0.980   0.492
25930WAT      O78031   4.891   0.969   9.249
25930WAT     H178032   4.985   0.972   9.216
25930WAT     H278033   4.835   1.033   9.195
25931WAT      O78034   9.757   1.682   9.571
25931WAT     H178035   9.693   1.716   9.640
25931WAT     H278036   9.850   1.682   9.608
25932WAT      O78037   5.304   0.311   9.857
25932WAT     H178038   5.363   0.263   9.793
25932WAT     H278039   5.306   0.409   9.838
25933WAT      O78040   5.657   8.326   6.543
25933WAT     H178041   5.719   8.312   6.620
25933WAT     H278042   5.658   8.423   6.517
25934WAT      O78043   1.567   9.611   3.665
25934WAT     H178044   1.618   9.588   3.748
25934WAT     H278045   1.598   9.699   3.629
25935WAT      O78046   0.336   6.998   4.992
25935WAT     H178047   0.350   7.083   4.940
25935WAT     H278048   0.352   6.919   4.933
25936WAT      O78049   4.590   1.767   5.279
25936WAT     H178050   4.557   1.855   5.246
25936WAT     H278051   4.568   1.696   5.212
25937WAT      O78052   5.954   2.832   8.829
25937WAT     H178053   5.885   2.902   8.846
25937WAT     H278054   5.948   2.760   8.897
25938WAT      O78055   9.513   3.655   7.017
25938WAT     H178056   9.506   3.726   6.947
25938WAT     H278057   9.430   3.599   7.016
25939WAT      O78058   8.722   2.876   0.281
25939WAT     H178059   8.658   2.950   0.257
25939WAT     H278060   8.677   2.788   0.267
25940WAT      O78061   6.677   0.055   1.273
25940WAT     H178062   6.723   0.099   1.349
25940WAT     H278063   6.625  -0.024   1.306
25941WAT      O78064   0.304   7.969   5.756
25941WAT     H178065   0.239   7.955   5.829
25941WAT     H278066   0.363   7.889   5.747
25942WAT      O78067   3.875   0.882   5.776
25942WAT     H178068   3.814   0.953   5.813
25942WAT     H278069   3.966   0.920   5.761
25943WAT      O78070   6.194   2.896   0.354
25943WAT     H178071   6.107   2.867   0.314
25943WAT     H278072   6.251   2.815   0.373
25944WAT      O78073   8.479   0.604   6.981
25944WAT     H178074   8.520   0.631   7.069
25944WAT     H278075   8.387   0.641   6.975
25945WAT      O78076   0.548   4.854   4.075
25945WAT     H178077   0.584   4.761   4.077
25945WAT     H278078   0.529   4.885   4.168
25946WAT      O78079   2.739   2.326   2.147
25946WAT     H178080   2.668   2.266   2.110
25946WAT     H278081   2.716   2.421   2.130
25947WAT      O78082   7.050   1.057   2.341
25947WAT     H178083   7.076   1.154   2.336
25947WAT     H278084   7.125   1.005   2.383
25948WAT      O78085   6.186   8.127   8.247
25948WAT     H178086   6.215   8.213   8.289
25948WAT     H278087   6.243   8.108   8.167
25949WAT      O78088   7.781   7.288   0.868
25949WAT     H178089   7.821   7.215   0.923
25949WAT     H278090   7.727   7.249   0.794
25950WAT      O78091   0.780   1.722   2.957
25950WAT     H178092   0.710   1.758   2.895
25950WAT     H278093   0.795   1.787   3.032
25951WAT      O78094   3.180   3.186   6.895
25951WAT     H178095   3.251   3.117   6.905
25951WAT     H278096   3.096   3.143   6.861
25952WAT      O78097   9.253   7.426   7.265
25952WAT     H178098   9.218   7.469   7.348
25952WAT     H278099   9.344   7.463   7.245
25953WAT      O78100   0.326   6.624   2.349
25953WAT     H178101   0.337   6.612   2.448
25953WAT     H278102   0.389   6.563   2.301
25954WAT      O78103   7.264   7.850   8.604
25954WAT     H178104   7.332   7.787   8.568
25954WAT     H278105   7.217   7.895   8.529
25955WAT      O78106   5.136   4.566   2.503
25955WAT     H178107   5.097   4.504   2.572
25955WAT     H278108   5.221   4.606   2.538
25956WAT      O78109   0.707   1.092   5.631
25956WAT     H178110   0.629   1.102   5.692
25956WAT     H278111   0.709   1.168   5.566
25957WAT      O78112   2.746   3.273   1.065
25957WAT     H178113   2.770   3.363   1.030
25957WAT     H278114   2.824   3.234   1.115
25958WAT      O78115   5.465   7.903   2.491
25958WAT     H178116   5.488   7.808   2.470
25958WAT     H278117   5.406   7.940   2.420
25959WAT      O78118   7.335   9.717   1.732
25959WAT     H178119   7.320   9.653   1.657
25959WAT     H278120   7.431   9.711   1.762
25960WAT      O78121   8.278   1.121   5.877
25960WAT     H178122   8.292   1.023   5.872
25960WAT     H278123   8.249   1.155   5.788
25961WAT      O78124   4.114   2.230   4.914
25961WAT     H178125   4.171   2.265   4.988
25961WAT     H278126   4.172   2.190   4.843
25962WAT      O78127   0.850   5.332   7.125
25962WAT     H178128   0.895   5.257   7.173
25962WAT     H278129   0.919   5.392   7.085
25963WAT      O78130   8.891   4.589   0.338
25963WAT     H178131   8.976   4.609   0.387
25963WAT     H278132   8.829   4.666   0.346
25964WAT      O78133   1.432   4.082   9.039
25964WAT     H178134   1.451   4.135   9.122
25964WAT     H278135   1.519   4.052   8.998
25965WAT      O78136   1.656   4.551   4.147
25965WAT     H178137   1.653   4.465   4.096
25965WAT     H278138   1.683   4.626   4.086
25966WAT      O78139   1.981   0.091   6.039
25966WAT     H178140   1.956  -0.006   6.035
25966WAT     H278141   1.904   0.146   6.005
25967WAT      O78142   0.625   3.956   4.862
25967WAT     H178143   0.665   4.045   4.840
25967WAT     H278144   0.557   3.931   4.793
25968WAT      O78145   2.989   5.889   1.579
25968WAT     H178146   3.089   5.893   1.569
25968WAT     H278147   2.948   5.849   1.498
25969WAT      O78148   1.108   3.076   1.644
25969WAT     H178149   1.176   3.098   1.575
25969WAT     H278150   1.145   3.092   1.735
25970WAT      O78151   3.805   0.320   0.203
25970WAT     H178152   3.825   0.283   0.112
25970WAT     H278153   3.707   0.317   0.219
25971WAT      O78154   3.398   1.863   2.990
25971WAT     H178155   3.480   1.920   2.978
25971WAT     H278156   3.408   1.809   3.074
25972WAT      O78157   3.256   1.626   0.527
25972WAT     H178158   3.161   1.655   0.543
25972WAT     H278159   3.316   1.674   0.590
25973WAT      O78160   2.521   8.417   4.833
25973WAT     H178161   2.499   8.485   4.763
25973WAT     H278162   2.513   8.458   4.924
25974WAT      O78163   2.483   1.056   1.720
25974WAT     H178164   2.546   0.993   1.674
25974WAT     H278165   2.466   1.023   1.813
25975WAT      O78166   8.910   9.602   8.886
25975WAT     H178167   8.930   9.686   8.836
25975WAT     H278168   8.904   9.526   8.821
25976WAT      O78169   7.036   3.387   7.323
25976WAT     H178170   6.947   3.428   7.339
25976WAT     H278171   7.060   3.396   7.226
25977WAT      O78172   0.363   2.794   7.291
25977WAT     H178173   0.383   2.882   7.247
25977WAT     H278174   0.320   2.732   7.225
25978WAT      O78175   7.808   8.325   3.050
25978WAT     H178176   7.841   8.384   3.124
25978WAT     H278177   7.744   8.258   3.088
25979WAT      O78178   6.200   5.738   0.906
25979WAT     H178179   6.253   5.816   0.874
25979WAT     H278180   6.102   5.758   0.894
25980WAT      O78181   9.606   0.066   4.422
25980WAT     H178182   9.508   0.084   4.414
25980WAT     H278183   9.653   0.102   4.342
25981WAT      O78184   4.284   1.995   5.855
25981WAT     H178185   4.318   2.071   5.799
25981WAT     H278186   4.307   2.012   5.951
25982WAT      O78187   4.308   2.160   0.886
25982WAT     H178188   4.220   2.157   0.838
25982WAT     H278189   4.305   2.233   0.955
25983WAT      O78190   2.352   0.233   8.151
25983WAT     H178191   2.371   0.167   8.078
25983WAT     H278192   2.299   0.309   8.114
25984WAT      O78193   4.329   9.154   0.568
25984WAT     H178194   4.328   9.177   0.470
25984WAT     H278195   4.235   9.137   0.599
25985WAT      O78196   1.780   8.962   0.858
25985WAT     H178197   1.799   9.055   0.888
25985WAT     H278198   1.700   8.927   0.907
25986WAT      O78199   7.263   4.511   2.934
25986WAT     H178200   7.204   4.577   2.981
25986WAT     H278201   7.227   4.495   2.842
25987WAT      O78202   4.989   0.707   1.581
25987WAT     H178203   4.894   0.738   1.589
25987WAT     H278204   5.050   0.777   1.619
25988WAT      O78205   7.610   7.271   0.609
25988WAT     H178206   7.615   7.173   0.628
25988WAT     H278207   7.683   7.297   0.547
25989WAT      O78208   2.425   9.271   8.301
25989WAT     H178209   2.403   9.182   8.261
25989WAT     H278210   2.406   9.270   8.399
25990WAT      O78211   1.871   4.886   3.735
25990WAT     H178212   1.844   4.852   3.825
25990WAT     H278213   1.888   4.985   3.741
25991WAT      O78214   5.723   1.047   1.260
25991WAT     H178215   5.800   0.985   1.277
25991WAT     H278216   5.639   0.995   1.252
25992WAT      O78217   4.993   3.918   7.062
25992WAT     H178218   5.021   4.008   7.096
25992WAT     H278219   5.067   3.852   7.079
25993WAT      O78220   8.243   8.385   4.561
25993WAT     H178221   8.158   8.427   4.591
25993WAT     H278222   8.318   8.416   4.620
25994WAT      O78223   9.402   0.320   3.400
25994WAT     H178224   9.398   0.221   3.413
25994WAT     H278225   9.313   0.360   3.420
25995WAT      O78226   4.687   5.828   2.982
25995WAT     H178227   4.730   5.889   2.916
25995WAT     H278228   4.592   5.811   2.956
25996WAT      O78229   7.054   5.081   3.348
25996WAT     H178230   6.965   5.036   3.339
25996WAT     H278231   7.056   5.135   3.432
25997WAT      O78232   7.999   2.738   2.646
25997WAT     H178233   7.930   2.770   2.711
25997WAT     H278234   8.004   2.802   2.569
25998WAT      O78235   0.484   5.314   6.242
25998WAT     H178236   0.442   5.287   6.329
25998WAT     H278237   0.437   5.395   6.206
25999WAT      O78238   0.140   1.372   6.589
25999WAT     H178239   0.040   1.361   6.587
25999WAT     H278240   0.179   1.314   6.660
26000WAT      O78241   5.927   5.702   0.898
26000WAT     H178242   5.884   5.793   0.894
26000WAT     H278243   5.857   5.632   0.885
26001WAT      O78244   6.358   3.001   5.611
26001WAT     H178245   6.408   3.030   5.529
26001WAT     H278246   6.323   3.082   5.658
26002WAT      O78247   9.012   5.973   3.772
26002WAT     H178248   9.043   5.945   3.862
26002WAT     H278249   8.963   5.897   3.729
26003WAT      O78250   1.302   9.081   0.098
26003WAT     H178251   1.219   9.131   0.074
26003WAT     H278252   1.337   9.115   0.185
26004WAT      O78253   4.492   8.566   6.123
26004WAT     H178254   4.501   8.478   6.171
26004WAT     H278255   4.545   8.564   6.039
26005WAT      O78256   8.859   3.023   3.030
26005WAT     H178257   8.852   2.937   3.081
26005WAT     H278258   8.925   3.013   2.955
26006WAT      O78259   6.974   7.936   2.632
26006WAT     H178260   7.035   7.910   2.707
26006WAT     H278261   7.001   8.026   2.598
26007WAT      O78262   1.082   5.683   2.400
26007WAT     H178263   1.111   5.716   2.310
26007WAT     H278264   1.152   5.622   2.437
26008WAT      O78265   8.126   5.116   0.358
26008WAT     H178266   8.038   5.161   0.369
26008WAT     H278267   8.189   5.176   0.309
26009WAT      O78268   4.159   9.644   9.222
26009WAT     H178269   4.174   9.558   9.175
26009WAT     H278270   4.069   9.680   9.197
26010WAT      O78271   6.895   7.260   6.605
26010WAT     H178272   6.901   7.297   6.513
26010WAT     H278273   6.882   7.161   6.601
26011WAT      O78274   4.848   4.097   5.159
26011WAT     H178275   4.803   4.186   5.161
26011WAT     H278276   4.859   4.067   5.064
26012WAT      O78277   9.599   0.583   8.552
26012WAT     H178278   9.574   0.537   8.637
26012WAT     H278279   9.577   0.524   8.474
26013WAT      O78280   7.756   1.097   2.881
26013WAT     H178281   7.773   1.155   2.961
26013WAT     H278282   7.762   1.151   2.798
26014WAT      O78283   5.964   7.635   6.656
26014WAT     H178284   6.060   7.627   6.685
26014WAT     H278285   5.950   7.723   6.611
26015WAT      O78286   2.480   5.873   5.244
26015WAT     H178287   2.528   5.803   5.296
26015WAT     H278288   2.433   5.831   5.167
26016WAT      O78289   8.753   0.637   7.957
26016WAT     H178290   8.749   0.696   7.876
26016WAT     H278291   8.664   0.594   7.969
26017WAT      O78292   6.061   6.457   3.971
26017WAT     H178293   6.134   6.406   4.018
26017WAT     H278294   6.101   6.527   3.912
26018WAT      O78295   3.251   4.205   3.953
26018WAT     H178296   3.170   4.153   3.927
26018WAT     H278297   3.236   4.302   3.935
26019WAT      O78298   5.847   9.586   3.376
26019WAT     H178299   5.913   9.511   3.374
26019WAT     H278300   5.833   9.620   3.282
26020WAT      O78301   0.387   2.539   6.487
26020WAT     H178302   0.378   2.441   6.469
26020WAT     H278303   0.323   2.589   6.429
26021WAT      O78304   4.533   5.791   2.128
26021WAT     H178305   4.497   5.883   2.142
26021WAT     H278306   4.595   5.768   2.204
26022WAT      O78307   9.450   4.566   9.853
26022WAT     H178308   9.367   4.526   9.891
26022WAT     H278309   9.443   4.570   9.753
26023WAT      O78310   0.585   0.505   6.093
26023WAT     H178311   0.641   0.435   6.049
26023WAT     H278312   0.641   0.558   6.156
26024WAT      O78313   9.342   1.931   8.382
26024WAT     H178314   9.343   1.859   8.451
26024WAT     H278315   9.251   1.972   8.378
26025WAT      O78316   5.808   5.948   5.459
26025WAT     H178317   5.852   5.878   5.402
26025WAT     H278318   5.878   6.011   5.494
26026WAT      O78319   4.247   6.037   0.676
26026WAT     H178320   4.230   5.962   0.612
26026WAT     H278321   4.333   6.082   0.651
26027WAT      O78322   6.852   7.019   3.919
26027WAT     H178323   6.937   6.970   3.902
26027WAT     H278324   6.807   7.039   3.832
26028WAT      O78325   3.938   5.664   2.894
26028WAT     H178326   3.956   5.614   2.809
26028WAT     H278327   3.886   5.747   2.874
26029WAT      O78328   6.716   8.112   9.612
26029WAT     H178329   6.653   8.065   9.674
26029WAT     H278330   6.712   8.211   9.629
26030WAT      O78331   2.388   4.727   6.247
26030WAT     H178332   2.487   4.715   6.255
26030WAT     H278333   2.342   4.656   6.299
26031WAT      O78334   4.952   7.728   4.639
26031WAT     H178335   4.946   7.827   4.652
26031WAT     H278336   4.964   7.684   4.728
26032WAT      O78337   2.079   4.655   5.019
26032WAT     H178338   2.027   4.591   4.963
26032WAT     H278339   2.170   4.668   4.979
26033WAT      O78340   0.457   1.619   4.463
26033WAT     H178341   0.553   1.647   4.469
26033WAT     H278342   0.426   1.587   4.553
26034WAT      O78343   6.385   4.868   9.099
26034WAT     H178344   6.316   4.891   9.168
26034WAT     H278345   6.476   4.876   9.140
26035WAT      O78346   6.526   5.052   5.049
26035WAT     H178347   6.605   5.037   4.990
26035WAT     H278348   6.512   4.971   5.106
26036WAT      O78349   2.009   8.680   2.980
26036WAT     H178350   2.014   8.645   2.887
26036WAT     H278351   1.935   8.747   2.988
26037WAT      O78352   8.355   7.603   5.428
26037WAT     H178353   8.360   7.608   5.528
26037WAT     H278354   8.361   7.508   5.399
26038WAT      O78355   7.843   7.560   5.407
26038WAT     H178356   7.810   7.517   5.324
26038WAT     H278357   7.940   7.585   5.396
26039WAT      O78358   8.313   4.982   3.033
26039WAT     H178359   8.361   4.979   3.121
26039WAT     H278360   8.365   4.932   2.964
26040WAT      O78361   3.781   9.624   0.096
26040WAT     H178362   3.726   9.706   0.085
26040WAT     H278363   3.877   9.649   0.112
26041WAT      O78364   3.498   8.631   7.429
26041WAT     H178365   3.460   8.567   7.496
26041WAT     H278366   3.587   8.597   7.398
26042WAT      O78367   2.128   6.904   3.458
26042WAT     H178368   2.111   6.838   3.532
26042WAT     H278369   2.075   6.987   3.475
26043WAT      O78370   9.774   0.298   4.753
26043WAT     H178371   9.724   0.346   4.682
26043WAT     H278372   9.710   0.256   4.817
26044WAT      O78373   9.616   3.647   4.215
26044WAT     H178374   9.634   3.628   4.311
26044WAT     H278375   9.617   3.561   4.163
26045WAT      O78376   4.074   3.218   3.689
26045WAT     H178377   4.143   3.246   3.623
26045WAT     H278378   4.049   3.296   3.746
26046WAT      O78379   6.091   2.270   6.257
26046WAT     H178380   6.128   2.180   6.279
26046WAT     H278381   6.111   2.292   6.161
26047WAT      O78382   4.361   6.375   3.507
26047WAT     H178383   4.313   6.456   3.472
26047WAT     H278384   4.297   6.298   3.513
26048WAT      O78385   0.794   7.913   1.535
26048WAT     H178386   0.872   7.960   1.494
26048WAT     H278387   0.717   7.912   1.470
26049WAT      O78388   5.486   0.634   8.842
26049WAT     H178389   5.401   0.582   8.841
26049WAT     H278390   5.561   0.575   8.811
26050WAT      O78391   3.810   6.745   9.128
26050WAT     H178392   3.760   6.701   9.203
26050WAT     H278393   3.799   6.844   9.134
26051WAT      O78394   5.830   3.313   4.257
26051WAT     H178395   5.745   3.276   4.218
26051WAT     H278396   5.812   3.404   4.295
26052WAT      O78397   0.088   8.254   2.556
26052WAT     H178398   0.112   8.333   2.500
26052WAT     H278399   0.098   8.277   2.652
26053WAT      O78400   5.221   8.523   0.231
26053WAT     H178401   5.219   8.548   0.328
26053WAT     H278402   5.280   8.443   0.218
26054WAT      O78403   2.052   5.757   4.389
26054WAT     H178404   1.990   5.804   4.452
26054WAT     H278405   2.008   5.746   4.300
26055WAT      O78406   4.404   6.174   9.593
26055WAT     H178407   4.449   6.087   9.570
26055WAT     H278408   4.411   6.189   9.691
26056WAT      O78409   3.796   7.395   5.811
26056WAT     H178410   3.870   7.463   5.809
26056WAT     H278411   3.836   7.303   5.822
26057WAT      O78412   8.547   2.518   4.292
26057WAT     H178413   8.491   2.452   4.243
26057WAT     H278414   8.562   2.598   4.234
26058WAT      O78415   2.169   9.482   3.917
26058WAT     H178416   2.081   9.457   3.957
26058WAT     H278417   2.243   9.449   3.976
26059WAT      O78418   7.328   2.201   5.747
26059WAT     H178419   7.409   2.258   5.752
26059WAT     H278420   7.250   2.250   5.785
26060WAT      O78421   2.952   1.276   2.132
26060WAT     H178422   2.953   1.209   2.058
26060WAT     H278423   2.950   1.368   2.093
26061WAT      O78424   0.339   3.472   5.802
26061WAT     H178425   0.436   3.488   5.784
26061WAT     H278426   0.286   3.491   5.720
26062WAT      O78427   9.493   3.606   5.898
26062WAT     H178428   9.492   3.523   5.953
26062WAT     H278429   9.407   3.614   5.849
26063WAT      O78430   6.862   3.181   7.529
26063WAT     H178431   6.943   3.207   7.582
26063WAT     H278432   6.782   3.179   7.588
26064WAT      O78433   6.753   4.537   5.704
26064WAT     H178434   6.670   4.511   5.655
26064WAT     H278435   6.816   4.459   5.708
26065WAT      O78436   6.100   0.025   4.038
26065WAT     H178437   6.043   0.041   3.957
26065WAT     H278438   6.049  -0.030   4.104
26066WAT      O78439   4.207   7.954   0.149
26066WAT     H178440   4.181   7.867   0.191
26066WAT     H278441   4.302   7.975   0.171
26067WAT      O78442   9.560   0.205   5.540
26067WAT     H178443   9.579   0.128   5.601
26067WAT     H278444   9.503   0.175   5.464
26068WAT      O78445   9.774   7.227   9.174
26068WAT     H178446   9.783   7.136   9.132
26068WAT     H278447   9.679   7.243   9.199
26069WAT      O78448   0.996   0.512   1.184
26069WAT     H178449   0.897   0.512   1.169
26069WAT     H278450   1.019   0.444   1.254
26070WAT      O78451   2.082   8.750   2.063
26070WAT     H178452   2.095   8.850   2.065
26070WAT     H278453   1.988   8.728   2.086
26071WAT      O78454   3.351   9.433   3.778
26071WAT     H178455   3.378   9.448   3.873
26071WAT     H278456   3.380   9.510   3.722
26072WAT      O78457   9.664   6.489   9.087
26072WAT     H178458   9.673   6.492   9.186
26072WAT     H278459   9.574   6.524   9.060
26073WAT      O78460   7.055   8.923   4.855
26073WAT     H178461   7.127   8.932   4.786
26073WAT     H278462   6.968   8.955   4.817
26074WAT      O78463   9.478   0.025   0.266
26074WAT     H178464   9.435  -0.064   0.280
26074WAT     H278465   9.471   0.050   0.170
26075WAT      O78466   7.455   3.174   8.821
26075WAT     H178467   7.451   3.108   8.895
26075WAT     H278468   7.430   3.265   8.855
26076WAT      O78469   4.663   7.254   3.380
26076WAT     H178470   4.614   7.241   3.294
26076WAT     H278471   4.761   7.242   3.365
26077WAT      O78472   8.498   0.279   1.471
26077WAT     H178473   8.472   0.196   1.422
26077WAT     H278474   8.503   0.260   1.569
26078WAT      O78475   3.240   5.075   4.263
26078WAT     H178476   3.157   5.118   4.226
26078WAT     H278477   3.252   4.985   4.221
26079WAT      O78478   8.159   4.580   0.256
26079WAT     H178479   8.065   4.613   0.267
26079WAT     H278480   8.173   4.500   0.316
26080WAT      O78481   8.028   3.574   4.696
26080WAT     H178482   8.053   3.546   4.789
26080WAT     H278483   7.932   3.601   4.695
26081WAT      O78484   2.967   7.804   4.783
26081WAT     H178485   3.040   7.818   4.717
26081WAT     H278486   2.888   7.860   4.759
26082WAT      O78487   9.482   8.303   3.924
26082WAT     H178488   9.518   8.378   3.980
26082WAT     H278489   9.463   8.337   3.832
26083WAT      O78490   6.377   4.338   3.652
26083WAT     H178491   6.426   4.365   3.569
26083WAT     H278492   6.330   4.251   3.636
26084WAT      O78493   4.672   6.645   4.901
26084WAT     H178494   4.757   6.614   4.942
26084WAT     H278495   4.684   6.737   4.864
26085WAT      O78496   1.348   3.101   1.511
26085WAT     H178497   1.411   3.140   1.443
26085WAT     H278498   1.398   3.081   1.595
26086WAT      O78499   4.765   2.314   3.575
26086WAT     H178500   4.727   2.389   3.521
26086WAT     H278501   4.731   2.320   3.669
26087WAT      O78502   5.307   3.163   7.331
26087WAT     H178503   5.366   3.243   7.336
26087WAT     H278504   5.255   3.154   7.415
26088WAT      O78505   5.639   7.234   2.527
26088WAT     H178506   5.638   7.244   2.627
26088WAT     H278507   5.588   7.151   2.502
26089WAT      O78508   6.090   8.455   7.795
26089WAT     H178509   6.102   8.527   7.727
26089WAT     H278510   6.030   8.489   7.868
26090WAT      O78511   1.759   9.459   9.594
26090WAT     H178512   1.790   9.538   9.540
26090WAT     H278513   1.838   9.414   9.635
26091WAT      O78514   6.073   7.274   2.537
26091WAT     H178515   6.067   7.366   2.574
26091WAT     H278516   6.161   7.233   2.562
26092WAT      O78517   7.102   8.116   3.627
26092WAT     H178518   7.129   8.031   3.671
26092WAT     H278519   7.148   8.123   3.538
26093WAT      O78520   2.657   5.641   1.664
26093WAT     H178521   2.621   5.551   1.641
26093WAT     H278522   2.586   5.710   1.651
26094WAT      O78523   5.798   0.279   3.816
26094WAT     H178524   5.713   0.305   3.861
26094WAT     H278525   5.799   0.313   3.722
26095WAT      O78526   5.749   9.345   9.336
26095WAT     H178527   5.681   9.283   9.375
26095WAT     H278528   5.837   9.298   9.329
26096WAT      O78529   2.384   2.775   3.977
26096WAT     H178530   2.483   2.769   3.990
26096WAT     H278531   2.347   2.845   4.038
26097WAT      O78532   5.525   2.783   4.127
26097WAT     H178533   5.583   2.701   4.132
26097WAT     H278534   5.556   2.850   4.193
26098WAT      O78535   9.056   2.284   6.617
26098WAT     H178536   9.126   2.261   6.685
26098WAT     H278537   8.984   2.215   6.618
26099WAT      O78538   5.674   0.932   6.972
26099WAT     H178539   5.653   0.863   7.041
26099WAT     H278540   5.589   0.972   6.937
26100WAT      O78541   8.833   9.035   6.727
26100WAT     H178542   8.803   8.949   6.768
26100WAT     H278543   8.912   9.017   6.668
26101WAT      O78544   1.116   0.217   7.268
26101WAT     H178545   1.085   0.235   7.361
26101WAT     H278546   1.120   0.303   7.217
26102WAT      O78547   6.423   4.043   5.479
26102WAT     H178548   6.345   3.984   5.456
26102WAT     H278549   6.403   4.137   5.452
26103WAT      O78550   9.222   7.384   6.891
26103WAT     H178551   9.157   7.316   6.858
26103WAT     H278552   9.181   7.475   6.885
26104WAT      O78553   7.600   6.159   6.253
26104WAT     H178554   7.554   6.162   6.342
26104WAT     H278555   7.584   6.071   6.209
26105WAT      O78556   2.803   8.691   9.223
26105WAT     H178557   2.817   8.729   9.315
26105WAT     H278558   2.874   8.623   9.204
26106WAT      O78559   8.914   9.282   6.156
26106WAT     H178560   8.929   9.332   6.071
26106WAT     H278561   8.908   9.184   6.136
26107WAT      O78562   0.675   6.661   4.364
26107WAT     H178563   0.575   6.654   4.368
26107WAT     H278564   0.711   6.675   4.457
26108WAT      O78565   3.956   9.428   7.426
26108WAT     H178566   3.887   9.371   7.380
26108WAT     H278567   3.910   9.506   7.469
26109WAT      O78568   2.527   1.208   1.070
26109WAT     H178569   2.432   1.192   1.042
26109WAT     H278570   2.529   1.273   1.146
26110WAT      O78571   1.205   2.030   7.524
26110WAT     H178572   1.122   2.021   7.579
26110WAT     H278573   1.276   1.971   7.561
26111WAT      O78574   3.121   1.431   5.770
26111WAT     H178575   3.139   1.495   5.696
26111WAT     H278576   3.060   1.358   5.737
26112WAT      O78577   0.516   7.910   9.462
26112WAT     H178578   0.531   7.854   9.381
26112WAT     H278579   0.458   7.989   9.438
26113WAT      O78580   3.214   3.799   5.242
26113WAT     H178581   3.224   3.897   5.223
26113WAT     H278582   3.269   3.775   5.322
26114WAT      O78583   2.838   9.049   7.533
26114WAT     H178584   2.900   9.032   7.610
26114WAT     H278585   2.744   9.048   7.567
26115WAT      O78586   9.631   3.327   2.401
26115WAT     H178587   9.694   3.337   2.478
26115WAT     H278588   9.539   3.351   2.429
26116WAT      O78589   7.004   9.356   3.828
26116WAT     H178590   7.049   9.412   3.897
26116WAT     H278591   6.918   9.399   3.801
26117WAT      O78592   6.984   8.297   8.241
26117WAT     H178593   6.997   8.200   8.224
26117WAT     H278594   6.980   8.346   8.154
26118WAT      O78595   0.910   9.362   2.648
26118WAT     H178596   0.878   9.302   2.722
26118WAT     H278597   0.874   9.454   2.661
26119WAT      O78598   8.240   1.334   0.238
26119WAT     H178599   8.212   1.334   0.142
26119WAT     H278600   8.340   1.334   0.243
26120WAT      O78601   2.822   2.620   3.797
26120WAT     H178602   2.803   2.527   3.828
26120WAT     H278603   2.920   2.630   3.779
26121WAT      O78604   7.225   2.906   1.889
26121WAT     H178605   7.301   2.851   1.854
26121WAT     H278606   7.212   2.987   1.832
26122WAT      O78607   8.383   6.305   5.903
26122WAT     H178608   8.284   6.287   5.903
26122WAT     H278609   8.426   6.252   5.831
26123WAT      O78610   1.704   1.965   1.726
26123WAT     H178611   1.633   2.013   1.777
26123WAT     H278612   1.792   2.009   1.742
26124WAT      O78613   5.330   7.678   3.055
26124WAT     H178614   5.338   7.681   2.955
26124WAT     H278615   5.305   7.585   3.083
26125WAT      O78616   8.512   1.740   1.275
26125WAT     H178617   8.437   1.797   1.242
26125WAT     H278618   8.493   1.712   1.369
26126WAT      O78619   4.180   1.582   1.778
26126WAT     H178620   4.208   1.498   1.733
26126WAT     H278621   4.254   1.616   1.835
26127WAT      O78622   8.281   0.190   5.561
26127WAT     H178623   8.215   0.238   5.503
26127WAT     H278624   8.255   0.202   5.657
26128WAT      O78625   4.926   5.556   8.351
26128WAT     H178626   4.948   5.532   8.256
26128WAT     H278627   4.883   5.477   8.395
26129WAT      O78628   4.672   9.244   5.669
26129WAT     H178629   4.580   9.278   5.650
26129WAT     H278630   4.738   9.291   5.610
26130WAT      O78631   0.364   4.628   6.317
26130WAT     H178632   0.335   4.701   6.255
26130WAT     H278633   0.462   4.637   6.334
26131WAT      O78634   0.146   0.087   5.648
26131WAT     H178635   0.239   0.052   5.653
26131WAT     H278636   0.133   0.158   5.716
26132WAT      O78637   8.263   7.946   5.528
26132WAT     H178638   8.216   7.859   5.514
26132WAT     H278639   8.217   8.017   5.475
26133WAT      O78640   0.858   2.128   5.579
26133WAT     H178641   0.911   2.083   5.651
26133WAT     H278642   0.817   2.059   5.520
26134WAT      O78643   8.813   1.229   3.681
26134WAT     H178644   8.822   1.251   3.778
26134WAT     H278645   8.777   1.136   3.670
26135WAT      O78646   4.252   6.085   1.126
26135WAT     H178647   4.188   6.081   1.203
26135WAT     H278648   4.316   6.008   1.132
26136WAT      O78649   7.116   2.093   7.813
26136WAT     H178650   7.144   2.162   7.879
26136WAT     H278651   7.197   2.048   7.775
26137WAT      O78652   8.520   3.911   1.307
26137WAT     H178653   8.451   3.983   1.306
26137WAT     H278654   8.559   3.904   1.399
26138WAT      O78655   3.577   9.272   8.757
26138WAT     H178656   3.587   9.174   8.770
26138WAT     H278657   3.611   9.297   8.666
26139WAT      O78658   1.784   9.119   1.560
26139WAT     H178659   1.742   9.115   1.469
26139WAT     H278660   1.872   9.072   1.558
26140WAT      O78661   3.106   9.586   6.409
26140WAT     H178662   3.058   9.636   6.481
26140WAT     H278663   3.041   9.558   6.339
26141WAT      O78664   4.761   4.498   1.045
26141WAT     H178665   4.745   4.518   0.949
26141WAT     H278666   4.798   4.579   1.091
26142WAT      O78667   6.461   5.982   7.514
26142WAT     H178668   6.524   5.921   7.562
26142WAT     H278669   6.499   6.006   7.424
26143WAT      O78670   9.467   2.666   1.805
26143WAT     H178671   9.380   2.620   1.784
26143WAT     H278672   9.455   2.726   1.884
26144WAT      O78673   9.783   8.117   2.415
26144WAT     H178674   9.849   8.164   2.475
26144WAT     H278675   9.797   8.018   2.421
26145WAT      O78676   7.790   1.372   1.845
26145WAT     H178677   7.712   1.423   1.883
26145WAT     H278678   7.863   1.368   1.912
26146WAT      O78679   9.157   4.195   7.055
26146WAT     H178680   9.109   4.222   7.138
26146WAT     H278681   9.143   4.097   7.039
26147WAT      O78682   6.651   9.274   3.563
26147WAT     H178683   6.690   9.361   3.591
26147WAT     H278684   6.556   9.268   3.593
26148WAT      O78685   4.750   0.919   9.490
26148WAT     H178686   4.787   0.942   9.400
26148WAT     H278687   4.651   0.906   9.483
26149WAT      O78688   4.894   5.113   7.858
26149WAT     H178689   4.907   5.160   7.945
26149WAT     H278690   4.969   5.138   7.796
26150WAT      O78691   7.334   7.803   9.569
26150WAT     H178692   7.311   7.723   9.624
26150WAT     H278693   7.426   7.834   9.592
26151WAT      O78694   1.283   3.274   5.033
26151WAT     H178695   1.277   3.175   5.047
26151WAT     H278696   1.369   3.309   5.072
26152WAT      O78697   0.335   5.506   7.819
26152WAT     H178698   0.249   5.456   7.826
26152WAT     H278699   0.362   5.538   7.910
26153WAT      O78700   3.513   3.578   7.066
26153WAT     H178701   3.455   3.624   6.998
26153WAT     H278702   3.460   3.507   7.112
26154WAT      O78703   0.550   1.641   8.952
26154WAT     H178704   0.497   1.605   8.876
26154WAT     H278705   0.499   1.713   8.998
26155WAT      O78706   4.054   6.392   5.021
26155WAT     H178707   3.996   6.399   5.102
26155WAT     H278708   4.006   6.430   4.942
26156WAT      O78709   7.610   6.044   2.117
26156WAT     H178710   7.638   6.002   2.203
26156WAT     H278711   7.570   5.975   2.057
26157WAT      O78712   5.838   3.113   0.902
26157WAT     H178713   5.840   3.144   0.807
26157WAT     H278714   5.931   3.108   0.938
26158WAT      O78715   7.771   7.899   8.189
26158WAT     H178716   7.822   7.881   8.274
26158WAT     H278717   7.830   7.879   8.110
26159WAT      O78718   4.884   0.071   8.860
26159WAT     H178719   4.785   0.059   8.859
26159WAT     H278720   4.921   0.037   8.946
26160WAT      O78721   3.206   7.634   7.279
26160WAT     H178722   3.156   7.574   7.341
26160WAT     H278723   3.152   7.650   7.197
26161WAT      O78724   3.704   5.033   2.475
26161WAT     H178725   3.640   5.028   2.551
26161WAT     H278726   3.791   5.071   2.507
26162WAT      O78727   9.718   5.180   8.714
26162WAT     H178728   9.809   5.154   8.748
26162WAT     H278729   9.726   5.215   8.621
26163WAT      O78730   5.379   6.553   6.141
26163WAT     H178731   5.473   6.529   6.168
26163WAT     H278732   5.315   6.496   6.192
26164WAT      O78733   8.204   5.776   1.679
26164WAT     H178734   8.157   5.856   1.717
26164WAT     H278735   8.147   5.735   1.607
26165WAT      O78736   6.736   0.185   5.111
26165WAT     H178737   6.748   0.281   5.085
26165WAT     H278738   6.811   0.157   5.171
26166WAT      O78739   1.978   1.463   8.520
26166WAT     H178740   1.926   1.379   8.535
26166WAT     H278741   2.031   1.484   8.602
26167WAT      O78742   0.249   8.235   6.989
26167WAT     H178743   0.181   8.249   6.917
26167WAT     H278744   0.314   8.311   6.989
26168WAT      O78745   9.668   1.330   1.988
26168WAT     H178746   9.637   1.389   2.063
26168WAT     H278747   9.658   1.234   2.015
26169WAT      O78748   4.492   0.536   8.744
26169WAT     H178749   4.428   0.473   8.699
26169WAT     H278750   4.463   0.630   8.727
26170WAT      O78751   6.355   7.222   7.722
26170WAT     H178752   6.262   7.185   7.729
26170WAT     H278753   6.389   7.210   7.628
26171WAT      O78754   1.795   7.114   5.068
26171WAT     H178755   1.865   7.155   5.010
26171WAT     H278756   1.784   7.168   5.151
26172WAT      O78757   4.471   8.286   8.601
26172WAT     H178758   4.565   8.263   8.627
26172WAT     H278759   4.442   8.226   8.527
26173WAT      O78760   9.442   0.085   4.107
26173WAT     H178761   9.538   0.109   4.117
26173WAT     H278762   9.388   0.134   4.174
26174WAT      O78763   3.248   7.430   9.173
26174WAT     H178764   3.182   7.421   9.247
26174WAT     H278765   3.321   7.492   9.200
26175WAT      O78766   0.207   0.246   8.745
26175WAT     H178767   0.244   0.186   8.816
26175WAT     H278768   0.240   0.216   8.656
26176WAT      O78769   6.784   9.728   9.103
26176WAT     H178770   6.841   9.707   9.023
26176WAT     H278771   6.775   9.645   9.159
26177WAT      O78772   6.401   2.021   7.334
26177WAT     H178773   6.378   2.094   7.269
26177WAT     H278774   6.338   2.025   7.411
26178WAT      O78775   1.532   3.665   2.738
26178WAT     H178776   1.511   3.567   2.733
26178WAT     H278777   1.562   3.688   2.831
26179WAT      O78778   6.257   4.453   2.521
26179WAT     H178779   6.257   4.454   2.421
26179WAT     H278780   6.164   4.470   2.553
26180WAT      O78781   4.773   7.273   6.010
26180WAT     H178782   4.699   7.261   5.944
26180WAT     H278783   4.750   7.347   6.073
26181WAT      O78784   0.699   3.978   6.488
26181WAT     H178785   0.753   3.906   6.533
26181WAT     H278786   0.729   4.067   6.522
26182WAT      O78787   9.612   6.738   4.480
26182WAT     H178788   9.560   6.666   4.434
26182WAT     H278789   9.550   6.810   4.511
26183WAT      O78790   6.877   3.189   4.962
26183WAT     H178791   6.874   3.279   5.006
26183WAT     H278792   6.786   3.165   4.929
26184WAT      O78793   8.906   4.694   3.077
26184WAT     H178794   8.876   4.620   3.137
26184WAT     H278795   8.990   4.668   3.030
26185WAT      O78796   3.562   9.412   5.396
26185WAT     H178797   3.596   9.471   5.469
26185WAT     H278798   3.481   9.363   5.427
26186WAT      O78799   4.526   3.929   7.667
26186WAT     H178800   4.499   3.999   7.601
26186WAT     H278801   4.608   3.959   7.716
26187WAT      O78802   3.984   0.835   6.185
26187WAT     H178803   3.891   0.797   6.179
26187WAT     H278804   3.979   0.929   6.220
26188WAT      O78805   8.177   5.890   2.638
26188WAT     H178806   8.141   5.960   2.575
26188WAT     H278807   8.171   5.800   2.595
26189WAT      O78808   2.880   6.842   5.853
26189WAT     H178809   2.883   6.815   5.757
26189WAT     H278810   2.957   6.903   5.873
26190WAT      O78811   0.858   8.733   5.490
26190WAT     H178812   0.850   8.794   5.411
26190WAT     H278813   0.782   8.750   5.553
26191WAT      O78814   8.980   5.264   4.141
26191WAT     H178815   8.900   5.321   4.162
26191WAT     H278816   8.964   5.171   4.172
26192WAT      O78817   3.635   0.089   4.918
26192WAT     H178818   3.548   0.046   4.942
26192WAT     H278819   3.700   0.019   4.891
26193WAT      O78820   8.150   5.295   3.173
26193WAT     H178821   8.106   5.258   3.091
26193WAT     H278822   8.150   5.225   3.244
26194WAT      O78823   1.282   5.542   4.357
26194WAT     H178824   1.200   5.501   4.318
26194WAT     H278825   1.258   5.626   4.406
26195WAT      O78826   4.664   2.703   1.065
26195WAT     H178827   4.662   2.617   1.014
26195WAT     H278828   4.574   2.720   1.106
26196WAT      O78829   9.086   0.737   1.254
26196WAT     H178830   9.131   0.826   1.257
26196WAT     H278831   8.989   0.748   1.275
26197WAT      O78832   1.236   6.686   1.847
26197WAT     H178833   1.187   6.603   1.820
26197WAT     H278834   1.299   6.664   1.922
26198WAT      O78835   0.650   5.935   7.193
26198WAT     H178836   0.734   5.928   7.138
26198WAT     H278837   0.659   6.012   7.256
26199WAT      O78838   1.581   5.887   4.432
26199WAT     H178839   1.641   5.835   4.371
26199WAT     H278840   1.602   5.864   4.527
26200WAT      O78841   7.509   4.783   4.774
26200WAT     H178842   7.524   4.847   4.849
26200WAT     H278843   7.512   4.833   4.687
26201WAT      O78844   5.023   9.200   6.086
26201WAT     H178845   5.019   9.262   6.009
26201WAT     H278846   5.090   9.233   6.153
26202WAT      O78847   2.787   9.552   4.428
26202WAT     H178848   2.798   9.635   4.483
26202WAT     H278849   2.788   9.472   4.488
26203WAT      O78850   5.144   0.981   1.891
26203WAT     H178851   5.092   1.053   1.846
26203WAT     H278852   5.211   1.022   1.953
26204WAT      O78853   0.271   7.087   0.081
26204WAT     H178854   0.266   7.022   0.156
26204WAT     H278855   0.198   7.155   0.090
26205WAT      O78856   9.203   9.306   6.433
26205WAT     H178857   9.259   9.300   6.350
26205WAT     H278858   9.174   9.401   6.445
26206WAT      O78859   6.912   5.641   0.501
26206WAT     H178860   6.835   5.633   0.438
26206WAT     H278861   6.997   5.651   0.449
26207WAT      O78862   9.288   8.794   8.530
26207WAT     H178863   9.240   8.824   8.612
26207WAT     H278864   9.320   8.700   8.543
26208WAT      O78865   2.064   7.024   1.035
26208WAT     H178866   2.101   6.952   1.094
26208WAT     H278867   2.136   7.089   1.014
26209WAT      O78868   5.616   0.997   2.022
26209WAT     H178869   5.615   0.898   2.034
26209WAT     H278870   5.671   1.020   1.941
26210WAT      O78871   3.710   2.330   0.301
26210WAT     H178872   3.684   2.396   0.231
26210WAT     H278873   3.695   2.237   0.267
26211WAT      O78874   6.042   9.382   3.421
26211WAT     H178875   6.114   9.357   3.485
26211WAT     H278876   6.071   9.359   3.328
26212WAT      O78877   2.956   7.238   1.881
26212WAT     H178878   3.019   7.162   1.872
26212WAT     H278879   3.001   7.314   1.928
26213WAT      O78880   6.596   1.289   2.886
26213WAT     H178881   6.667   1.247   2.828
26213WAT     H278882   6.533   1.341   2.828
26214WAT      O78883   8.004   5.696   8.974
26214WAT     H178884   7.962   5.715   9.062
26214WAT     H278885   8.078   5.629   8.986
26215WAT      O78886   9.840   6.998   0.360
26215WAT     H178887   9.809   7.088   0.330
26215WAT     H278888   9.866   7.002   0.457
26216WAT      O78889   1.642   7.198   1.254
26216WAT     H178890   1.624   7.178   1.158
26216WAT     H278891   1.740   7.210   1.268
26217WAT      O78892   0.934   4.877   9.245
26217WAT     H178893   0.898   4.918   9.161
26217WAT     H278894   0.889   4.919   9.324
26218WAT      O78895   0.132   5.372   0.942
26218WAT     H178896   0.119   5.278   0.911
26218WAT     H278897   0.162   5.372   1.037
26219WAT      O78898   9.082   3.721   0.599
26219WAT     H178899   9.143   3.700   0.675
26219WAT     H278900   9.109   3.807   0.556
26220WAT      O78901   0.982   3.544   1.966
26220WAT     H178902   0.957   3.467   2.024
26220WAT     H278903   1.071   3.527   1.924
26221WAT      O78904   6.636   9.332   7.032
26221WAT     H178905   6.565   9.400   7.050
26221WAT     H278906   6.719   9.355   7.083
26222WAT      O78907   3.408  -0.004   4.566
26222WAT     H178908   3.428   0.075   4.624
26222WAT     H278909   3.321   0.010   4.518
26223WAT      O78910   5.088   1.626   4.409
26223WAT     H178911   5.021   1.693   4.378
26223WAT     H278912   5.154   1.671   4.469
26224WAT      O78913   2.219   5.213   2.065
26224WAT     H178914   2.297   5.164   2.025
26224WAT     H278915   2.224   5.207   2.164
26225WAT      O78916   5.143   5.641   8.485
26225WAT     H178917   5.197   5.559   8.502
26225WAT     H278918   5.068   5.619   8.421
26226WAT      O78919   6.365   6.299   5.981
26226WAT     H178920   6.277   6.334   6.013
26226WAT     H278921   6.403   6.237   6.049
26227WAT      O78922   1.820   6.916   5.256
26227WAT     H178923   1.893   6.961   5.308
26227WAT     H278924   1.784   6.979   5.187
26228WAT      O78925   9.834   5.991   1.114
26228WAT     H178926   9.792   6.012   1.203
26228WAT     H278927   9.767   5.946   1.055
26229WAT      O78928   2.407   9.793   1.454
26229WAT     H178929   2.374   9.737   1.530
26229WAT     H278930   2.334   9.806   1.387
26230WAT      O78931   7.978   4.908   1.714
26230WAT     H178932   8.074   4.934   1.725
26230WAT     H278933   7.957   4.830   1.773
26231WAT      O78934   9.348   0.057   1.560
26231WAT     H178935   9.289   0.134   1.582
26231WAT     H278936   9.440   0.075   1.593
26232WAT      O78937   4.051   9.127   7.020
26232WAT     H178938   3.957   9.143   6.989
26232WAT     H278939   4.053   9.120   7.120
26233WAT      O78940   6.977   9.688   1.072
26233WAT     H178941   6.888   9.725   1.048
26233WAT     H278942   6.982   9.591   1.046
26234WAT      O78943   4.714   8.148   8.589
26234WAT     H178944   4.676   8.059   8.615
26234WAT     H278945   4.803   8.134   8.545
26235WAT      O78946   4.327   6.471   4.843
26235WAT     H178947   4.264   6.395   4.859
26235WAT     H278948   4.407   6.460   4.903
26236WAT      O78949   4.310   8.942   7.169
26236WAT     H178950   4.318   9.002   7.248
26236WAT     H278951   4.227   8.888   7.177
26237WAT      O78952   7.389   6.938   6.604
26237WAT     H178953   7.352   7.007   6.666
26237WAT     H278954   7.322   6.865   6.592
26238WAT      O78955   5.835   8.177   5.175
26238WAT     H178956   5.892   8.146   5.099
26238WAT     H278957   5.756   8.116   5.184
26239WAT      O78958   7.833   2.023   3.632
26239WAT     H178959   7.792   2.101   3.586
26239WAT     H278960   7.774   1.992   3.707
26240WAT      O78961   2.666   3.677   4.874
26240WAT     H178962   2.734   3.627   4.820
26240WAT     H278963   2.604   3.611   4.918
26241WAT      O78964   5.407   2.331   7.828
26241WAT     H178965   5.393   2.265   7.902
26241WAT     H278966   5.376   2.422   7.857
26242WAT      O78967   8.673   7.965   1.246
26242WAT     H178968   8.692   7.869   1.267
26242WAT     H278969   8.574   7.980   1.244
26243WAT      O78970   1.023   5.198   4.431
26243WAT     H178971   0.954   5.178   4.501
26243WAT     H278972   1.008   5.290   4.394
26244WAT      O78973   0.945   3.316   5.955
26244WAT     H178974   0.964   3.281   6.047
26244WAT     H278975   0.996   3.400   5.940
26245WAT      O78976   1.537   1.185   4.265
26245WAT     H178977   1.567   1.272   4.227
26245WAT     H278978   1.492   1.131   4.194
26246WAT      O78979   4.147   9.439   9.539
26246WAT     H178980   4.208   9.518   9.545
26246WAT     H278981   4.200   9.358   9.511
26247WAT      O78982   0.807   4.414   0.364
26247WAT     H178983   0.733   4.346   0.365
26247WAT     H278984   0.835   4.431   0.270
26248WAT      O78985   2.016   6.628   5.055
26248WAT     H178986   2.062   6.692   4.994
26248WAT     H278987   2.070   6.618   5.139
26249WAT      O78988   2.068   4.027   9.795
26249WAT     H178989   2.048   3.957   9.726
26249WAT     H278990   2.157   4.068   9.776
26250WAT      O78991   0.259   5.763   5.854
26250WAT     H178992   0.175   5.786   5.804
26250WAT     H278993   0.279   5.665   5.843
26251WAT      O78994   2.739   3.174   1.604
26251WAT     H178995   2.648   3.181   1.644
26251WAT     H278996   2.776   3.082   1.620
26252WAT      O78997   3.405   2.190   4.019
26252WAT     H178998   3.452   2.114   3.974
26252WAT     H278999   3.354   2.243   3.951
26253WAT      O79000   2.663   3.322   4.737
26253WAT     H179001   2.646   3.370   4.822
26253WAT     H279002   2.681   3.226   4.755
26254WAT      O79003   1.930   2.622   5.232
26254WAT     H179004   2.026   2.643   5.218
26254WAT     H279005   1.896   2.568   5.154
26255WAT      O79006   4.922   3.339   0.650
26255WAT     H179007   4.997   3.273   0.661
26255WAT     H279008   4.839   3.302   0.691
26256WAT      O79009   0.339   3.083   0.888
26256WAT     H179010   0.256   3.115   0.934
26256WAT     H279011   0.405   3.052   0.956
26257WAT      O79012   4.009   0.555   0.991
26257WAT     H179013   4.014   0.650   0.959
26257WAT     H279014   3.992   0.554   1.089
26258WAT      O79015   0.284   0.389   3.682
26258WAT     H179016   0.304   0.487   3.676
26258WAT     H279017   0.366   0.337   3.659
26259WAT      O79018   6.987   5.201   3.706
26259WAT     H179019   6.950   5.125   3.759
26259WAT     H279020   7.078   5.178   3.673
26260WAT      O79021   3.852   8.297   0.872
26260WAT     H179022   3.812   8.308   0.781
26260WAT     H279023   3.867   8.387   0.913
26261WAT      O79024   8.209   0.748   2.732
26261WAT     H179025   8.259   0.831   2.757
26261WAT     H279026   8.131   0.772   2.675
26262WAT      O79027   8.367   8.607   2.644
26262WAT     H179028   8.319   8.543   2.704
26262WAT     H279029   8.333   8.700   2.661
26263WAT      O79030   1.033   5.422   9.767
26263WAT     H179031   1.076   5.486   9.831
26263WAT     H279032   1.090   5.414   9.686
26264WAT      O79033   8.018   2.582   0.162
26264WAT     H179034   8.051   2.536   0.079
26264WAT     H279035   7.978   2.670   0.137
26265WAT      O79036   5.663   7.980   0.297
26265WAT     H179037   5.720   8.058   0.322
26265WAT     H279038   5.679   7.905   0.361
26266WAT      O79039   9.697   0.874   1.056
26266WAT     H179040   9.787   0.866   1.098
26266WAT     H279041   9.703   0.853   0.958
26267WAT      O79042   8.294   6.769   6.358
26267WAT     H179043   8.373   6.816   6.399
26267WAT     H279044   8.310   6.670   6.360
26268WAT      O79045   0.873   2.705   3.098
26268WAT     H179046   0.949   2.761   3.065
26268WAT     H279047   0.842   2.740   3.186
26269WAT      O79048   1.542   5.119   4.503
26269WAT     H179049   1.559   5.110   4.405
26269WAT     H279050   1.531   5.029   4.544
26270WAT      O79051   5.659   2.781   2.293
26270WAT     H179052   5.654   2.739   2.202
26270WAT     H279053   5.688   2.877   2.283
26271WAT      O79054   2.776   4.204   8.818
26271WAT     H179055   2.746   4.213   8.913
26271WAT     H279056   2.782   4.295   8.777
26272WAT      O79057   6.740   5.003   4.477
26272WAT     H179058   6.660   5.048   4.514
26272WAT     H279059   6.716   4.953   4.394
26273WAT      O79060   4.243   3.938   7.696
26273WAT     H179061   4.182   3.859   7.702
26273WAT     H279062   4.336   3.908   7.675
26274WAT      O79063   3.011   6.064   4.543
26274WAT     H179064   3.031   6.062   4.446
26274WAT     H279065   2.961   6.148   4.565
26275WAT      O79066   0.993   5.666   3.075
26275WAT     H179067   0.967   5.585   3.128
26275WAT     H279068   0.974   5.650   2.978
26276WAT      O79069   7.754   8.195   1.159
26276WAT     H179070   7.767   8.102   1.195
26276WAT     H279071   7.827   8.254   1.193
26277WAT      O79072   7.034   0.638   1.150
26277WAT     H179073   6.934   0.645   1.155
26277WAT     H279074   7.061   0.542   1.155
26278WAT      O79075   3.722   4.446   9.844
26278WAT     H179076   3.657   4.520   9.860
26278WAT     H279077   3.684   4.381   9.779
26279WAT      O79078   5.551   9.754   5.505
26279WAT     H179079   5.568   9.770   5.603
26279WAT     H279080   5.465   9.705   5.494
26280WAT      O79081   6.818   8.000   1.315
26280WAT     H179082   6.808   8.099   1.314
26280WAT     H279083   6.901   7.976   1.366
26281WAT      O79084   6.923   4.748   5.704
26281WAT     H179085   6.855   4.680   5.731
26281WAT     H279086   7.012   4.722   5.741
26282WAT      O79087   2.316   9.797   3.014
26282WAT     H179088   2.305   9.701   2.990
26282WAT     H279089   2.409   9.812   3.049
26283WAT      O79090   0.951   0.886   0.483
26283WAT     H179091   0.941   0.787   0.475
26283WAT     H279092   0.982   0.910   0.575
26284WAT      O79093   8.891   0.161   1.618
26284WAT     H179094   8.925   0.215   1.695
26284WAT     H279095   8.821   0.214   1.569
26285WAT      O79096   7.239   1.978   1.695
26285WAT     H179097   7.148   1.938   1.682
26285WAT     H279098   7.279   1.999   1.606
26286WAT      O79099   2.133   9.028   3.135
26286WAT     H179100   2.138   8.931   3.158
26286WAT     H279101   2.086   9.077   3.209
26287WAT      O79102   9.498   0.029   6.190
26287WAT     H179103   9.481   0.094   6.116
26287WAT     H279104   9.569   0.064   6.251
26288WAT      O79105   6.973   8.943   4.124
26288WAT     H179106   7.019   9.012   4.069
26288WAT     H279107   7.014   8.853   4.105
26289WAT      O79108   0.653   4.059   3.425
26289WAT     H179109   0.648   3.960   3.442
26289WAT     H279110   0.585   4.084   3.356
26290WAT      O79111   1.968   5.067   5.012
26290WAT     H179112   2.033   5.098   5.081
26290WAT     H279113   1.892   5.131   5.007
26291WAT      O79114   1.794   3.199   0.595
26291WAT     H179115   1.785   3.246   0.508
26291WAT     H279116   1.858   3.249   0.654
26292WAT      O79117   8.520   5.266   1.487
26292WAT     H179118   8.553   5.351   1.444
26292WAT     H279119   8.426   5.279   1.517
26293WAT      O79120   3.141   3.471   6.921
26293WAT     H179121   3.170   3.375   6.917
26293WAT     H279122   3.072   3.487   6.850
26294WAT      O79123   8.028   8.937   3.168
26294WAT     H179124   7.937   8.897   3.177
26294WAT     H279125   8.037   9.015   3.230
26295WAT      O79126   9.246   8.276   5.630
26295WAT     H179127   9.206   8.191   5.596
26295WAT     H279128   9.218   8.352   5.571
26296WAT      O79129   7.265   7.917   3.746
26296WAT     H179130   7.240   7.885   3.837
26296WAT     H279131   7.363   7.904   3.730
26297WAT      O79132   1.329   5.445   7.013
26297WAT     H179133   1.411   5.401   7.050
26297WAT     H279134   1.349   5.540   6.990
26298WAT      O79135   9.515   9.659   1.970
26298WAT     H179136   9.418   9.687   1.970
26298WAT     H279137   9.564   9.711   1.901
26299WAT      O79138   2.298   2.933   6.591
26299WAT     H179139   2.337   3.012   6.542
26299WAT     H279140   2.368   2.894   6.650
26300WAT      O79141   9.696   7.911   8.212
26300WAT     H179142   9.658   7.824   8.180
26300WAT     H279143   9.730   7.963   8.133
26301WAT      O79144   3.366   3.771   1.283
26301WAT     H179145   3.390   3.855   1.234
26301WAT     H279146   3.404   3.692   1.235
26302WAT      O79147   5.435   6.744   9.196
26302WAT     H179148   5.444   6.787   9.285
26302WAT     H279149   5.513   6.683   9.180
26303WAT      O79150   2.161   7.989   9.487
26303WAT     H179151   2.097   8.023   9.418
26303WAT     H279152   2.250   8.033   9.476
26304WAT      O79153   0.849   4.856   8.730
26304WAT     H179154   0.912   4.779   8.739
26304WAT     H279155   0.853   4.891   8.636
26305WAT      O79156   4.929   4.084   5.943
26305WAT     H179157   4.942   4.178   5.909
26305WAT     H279158   4.927   4.021   5.865
26306WAT      O79159   0.165   8.123   0.781
26306WAT     H179160   0.214   8.143   0.696
26306WAT     H279161   0.067   8.136   0.766
26307WAT      O79162   7.893   5.415   2.075
26307WAT     H179163   7.865   5.327   2.036
26307WAT     H279164   7.814   5.477   2.076
26308WAT      O79165   0.596   3.773   2.143
26308WAT     H179166   0.573   3.700   2.208
26308WAT     H279167   0.526   3.776   2.072
26309WAT      O79168   1.408   4.436   6.842
26309WAT     H179169   1.427   4.341   6.819
26309WAT     H279170   1.425   4.451   6.939
26310WAT      O79171   0.731   1.238   4.787
26310WAT     H179172   0.747   1.199   4.696
26310WAT     H279173   0.804   1.208   4.849
26311WAT      O79174   3.816   8.351   7.797
26311WAT     H179175   3.812   8.428   7.861
26311WAT     H279176   3.804   8.265   7.847
26312WAT      O79177   9.806   4.421   7.253
26312WAT     H179178   9.900   4.395   7.276
26312WAT     H279179   9.797   4.520   7.256
26313WAT      O79180   4.734   0.979   2.557
26313WAT     H179181   4.720   0.893   2.606
26313WAT     H279182   4.783   1.044   2.616
26314WAT      O79183   5.491   5.418   5.553
26314WAT     H179184   5.406   5.464   5.577
26314WAT     H279185   5.473   5.321   5.536
26315WAT      O79186   9.209   5.568   4.895
26315WAT     H179187   9.117   5.547   4.929
26315WAT     H279188   9.228   5.665   4.910
26316WAT      O79189   8.808   7.081   8.759
26316WAT     H179190   8.877   7.086   8.831
26316WAT     H279191   8.759   6.995   8.766
26317WAT      O79192   1.292   5.862   5.343
26317WAT     H179193   1.242   5.837   5.426
26317WAT     H279194   1.235   5.923   5.288
26318WAT      O79195   7.454   4.397   6.426
26318WAT     H179196   7.386   4.405   6.498
26318WAT     H279197   7.546   4.398   6.467
26319WAT      O79198   4.481   5.498   7.892
26319WAT     H179199   4.549   5.569   7.910
26319WAT     H279200   4.395   5.540   7.864
26320WAT      O79201   9.132   1.730   3.164
26320WAT     H179202   9.163   1.784   3.086
26320WAT     H279203   9.140   1.633   3.143
26321WAT      O79204   0.265   1.788   4.344
26321WAT     H179205   0.333   1.733   4.394
26321WAT     H279206   0.185   1.802   4.401
26322WAT      O79207   6.118   4.841   5.809
26322WAT     H179208   6.034   4.788   5.818
26322WAT     H279209   6.112   4.923   5.866
26323WAT      O79210   9.300   1.402   1.850
26323WAT     H179211   9.247   1.317   1.861
26323WAT     H279212   9.295   1.455   1.934
26324WAT      O79213   2.566   6.514   9.173
26324WAT     H179214   2.492   6.581   9.183
26324WAT     H279215   2.627   6.542   9.099
26325WAT      O79216   6.091   8.556   1.502
26325WAT     H179217   6.049   8.640   1.469
26325WAT     H279218   6.152   8.519   1.431
26326WAT      O79219   1.510   4.675   2.407
26326WAT     H179220   1.480   4.637   2.320
26326WAT     H279221   1.431   4.680   2.470
26327WAT      O79222   4.396   3.994   9.104
26327WAT     H179223   4.330   3.972   9.032
26327WAT     H279224   4.442   3.911   9.133
26328WAT      O79225   6.090   9.816   4.726
26328WAT     H179226   6.039   9.902   4.727
26328WAT     H279227   6.075   9.768   4.813
26329WAT      O79228   1.032   0.673   0.780
26329WAT     H179229   1.005   0.640   0.690
26329WAT     H279230   0.952   0.707   0.829
26330WAT      O79231   8.401   0.433   9.301
26330WAT     H179232   8.333   0.361   9.315
26330WAT     H279233   8.454   0.447   9.385
26331WAT      O79234   0.297   7.520   3.688
26331WAT     H179235   0.306   7.480   3.779
26331WAT     H279236   0.229   7.594   3.691
26332WAT      O79237   1.975   3.438   7.049
26332WAT     H179238   1.996   3.352   7.096
26332WAT     H279239   1.956   3.509   7.116
26333WAT      O79240   3.055   7.017   4.440
26333WAT     H179241   3.104   6.935   4.410
26333WAT     H279242   3.043   7.014   4.539
26334WAT      O79243   0.163   9.058   9.076
26334WAT     H179244   0.250   9.107   9.078
26334WAT     H279245   0.145   9.026   8.982
26335WAT      O79246   1.559   9.591   5.738
26335WAT     H179247   1.609   9.653   5.798
26335WAT     H279248   1.540   9.506   5.787
26336WAT      O79249   1.443   3.931   7.917
26336WAT     H179250   1.379   3.871   7.869
26336WAT     H279251   1.526   3.881   7.939
26337WAT      O79252   4.745   7.598   4.519
26337WAT     H179253   4.726   7.519   4.577
26337WAT     H279254   4.825   7.647   4.555
26338WAT      O79255   2.193   2.955   0.402
26338WAT     H179256   2.197   2.947   0.302
26338WAT     H279257   2.285   2.962   0.438
26339WAT      O79258   0.103   2.671   2.031
26339WAT     H179259   0.187   2.678   1.978
26339WAT     H279260   0.058   2.584   2.010
26340WAT      O79261   1.308   5.982   7.915
26340WAT     H179262   1.350   5.922   7.983
26340WAT     H279263   1.360   6.067   7.909
26341WAT      O79264   4.641   2.886   5.863
26341WAT     H179265   4.565   2.917   5.804
26341WAT     H279266   4.692   2.966   5.896
26342WAT      O79267   5.848   8.514   2.168
26342WAT     H179268   5.758   8.513   2.126
26342WAT     H279269   5.879   8.420   2.184
26343WAT      O79270   8.050   1.874   6.903
26343WAT     H179271   8.136   1.874   6.954
26343WAT     H279272   7.981   1.822   6.954
26344WAT      O79273   2.254   5.557   5.739
26344WAT     H179274   2.223   5.548   5.645
26344WAT     H279275   2.309   5.477   5.764
26345WAT      O79276   3.229   7.787   0.313
26345WAT     H179277   3.188   7.711   0.363
26345WAT     H279278   3.195   7.873   0.350
26346WAT      O79279   6.661   6.492   7.194
26346WAT     H179280   6.620   6.521   7.280
26346WAT     H279281   6.590   6.474   7.127
26347WAT      O79282   9.417   2.577   6.777
26347WAT     H179283   9.333   2.628   6.758
26347WAT     H279284   9.471   2.627   6.844
26348WAT      O79285   9.438   6.804   4.739
26348WAT     H179286   9.484   6.718   4.714
26348WAT     H279287   9.481   6.842   4.821
26349WAT      O79288   4.106   2.716   3.723
26349WAT     H179289   4.065   2.762   3.802
26349WAT     H279290   4.129   2.622   3.748
26350WAT      O79291   0.235   9.703   1.518
26350WAT     H179292   0.159   9.697   1.453
26350WAT     H279293   0.259   9.799   1.532
26351WAT      O79294   9.797   4.173   0.184
26351WAT     H179295   9.824   4.189   0.279
26351WAT     H279296   9.864   4.214   0.122
26352WAT      O79297   8.303   6.394   3.516
26352WAT     H179298   8.339   6.487   3.515
26352WAT     H279299   8.204   6.396   3.534
26353WAT      O79300   0.828   7.866   1.218
26353WAT     H179301   0.906   7.922   1.190
26353WAT     H279302   0.778   7.836   1.138
26354WAT      O79303   4.570   9.761   7.893
26354WAT     H179304   4.592   9.712   7.809
26354WAT     H279305   4.652   9.807   7.927
26355WAT      O79306   7.700   0.430   5.088
26355WAT     H179307   7.771   0.453   5.154
26355WAT     H279308   7.699   0.331   5.073
26356WAT      O79309   6.900   5.786   6.714
26356WAT     H179310   6.893   5.829   6.624
26356WAT     H279311   6.839   5.708   6.719
26357WAT      O79312   4.768   8.833   6.290
26357WAT     H179313   4.814   8.921   6.277
26357WAT     H279314   4.833   8.758   6.275
26358WAT      O79315   0.327   4.525   9.137
26358WAT     H179316   0.425   4.519   9.120
26358WAT     H279317   0.279   4.537   9.050
26359WAT      O79318   0.010   9.589   2.068
26359WAT     H179319   0.101   9.569   2.103
26359WAT     H279320  -0.052   9.514   2.094
26360WAT      O79321   1.157   9.808   1.371
26360WAT     H179322   1.072   9.847   1.406
26360WAT     H279323   1.156   9.809   1.271
26361WAT      O79324   3.169   4.972   9.247
26361WAT     H179325   3.127   5.049   9.200
26361WAT     H279326   3.230   5.005   9.319
26362WAT      O79327   5.780   7.749   5.677
26362WAT     H179328   5.777   7.670   5.739
26362WAT     H279329   5.800   7.718   5.585
26363WAT      O79330   6.851   6.603   1.686
26363WAT     H179331   6.834   6.605   1.588
26363WAT     H279332   6.909   6.525   1.709
26364WAT      O79333   1.722   5.228   4.990
26364WAT     H179334   1.638   5.261   5.032
26364WAT     H279335   1.707   5.213   4.892
26365WAT      O79336   4.148   5.402   0.388
26365WAT     H179337   4.152   5.370   0.293
26365WAT     H279338   4.059   5.379   0.427
26366WAT      O79339   0.985   2.774   6.679
26366WAT     H179340   1.011   2.692   6.628
26366WAT     H279341   1.006   2.855   6.625
26367WAT      O79342   9.771   6.127   2.522
26367WAT     H179343   9.843   6.065   2.553
26367WAT     H279344   9.684   6.099   2.562
26368WAT      O79345   7.137   9.138   6.949
26368WAT     H179346   7.110   9.113   7.041
26368WAT     H279347   7.182   9.228   6.950
26369WAT      O79348   1.443   0.296   9.290
26369WAT     H179349   1.461   0.259   9.380
26369WAT     H279350   1.370   0.365   9.296
26370WAT      O79351   4.764   4.804   9.455
26370WAT     H179352   4.779   4.901   9.475
26370WAT     H279353   4.765   4.790   9.356
26371WAT      O79354   1.821   8.358   3.314
26371WAT     H179355   1.831   8.330   3.409
26371WAT     H279356   1.723   8.365   3.291
26372WAT      O79357   8.187   2.215   3.005
26372WAT     H179358   8.109   2.277   3.017
26372WAT     H279359   8.158   2.121   3.026
26373WAT      O79360   2.383   3.506   1.518
26373WAT     H179361   2.287   3.516   1.492
26373WAT     H279362   2.400   3.553   1.604
26374WAT      O79363   2.485   6.226   5.991
26374WAT     H179364   2.474   6.126   5.991
26374WAT     H279365   2.447   6.263   5.906
26375WAT      O79366   8.847   2.690   5.447
26375WAT     H179367   8.772   2.732   5.395
26375WAT     H279368   8.873   2.750   5.522
26376WAT      O79369   4.481   8.654   3.268
26376WAT     H179370   4.564   8.601   3.254
26376WAT     H279371   4.421   8.606   3.332
26377WAT      O79372   6.634   8.972   2.827
26377WAT     H179373   6.570   8.960   2.903
26377WAT     H279374   6.694   9.049   2.846
26378WAT      O79375   2.048   6.919   2.139
26378WAT     H179376   1.991   6.864   2.200
26378WAT     H279377   2.144   6.897   2.155
26379WAT      O79378   2.118   4.074   4.886
26379WAT     H179379   2.217   4.069   4.902
26379WAT     H279380   2.089   4.169   4.887
26380WAT      O79381   3.560   3.191   7.810
26380WAT     H179382   3.490   3.253   7.775
26380WAT     H279383   3.517   3.106   7.842
26381WAT      O79384   1.991   6.880   0.760
26381WAT     H179385   1.914   6.939   0.735
26381WAT     H279386   2.039   6.919   0.838
26382WAT      O79387   1.311   8.137   7.121
26382WAT     H179388   1.400   8.175   7.147
26382WAT     H279389   1.266   8.102   7.203
26383WAT      O79390   1.023   1.804   4.090
26383WAT     H179391   1.071   1.790   4.177
26383WAT     H279392   1.040   1.726   4.030
26384WAT      O79393   1.815   2.407   4.087
26384WAT     H179394   1.767   2.341   4.144
26384WAT     H279395   1.764   2.423   4.002
26385WAT      O79396   4.971   9.513   7.436
26385WAT     H179397   5.039   9.555   7.376
26385WAT     H279398   4.972   9.560   7.525
26386WAT      O79399   4.576   9.539   5.410
26386WAT     H179400   4.530   9.626   5.394
26386WAT     H279401   4.521   9.482   5.471
26387WAT      O79402   6.070   7.993   7.364
26387WAT     H179403   5.984   7.979   7.314
26387WAT     H279404   6.140   8.025   7.300
26388WAT      O79405   9.082   5.455   4.404
26388WAT     H179406   9.140   5.444   4.323
26388WAT     H279407   9.075   5.552   4.427
26389WAT      O79408   4.942   0.165   4.455
26389WAT     H179409   4.912   0.230   4.385
26389WAT     H279410   4.969   0.215   4.537
26390WAT      O79411   4.467   1.151   8.755
26390WAT     H179412   4.369   1.136   8.769
26390WAT     H279413   4.517   1.067   8.774
26391WAT      O79414   3.109   4.587   2.204
26391WAT     H179415   3.132   4.489   2.201
26391WAT     H279416   3.189   4.640   2.176
26392WAT      O79417   1.450   8.698   4.662
26392WAT     H179418   1.491   8.789   4.663
26392WAT     H279419   1.486   8.644   4.738
26393WAT      O79420   0.561   2.481   5.361
26393WAT     H179421   0.523   2.449   5.448
26393WAT     H279422   0.618   2.410   5.321
26394WAT      O79423   2.271   1.631   2.552
26394WAT     H179424   2.280   1.728   2.526
26394WAT     H279425   2.357   1.601   2.594
26395WAT      O79426   7.517   0.183   9.073
26395WAT     H179427   7.472   0.242   9.006
26395WAT     H279428   7.563   0.239   9.142
26396WAT      O79429   3.652   4.471   2.793
26396WAT     H179430   3.723   4.413   2.835
26396WAT     H279431   3.585   4.495   2.863
26397WAT      O79432   1.929   3.630   4.716
26397WAT     H179433   1.948   3.537   4.746
26397WAT     H279434   1.962   3.694   4.785
26398WAT      O79435   8.950   6.907   1.717
26398WAT     H179436   8.976   6.813   1.694
26398WAT     H279437   9.019   6.946   1.778
26399WAT      O79438   9.127   4.665   1.905
26399WAT     H179439   9.159   4.636   1.815
26399WAT     H279440   9.087   4.588   1.953
26400WAT      O79441   0.331   1.548   8.473
26400WAT     H179442   0.351   1.472   8.534
26400WAT     H279443   0.399   1.621   8.486
26401WAT      O79444   9.651   0.459   4.583
26401WAT     H179445   9.625   0.436   4.489
26401WAT     H279446   9.569   0.473   4.638
26402WAT      O79447   2.503   8.798   0.396
26402WAT     H179448   2.494   8.898   0.394
26402WAT     H279449   2.569   8.772   0.467
26403WAT      O79450   6.645   1.024   9.695
26403WAT     H179451   6.615   1.036   9.790
26403WAT     H279452   6.660   0.926   9.678
26404WAT      O79453   2.255   0.138   4.301
26404WAT     H179454   2.347   0.115   4.332
26404WAT     H279455   2.190   0.067   4.331
26405WAT      O79456   6.276   4.140   3.328
26405WAT     H179457   6.330   4.158   3.246
26405WAT     H279458   6.315   4.062   3.377
26406WAT      O79459   0.182   2.095   6.921
26406WAT     H179460   0.256   2.092   6.854
26406WAT     H279461   0.095   2.075   6.875
26407WAT      O79462   3.023   4.052   2.986
26407WAT     H179463   3.100   4.038   3.048
26407WAT     H279464   2.955   4.110   3.031
26408WAT      O79465   0.289   1.652   2.326
26408WAT     H179466   0.205   1.705   2.334
26408WAT     H279467   0.286   1.597   2.243
26409WAT      O79468   1.083   6.571   0.901
26409WAT     H179469   1.100   6.475   0.877
26409WAT     H279470   1.001   6.577   0.957
26410WAT      O79471   6.334   6.204   3.759
26410WAT     H179472   6.319   6.117   3.712
26410WAT     H279473   6.340   6.277   3.691
26411WAT      O79474   3.581   1.373   3.174
26411WAT     H179475   3.503   1.310   3.173
26411WAT     H279476   3.582   1.426   3.089
26412WAT      O79477   0.825   6.516   4.185
26412WAT     H179478   0.773   6.454   4.124
26412WAT     H279479   0.762   6.556   4.252
26413WAT      O79480   7.305   3.758   8.036
26413WAT     H179481   7.296   3.806   7.949
26413WAT     H279482   7.238   3.685   8.041
26414WAT      O79483   2.259   1.166   1.596
26414WAT     H179484   2.253   1.103   1.519
26414WAT     H279485   2.343   1.147   1.647
26415WAT      O79486   3.585   7.025   1.374
26415WAT     H179487   3.608   6.929   1.391
26415WAT     H279488   3.487   7.039   1.387
26416WAT      O79489   0.750   7.056   6.534
26416WAT     H179490   0.808   7.129   6.497
26416WAT     H279491   0.729   6.991   6.461
26417WAT      O79492   7.231   5.163   3.614
26417WAT     H179493   7.277   5.078   3.639
26417WAT     H279494   7.294   5.222   3.563
26418WAT      O79495   5.102   3.255   1.743
26418WAT     H179496   5.012   3.278   1.705
26418WAT     H279497   5.174   3.286   1.681
26419WAT      O79498   6.438   1.075   8.819
26419WAT     H179499   6.526   1.109   8.787
26419WAT     H279500   6.434   1.083   8.919
26420WAT      O79501   0.788   3.895   5.797
26420WAT     H179502   0.728   3.939   5.863
26420WAT     H279503   0.876   3.875   5.840
26421WAT      O79504   3.205   7.013   4.119
26421WAT     H179505   3.144   7.092   4.126
26421WAT     H279506   3.278   7.033   4.053
26422WAT      O79507   4.287   7.218   6.811
26422WAT     H179508   4.287   7.118   6.808
26422WAT     H279509   4.230   7.249   6.887
26423WAT      O79510   7.863   4.199   6.392
26423WAT     H179511   7.834   4.295   6.389
26423WAT     H279512   7.854   4.164   6.485
26424WAT      O79513   6.979   2.840   2.494
26424WAT     H179514   6.926   2.918   2.459
26424WAT     H279515   7.039   2.806   2.422
26425WAT      O79516   6.505   4.186   6.721
26425WAT     H179517   6.521   4.087   6.725
26425WAT     H279518   6.470   4.210   6.630
26426WAT      O79519   0.766   5.011   2.480
26426WAT     H179520   0.801   5.076   2.547
26426WAT     H279521   0.680   5.045   2.442
26427WAT      O79522   9.760   1.767   4.008
26427WAT     H179523   9.703   1.725   4.079
26427WAT     H279524   9.847   1.718   4.001
26428WAT      O79525   7.856   1.119   4.510
26428WAT     H179526   7.934   1.060   4.488
26428WAT     H279527   7.890   1.208   4.541
26429WAT      O79528   3.573   7.754   8.444
26429WAT     H179529   3.477   7.727   8.445
26429WAT     H279530   3.586   7.827   8.377
26430WAT      O79531   6.893   3.224   2.727
26430WAT     H179532   6.912   3.311   2.680
26430WAT     H279533   6.834   3.242   2.806
26431WAT      O79534   5.729   6.817   3.056
26431WAT     H179535   5.643   6.770   3.078
26431WAT     H279536   5.805   6.754   3.068
26432WAT      O79537   6.471   1.146   3.082
26432WAT     H179538   6.484   1.054   3.045
26432WAT     H279539   6.503   1.213   3.015
26433WAT      O79540   6.025   0.055   1.042
26433WAT     H179541   5.980   0.018   0.962
26433WAT     H279542   6.116   0.089   1.016
26434WAT      O79543   5.094   6.565   0.619
26434WAT     H179544   5.165   6.505   0.582
26434WAT     H279545   5.024   6.510   0.665
26435WAT      O79546   3.999   9.167   6.379
26435WAT     H179547   4.036   9.197   6.467
26435WAT     H279548   4.052   9.090   6.345
26436WAT      O79549   1.560   8.196   1.207
26436WAT     H179550   1.619   8.277   1.214
26436WAT     H279551   1.588   8.128   1.275
26437WAT      O79552   4.116   1.363   1.003
26437WAT     H179553   4.057   1.442   0.988
26437WAT     H279554   4.143   1.324   0.915
26438WAT      O79555   2.149   3.380   7.585
26438WAT     H179556   2.092   3.439   7.642
26438WAT     H279557   2.160   3.422   7.495
26439WAT      O79558   7.015   1.998   7.384
26439WAT     H179559   7.043   1.994   7.289
26439WAT     H279560   7.091   1.971   7.443
26440WAT      O79561   2.362   1.176   3.279
26440WAT     H179562   2.292   1.179   3.351
26440WAT     H279563   2.403   1.267   3.269
26441WAT      O79564   9.506   1.415   6.459
26441WAT     H179565   9.423   1.468   6.444
26441WAT     H279566   9.566   1.423   6.379
26442WAT      O79567   4.933   7.695   6.863
26442WAT     H179568   4.899   7.603   6.842
26442WAT     H279569   4.857   7.759   6.861
26443WAT      O79570   3.181   6.537   2.102
26443WAT     H179571   3.251   6.483   2.055
26443WAT     H279572   3.148   6.608   2.041
26444WAT      O79573   8.075   9.175   8.688
26444WAT     H179574   8.059   9.224   8.773
26444WAT     H279575   8.137   9.228   8.630
26445WAT      O79576   2.214   9.483   1.989
26445WAT     H179577   2.213   9.447   1.896
26445WAT     H279578   2.250   9.577   1.988
26446WAT      O79579   6.137   2.255   0.046
26446WAT     H179580   6.086   2.169   0.043
26446WAT     H279581   6.234   2.238   0.027
26447WAT      O79582   0.276   6.530   6.982
26447WAT     H179583   0.222   6.574   7.053
26447WAT     H279584   0.219   6.514   6.902
26448WAT      O79585   4.147   2.671   6.845
26448WAT     H179586   4.116   2.587   6.800
26448WAT     H279587   4.245   2.681   6.832
26449WAT      O79588   9.625   3.247   2.949
26449WAT     H179589   9.553   3.251   2.879
26449WAT     H279590   9.593   3.193   3.027
26450WAT      O79591   3.036   1.274   8.320
26450WAT     H179592   3.079   1.280   8.410
26450WAT     H279593   3.038   1.363   8.276
26451WAT      O79594   6.289   8.239   2.216
26451WAT     H179595   6.292   8.326   2.168
26451WAT     H279596   6.280   8.255   2.314
26452WAT      O79597   7.316   6.561   4.517
26452WAT     H179598   7.224   6.594   4.536
26452WAT     H279599   7.378   6.639   4.507
26453WAT      O79600   0.064   1.974   5.425
26453WAT     H179601   0.016   2.048   5.473
26453WAT     H279602   0.163   1.990   5.430
26454WAT      O79603   9.294   8.083   3.349
26454WAT     H179604   9.385   8.043   3.361
26454WAT     H279605   9.280   8.106   3.253
26455WAT      O79606   3.869   3.580   4.811
26455WAT     H179607   3.902   3.613   4.723
26455WAT     H279608   3.942   3.586   4.878
26456WAT      O79609   5.557   6.823   1.691
26456WAT     H179610   5.580   6.887   1.764
26456WAT     H279611   5.558   6.730   1.728
26457WAT      O79612   7.816   5.115   7.591
26457WAT     H179613   7.906   5.075   7.611
26457WAT     H279614   7.798   5.190   7.654
26458WAT      O79615   5.209   2.673   6.993
26458WAT     H179616   5.298   2.650   6.952
26458WAT     H279617   5.155   2.724   6.926
26459WAT      O79618   8.855   5.871   1.231
26459WAT     H179619   8.904   5.935   1.172
26459WAT     H279620   8.829   5.790   1.177
26460WAT      O79621   4.082   7.256   8.982
26460WAT     H179622   4.157   7.263   8.917
26460WAT     H279623   4.113   7.285   9.073
26461WAT      O79624   4.661   7.237   4.881
26461WAT     H179625   4.735   7.300   4.857
26461WAT     H279626   4.696   7.166   4.942
26462WAT      O79627   0.785   1.718   2.353
26462WAT     H179628   0.727   1.710   2.271
26462WAT     H279629   0.816   1.627   2.381
26463WAT      O79630   3.320   8.176   4.604
26463WAT     H179631   3.235   8.226   4.589
26463WAT     H279632   3.304   8.100   4.667
26464WAT      O79633   9.867   7.823   2.625
26464WAT     H179634   9.899   7.815   2.530
26464WAT     H279635   9.767   7.820   2.627
26465WAT      O79636   9.503   6.683   8.974
26465WAT     H179637   9.503   6.733   9.061
26465WAT     H279638   9.587   6.704   8.924
26466WAT      O79639   1.623   1.163   6.331
26466WAT     H179640   1.631   1.066   6.356
26466WAT     H279641   1.668   1.179   6.243
26467WAT      O79642   4.535   5.604   9.429
26467WAT     H179643   4.589   5.688   9.436
26467WAT     H279644   4.438   5.627   9.421
26468WAT      O79645   1.903   7.263   4.188
26468WAT     H179646   1.939   7.351   4.157
26468WAT     H279647   1.899   7.200   4.110
26469WAT      O79648   8.874   7.264   6.526
26469WAT     H179649   8.777   7.283   6.510
26469WAT     H279650   8.922   7.264   6.438
26470WAT      O79651   1.390   1.338   2.183
26470WAT     H179652   1.415   1.389   2.101
26470WAT     H279653   1.468   1.283   2.213
26471WAT      O79654   8.611   4.273   8.408
26471WAT     H179655   8.587   4.364   8.375
26471WAT     H279656   8.665   4.281   8.492
26472WAT      O79657   1.920   1.350   0.076
26472WAT     H179658   1.906   1.345  -0.023
26472WAT     H279659   1.849   1.297   0.122
26473WAT      O79660   6.593   5.150   8.263
26473WAT     H179661   6.499   5.120   8.252
26473WAT     H279662   6.604   5.241   8.222
26474WAT      O79663   9.176   2.134   0.638
26474WAT     H179664   9.265   2.095   0.660
26474WAT     H279665   9.107   2.062   0.634
26475WAT      O79666   8.185   2.294   4.982
26475WAT     H179667   8.211   2.255   5.070
26475WAT     H279668   8.267   2.317   4.930
26476WAT      O79669   9.751   5.744   2.541
26476WAT     H179670   9.829   5.794   2.579
26476WAT     H279671   9.695   5.709   2.617
26477WAT      O79672   2.613   8.443   0.627
26477WAT     H179673   2.553   8.374   0.586
26477WAT     H279674   2.577   8.470   0.716
26478WAT      O79675   0.720   6.049   8.747
26478WAT     H179676   0.810   6.081   8.776
26478WAT     H279677   0.674   6.121   8.694
26479WAT      O79678   3.340   0.581   6.059
26479WAT     H179679   3.431   0.615   6.037
26479WAT     H279680   3.341   0.482   6.064
26480WAT      O79681   8.112   0.256   2.458
26480WAT     H179682   8.138   0.352   2.465
26480WAT     H279683   8.142   0.220   2.369
26481WAT      O79684   2.136   7.808   2.659
26481WAT     H179685   2.149   7.741   2.732
26481WAT     H279686   2.088   7.888   2.695
26482WAT      O79687   8.649   6.447   7.960
26482WAT     H179688   8.564   6.481   7.919
26482WAT     H279689   8.653   6.348   7.952
26483WAT      O79690   2.659   1.768   1.720
26483WAT     H179691   2.664   1.851   1.775
26483WAT     H279692   2.740   1.711   1.739
26484WAT      O79693   4.718   1.995   8.878
26484WAT     H179694   4.723   1.901   8.912
26484WAT     H279695   4.753   2.058   8.947
26485WAT      O79696   2.444   0.888   0.141
26485WAT     H179697   2.459   0.973   0.192
26485WAT     H279698   2.411   0.817   0.204
26486WAT      O79699   2.030   8.612   2.688
26486WAT     H179700   1.997   8.521   2.664
26486WAT     H279701   2.130   8.615   2.678
26487WAT      O79702   4.314   7.528   3.676
26487WAT     H179703   4.360   7.465   3.614
26487WAT     H279704   4.278   7.606   3.624
26488WAT      O79705   8.225   2.214   3.615
26488WAT     H179706   8.228   2.120   3.648
26488WAT     H279707   8.304   2.264   3.651
26489WAT      O79708   2.741   6.570   6.155
26489WAT     H179709   2.820   6.620   6.120
26489WAT     H279710   2.677   6.635   6.196
26490WAT      O79711   1.301   4.352   1.027
26490WAT     H179712   1.380   4.309   1.070
26490WAT     H279713   1.217   4.320   1.070
26491WAT      O79714   1.301   7.738   9.287
26491WAT     H179715   1.219   7.709   9.238
26491WAT     H279716   1.374   7.671   9.270
26492WAT      O79717   2.560   9.780   3.149
26492WAT     H179718   2.655   9.807   3.158
26492WAT     H279719   2.554   9.681   3.139
26493WAT      O79720   3.941   3.508   1.124
26493WAT     H179721   3.941   3.415   1.085
26493WAT     H279722   3.958   3.574   1.051
26494WAT      O79723   7.635   9.624   1.222
26494WAT     H179724   7.559   9.689   1.219
26494WAT     H279725   7.681   9.623   1.134
26495WAT      O79726   7.379   6.575   3.273
26495WAT     H179727   7.298   6.630   3.291
26495WAT     H279728   7.364   6.482   3.306
26496WAT      O79729   3.509   5.353   6.881
26496WAT     H179730   3.410   5.342   6.892
26496WAT     H279731   3.556   5.312   6.959
26497WAT      O79732   8.442   5.007   0.826
26497WAT     H179733   8.401   5.067   0.896
26497WAT     H279734   8.500   5.061   0.766
26498WAT      O79735   4.926   4.747   3.418
26498WAT     H179736   4.844   4.788   3.379
26498WAT     H279737   4.975   4.814   3.474
26499WAT      O79738   0.337   3.830   2.884
26499WAT     H179739   0.253   3.816   2.831
26499WAT     H279740   0.389   3.905   2.844
26500WAT      O79741   5.237   0.539   2.488
26500WAT     H179742   5.184   0.620   2.464
26500WAT     H279743   5.184   0.481   2.549
26501WAT      O79744   3.891   7.165   8.619
26501WAT     H179745   3.805   7.157   8.569
26501WAT     H279746   3.947   7.238   8.579
26502WAT      O79747   4.281   7.062   0.952
26502WAT     H179748   4.336   7.107   1.023
26502WAT     H279749   4.187   7.097   0.956
26503WAT      O79750   0.229   1.450   4.301
26503WAT     H179751   0.314   1.493   4.331
26503WAT     H279752   0.192   1.393   4.374
26504WAT      O79753   1.741   7.474   8.475
26504WAT     H179754   1.701   7.487   8.565
26504WAT     H279755   1.720   7.382   8.441
26505WAT      O79756   9.041   4.427   9.141
26505WAT     H179757   9.038   4.377   9.055
26505WAT     H279758   9.121   4.486   9.144
26506WAT      O79759   6.404   4.434   0.892
26506WAT     H179760   6.434   4.526   0.865
26506WAT     H279761   6.398   4.430   0.992
26507WAT      O79762   6.966   8.354   2.799
26507WAT     H179763   7.020   8.338   2.882
26507WAT     H279764   6.994   8.440   2.757
26508WAT      O79765   5.498   3.048   8.263
26508WAT     H179766   5.466   3.093   8.180
26508WAT     H279767   5.424   2.994   8.303
26509WAT      O79768   4.380   8.084   4.474
26509WAT     H179769   4.333   8.089   4.562
26509WAT     H279770   4.325   8.131   4.405
26510WAT      O79771   8.095   3.274   3.244
26510WAT     H179772   8.078   3.340   3.317
26510WAT     H279773   8.181   3.296   3.198
26511WAT      O79774   1.324   3.759   4.912
26511WAT     H179775   1.340   3.851   4.947
26511WAT     H279776   1.305   3.763   4.814
26512WAT      O79777   4.267   7.381   2.495
26512WAT     H179778   4.221   7.454   2.444
26512WAT     H279779   4.200   7.320   2.536
26513WAT      O79780   7.049   9.768   7.174
26513WAT     H179781   7.051   9.867   7.158
26513WAT     H279782   7.032   9.721   7.087
26514WAT      O79783   1.219   0.471   9.292
26514WAT     H179784   1.128   0.431   9.288
26514WAT     H279785   1.213   0.569   9.276
26515WAT      O79786   6.254   0.190   6.499
26515WAT     H179787   6.333   0.191   6.438
26515WAT     H279788   6.282   0.217   6.591
26516WAT      O79789   4.891   5.059   6.657
26516WAT     H179790   4.921   5.153   6.641
26516WAT     H279791   4.865   5.017   6.570
26517WAT      O79792   5.559   1.267   9.662
26517WAT     H179793   5.591   1.218   9.581
26517WAT     H279794   5.471   1.229   9.692
26518WAT      O79795   3.179   6.222   5.679
26518WAT     H179796   3.205   6.292   5.613
26518WAT     H279797   3.213   6.247   5.770
26519WAT      O79798   6.040   6.457   0.876
26519WAT     H179799   6.103   6.428   0.804
26519WAT     H279800   6.061   6.551   0.904
26520WAT      O79801   5.177   4.450   2.931
26520WAT     H179802   5.223   4.443   2.842
26520WAT     H279803   5.116   4.371   2.942
26521WAT      O79804   3.955   6.738   5.298
26521WAT     H179805   4.043   6.736   5.249
26521WAT     H279806   3.971   6.720   5.395
26522WAT      O79807   0.442   1.249   4.559
26522WAT     H179808   0.448   1.231   4.657
26522WAT     H279809   0.521   1.304   4.531
26523WAT      O79810   7.243   3.941   1.883
26523WAT     H179811   7.252   3.987   1.971
26523WAT     H279812   7.321   3.964   1.825
26524WAT      O79813   0.222   6.880   0.904
26524WAT     H179814   0.163   6.836   0.836
26524WAT     H279815   0.318   6.855   0.886
26525WAT      O79816   7.924   7.839   8.899
26525WAT     H179817   7.881   7.848   8.989
26525WAT     H279818   8.015   7.882   8.901
26526WAT      O79819   9.216   8.396   3.806
26526WAT     H179820   9.247   8.328   3.873
26526WAT     H279821   9.191   8.350   3.722
26527WAT      O79822   6.870   9.213   9.392
26527WAT     H179823   6.890   9.163   9.477
26527WAT     H279824   6.837   9.149   9.323
26528WAT      O79825   0.841   4.493   6.747
26528WAT     H179826   0.898   4.449   6.678
26528WAT     H279827   0.817   4.427   6.818
26529WAT      O79828   3.422   7.563   9.667
26529WAT     H179829   3.485   7.570   9.745
26529WAT     H279830   3.469   7.523   9.589
26530WAT      O79831   5.902   4.911   6.950
26530WAT     H179832   5.999   4.883   6.950
26530WAT     H279833   5.894   5.004   6.984
26531WAT      O79834   2.187   2.758   5.222
26531WAT     H179835   2.202   2.856   5.237
26531WAT     H279836   2.223   2.707   5.300
26532WAT      O79837   6.254   9.159   2.867
26532WAT     H179838   6.244   9.134   2.771
26532WAT     H279839   6.171   9.205   2.899
26533WAT      O79840   0.936   2.261   2.945
26533WAT     H179841   1.003   2.191   2.970
26533WAT     H279842   0.951   2.343   3.001
26534WAT      O79843   8.219   8.841   1.378
26534WAT     H179844   8.192   8.763   1.322
26534WAT     H279845   8.250   8.915   1.319
26535WAT      O79846   0.735   9.392   2.378
26535WAT     H179847   0.719   9.325   2.306
26535WAT     H279848   0.788   9.351   2.452
26536WAT      O79849   0.160   2.381   3.327
26536WAT     H179850   0.223   2.457   3.309
26536WAT     H279851   0.181   2.341   3.417
26537WAT      O79852   0.418   2.628   9.522
26537WAT     H179853   0.327   2.655   9.491
26537WAT     H279854   0.432   2.531   9.502
26538WAT      O79855   8.046   9.273   0.471
26538WAT     H179856   7.949   9.263   0.450
26538WAT     H279857   8.085   9.348   0.418
26539WAT      O79858   8.626   2.325   8.895
26539WAT     H179859   8.715   2.358   8.863
26539WAT     H279860   8.572   2.403   8.928
26540WAT      O79861   9.718   3.210   8.130
26540WAT     H179862   9.710   3.251   8.221
26540WAT     H279863   9.645   3.142   8.118
26541WAT      O79864   9.829   9.291   5.282
26541WAT     H179865   9.839   9.270   5.185
26541WAT     H279866   9.732   9.303   5.303
26542WAT      O79867   2.028   5.032   4.174
26542WAT     H179868   2.081   4.947   4.177
26542WAT     H279869   1.976   5.042   4.258
26543WAT      O79870   6.519   6.426   7.832
26543WAT     H179871   6.517   6.346   7.772
26543WAT     H279872   6.524   6.396   7.928
26544WAT      O79873   5.239   7.328   7.055
26544WAT     H179874   5.249   7.341   6.956
26544WAT     H279875   5.297   7.253   7.085
26545WAT      O79876   2.699   4.868   8.744
26545WAT     H179877   2.641   4.909   8.813
26545WAT     H279878   2.732   4.938   8.681
26546WAT      O79879   9.213   2.969   5.537
26546WAT     H179880   9.149   3.041   5.562
26546WAT     H279881   9.299   3.010   5.505
26547WAT      O79882   4.543   5.313   6.195
26547WAT     H179883   4.590   5.400   6.207
26547WAT     H279884   4.582   5.245   6.257
26548WAT      O79885   6.325   9.170   3.467
26548WAT     H179886   6.375   9.230   3.405
26548WAT     H279887   6.329   9.076   3.432
26549WAT      O79888   3.402   3.405   7.440
26549WAT     H179889   3.384   3.359   7.353
26549WAT     H279890   3.497   3.438   7.441
26550WAT      O79891   1.759   2.264   7.787
26550WAT     H179892   1.700   2.333   7.829
26550WAT     H279893   1.838   2.246   7.846
26551WAT      O79894   7.534   2.366   4.601
26551WAT     H179895   7.605   2.435   4.614
26551WAT     H279896   7.487   2.382   4.514
26552WAT      O79897   4.624   0.937   8.298
26552WAT     H179898   4.613   0.895   8.208
26552WAT     H279899   4.717   0.922   8.331
26553WAT      O79900   3.187   7.169   0.459
26553WAT     H179901   3.128   7.205   0.532
26553WAT     H279902   3.228   7.245   0.409
26554WAT      O79903   9.340   4.000   0.765
26554WAT     H179904   9.302   3.911   0.789
26554WAT     H279905   9.438   4.000   0.781
26555WAT      O79906   6.596   3.521   5.769
26555WAT     H179907   6.554   3.609   5.791
26555WAT     H279908   6.692   3.521   5.797
26556WAT      O79909   6.369   3.499   7.474
26556WAT     H179910   6.346   3.444   7.394
26556WAT     H279911   6.319   3.466   7.553
26557WAT      O79912   9.532   1.400   0.453
26557WAT     H179913   9.471   1.413   0.531
26557WAT     H279914   9.611   1.460   0.463
26558WAT      O79915   3.509   3.221   4.432
26558WAT     H179916   3.606   3.196   4.436
26558WAT     H279917   3.478   3.224   4.337
26559WAT      O79918   5.199   9.038   0.540
26559WAT     H179919   5.118   8.987   0.514
26559WAT     H279920   5.262   9.044   0.462
26560WAT      O79921   4.715   6.984   7.207
26560WAT     H179922   4.735   7.073   7.166
26560WAT     H279923   4.626   6.987   7.253
26561WAT      O79924   3.014   9.256   5.948
26561WAT     H179925   2.936   9.214   5.995
26561WAT     H279926   3.007   9.238   5.850
26562WAT      O79927   5.066   2.688   1.178
26562WAT     H179928   5.112   2.647   1.257
26562WAT     H279929   4.985   2.738   1.209
26563WAT      O79930   6.538   6.917   7.056
26563WAT     H179931   6.598   6.985   7.099
26563WAT     H279932   6.518   6.844   7.121
26564WAT      O79933   3.816   2.286   8.566
26564WAT     H179934   3.841   2.200   8.611
26564WAT     H279935   3.771   2.347   8.632
26565WAT      O79936   1.062   0.986   4.553
26565WAT     H179937   1.064   1.037   4.467
26565WAT     H279938   1.049   0.889   4.533
26566WAT      O79939   1.544   5.567   8.180
26566WAT     H179940   1.588   5.547   8.267
26566WAT     H279941   1.594   5.522   8.106
26567WAT      O79942   9.390   4.074   3.683
26567WAT     H179943   9.299   4.035   3.694
26567WAT     H279944   9.396   4.161   3.731
26568WAT      O79945   6.066   2.121   1.009
26568WAT     H179946   6.026   2.091   1.096
26568WAT     H279947   6.156   2.078   0.998
26569WAT      O79948   1.081   4.912   5.619
26569WAT     H179949   1.074   4.919   5.520
26569WAT     H279950   1.139   4.986   5.654
26570WAT      O79951   7.977   4.229   0.024
26570WAT     H179952   7.909   4.170  -0.020
26570WAT     H279953   8.060   4.230  -0.031
26571WAT      O79954   5.089   8.500   3.225
26571WAT     H179955   5.067   8.432   3.295
26571WAT     H279956   5.011   8.508   3.162
26572WAT      O79957   4.694   1.303   2.061
26572WAT     H179958   4.782   1.338   2.029
26572WAT     H279959   4.706   1.210   2.095
26573WAT      O79960   5.360   3.956   0.404
26573WAT     H179961   5.285   3.899   0.371
26573WAT     H279962   5.362   3.954   0.504
26574WAT      O79963   1.657   5.489   8.411
26574WAT     H179964   1.602   5.533   8.482
26574WAT     H279965   1.711   5.415   8.452
26575WAT      O79966   2.199   3.685   0.779
26575WAT     H179967   2.234   3.615   0.841
26575WAT     H279968   2.241   3.672   0.689
26576WAT      O79969   0.741   7.985   2.737
26576WAT     H179970   0.757   7.929   2.818
26576WAT     H279971   0.784   8.075   2.749
26577WAT      O79972   9.002   4.706   7.735
26577WAT     H179973   9.030   4.632   7.795
26577WAT     H279974   8.911   4.738   7.761
26578WAT      O79975   3.479   2.647   0.207
26578WAT     H179976   3.496   2.658   0.304
26578WAT     H279977   3.388   2.683   0.185
26579WAT      O79978   3.620   4.041   7.914
26579WAT     H179979   3.619   4.104   7.837
26579WAT     H279980   3.615   4.093   8.000
26580WAT      O79981   4.147   4.494   1.784
26580WAT     H179982   4.159   4.421   1.850
26580WAT     H279983   4.209   4.569   1.806
26581WAT      O79984   1.478   7.143   4.671
26581WAT     H179985   1.508   7.094   4.753
26581WAT     H279986   1.384   7.117   4.649
26582WAT      O79987   5.875   2.931   5.751
26582WAT     H179988   5.889   2.843   5.706
26582WAT     H279989   5.929   2.934   5.836
26583WAT      O79990   5.665   2.899   1.330
26583WAT     H179991   5.755   2.893   1.285
26583WAT     H279992   5.656   2.988   1.375
26584WAT      O79993   6.618   6.697   1.251
26584WAT     H179994   6.542   6.648   1.208
26584WAT     H279995   6.633   6.783   1.203
26585WAT      O79996   9.814   7.169   3.300
26585WAT     H179997   9.812   7.070   3.313
26585WAT     H279998   9.838   7.190   3.206
26586WAT      O79999   9.396   7.134   6.940
26586WAT     H180000   9.363   7.136   6.845
26586WAT     H280001   9.484   7.182   6.945
26587WAT      O80002   6.297   6.612   6.966
26587WAT     H180003   6.339   6.640   6.880
26587WAT     H280004   6.256   6.691   7.011
26588WAT      O80005   2.700   0.049   6.733
26588WAT     H180006   2.767   0.015   6.799
26588WAT     H280007   2.639   0.115   6.778
26589WAT      O80008   1.230   0.239   0.643
26589WAT     H180009   1.239   0.179   0.722
26589WAT     H280010   1.277   0.325   0.661
26590WAT      O80011   5.182   4.299   3.290
26590WAT     H180012   5.275   4.291   3.256
26590WAT     H280013   5.181   4.287   3.389
26591WAT      O80014   1.970   8.241   7.705
26591WAT     H180015   1.909   8.199   7.773
26591WAT     H280016   1.942   8.336   7.690
26592WAT      O80017   3.284   2.005   1.045
26592WAT     H180018   3.328   1.951   1.117
26592WAT     H280019   3.323   1.980   0.956
26593WAT      O80020   8.893   5.510   9.131
26593WAT     H180021   8.847   5.438   9.079
26593WAT     H280022   8.852   5.517   9.222
26594WAT      O80023   5.338   9.675   4.508
26594WAT     H180024   5.325   9.684   4.409
26594WAT     H280025   5.370   9.762   4.545
26595WAT      O80026   1.217   3.083   3.669
26595WAT     H180027   1.222   3.008   3.604
26595WAT     H280028   1.212   3.046   3.762
26596WAT      O80029   9.064   5.446   0.511
26596WAT     H180030   8.986   5.417   0.455
26596WAT     H280031   9.039   5.528   0.562
26597WAT      O80032   6.452   7.149   8.806
26597WAT     H180033   6.478   7.054   8.786
26597WAT     H280034   6.361   7.150   8.848
26598WAT      O80035   6.782   1.259   7.093
26598WAT     H180036   6.784   1.271   6.994
26598WAT     H280037   6.746   1.169   7.115
26599WAT      O80038   6.636   4.272   0.927
26599WAT     H180039   6.554   4.328   0.911
26599WAT     H280040   6.691   4.313   1.000
26600WAT      O80041   7.342   3.789   2.907
26600WAT     H180042   7.359   3.701   2.950
26600WAT     H280043   7.425   3.845   2.911
26601WAT      O80044   3.823   8.569   7.971
26601WAT     H180045   3.795   8.636   7.903
26601WAT     H280046   3.921   8.575   7.986
26602WAT      O80047   6.640   4.679   2.404
26602WAT     H180048   6.615   4.583   2.389
26602WAT     H280049   6.734   4.694   2.374
26603WAT      O80050   1.064   6.573   3.748
26603WAT     H180051   1.024   6.522   3.824
26603WAT     H280052   1.017   6.661   3.740
26604WAT      O80053   8.714   8.061   8.710
26604WAT     H180054   8.809   8.093   8.716
26604WAT     H280055   8.695   8.031   8.616
26605WAT      O80056   1.971   7.888   5.583
26605WAT     H180057   2.021   7.964   5.539
26605WAT     H280058   1.999   7.802   5.540
26606WAT      O80059   1.293   3.481   5.338
26606WAT     H180060   1.242   3.553   5.290
26606WAT     H280061   1.244   3.455   5.421
26607WAT      O80062   5.488   1.752   5.847
26607WAT     H180063   5.466   1.768   5.751
26607WAT     H280064   5.573   1.700   5.854
26608WAT      O80065   1.265   5.575   7.586
26608WAT     H180066   1.251   5.490   7.636
26608WAT     H280067   1.177   5.612   7.556
26609WAT      O80068   9.364   1.213   5.050
26609WAT     H180069   9.364   1.127   4.999
26609WAT     H280070   9.364   1.290   4.986
26610WAT      O80071   0.303   0.146   8.212
26610WAT     H180072   0.284   0.235   8.254
26610WAT     H280073   0.235   0.128   8.141
26611WAT      O80074   6.668   9.590   9.888
26611WAT     H180075   6.670   9.690   9.885
26611WAT     H280076   6.744   9.554   9.834
26612WAT      O80077   6.081   0.238   9.520
26612WAT     H180078   6.034   0.150   9.516
26612WAT     H280079   6.178   0.225   9.500
26613WAT      O80080   0.159   3.323   9.098
26613WAT     H180081   0.239   3.272   9.130
26613WAT     H280082   0.084   3.312   9.163
26614WAT      O80083   3.289   7.420   4.891
26614WAT     H180084   3.369   7.462   4.847
26614WAT     H280085   3.315   7.387   4.981
26615WAT      O80086   6.597   8.352   7.358
26615WAT     H180087   6.655   8.271   7.349
26615WAT     H280088   6.621   8.401   7.441
26616WAT      O80089   7.823   9.085   8.834
26616WAT     H180090   7.845   9.140   8.752
26616WAT     H280091   7.743   9.029   8.815
26617WAT      O80092   3.444   9.191   8.392
26617WAT     H180093   3.406   9.158   8.306
26617WAT     H280094   3.493   9.276   8.376
26618WAT      O80095   3.315   0.131   7.901
26618WAT     H180096   3.279   0.145   7.809
26618WAT     H280097   3.277   0.199   7.963
26619WAT      O80098   9.090   8.653   5.693
26619WAT     H180099   9.053   8.739   5.655
26619WAT     H280100   9.015   8.598   5.729
26620WAT      O80101   0.867   6.481   8.356
26620WAT     H180102   0.958   6.441   8.351
26620WAT     H280103   0.809   6.424   8.414
26621WAT      O80104   1.810   2.958   0.249
26621WAT     H180105   1.730   3.018   0.248
26621WAT     H280106   1.790   2.876   0.195
26622WAT      O80107   6.454   9.273   7.466
26622WAT     H180108   6.412   9.301   7.553
26622WAT     H280109   6.415   9.327   7.392
26623WAT      O80110   1.043   8.605   6.719
26623WAT     H180111   0.962   8.650   6.757
26623WAT     H280112   1.093   8.670   6.662
26624WAT      O80113   2.642   0.986   5.706
26624WAT     H180114   2.646   1.086   5.707
26624WAT     H280115   2.673   0.950   5.794
26625WAT      O80116   0.981   1.703   9.521
26625WAT     H180117   0.929   1.709   9.436
26625WAT     H280118   0.919   1.713   9.599
26626WAT      O80119   6.709   9.182   3.332
26626WAT     H180120   6.691   9.084   3.328
26626WAT     H280121   6.705   9.213   3.427
26627WAT      O80122   8.267   0.153   8.125
26627WAT     H180123   8.174   0.185   8.108
26627WAT     H280124   8.292   0.171   8.220
26628WAT      O80125   0.325   0.697   2.128
26628WAT     H180126   0.343   0.749   2.211
26628WAT     H280127   0.380   0.733   2.053
26629WAT      O80128   0.480   3.277   5.540
26629WAT     H180129   0.388   3.317   5.539
26629WAT     H280130   0.542   3.338   5.590
26630WAT      O80131   2.217   7.221   2.900
26630WAT     H180132   2.123   7.242   2.927
26630WAT     H280133   2.259   7.302   2.859
26631WAT      O80134   1.829   9.672   1.658
26631WAT     H180135   1.876   9.711   1.737
26631WAT     H280136   1.769   9.597   1.687
26632WAT      O80137   3.268   8.756   3.429
26632WAT     H180138   3.349   8.697   3.421
26632WAT     H280139   3.289   8.834   3.487
26633WAT      O80140   4.645   6.763   6.851
26633WAT     H180141   4.658   6.797   6.758
26633WAT     H280142   4.549   6.770   6.877
26634WAT      O80143   2.875   8.751   1.960
26634WAT     H180144   2.929   8.770   1.878
26634WAT     H280145   2.850   8.837   2.004
26635WAT      O80146   9.704   0.010   7.895
26635WAT     H180147   9.743   0.100   7.880
26635WAT     H280148   9.692  -0.037   7.807
26636WAT      O80149   1.739   0.406   6.085
26636WAT     H180150   1.675   0.479   6.064
26636WAT     H280151   1.711   0.360   6.170
26637WAT      O80152   0.108   2.148   6.479
26637WAT     H180153   0.185   2.091   6.450
26637WAT     H280154   0.022   2.105   6.451
26638WAT      O80155   7.953   8.078   3.848
26638WAT     H180156   8.046   8.111   3.860
26638WAT     H280157   7.954   7.995   3.791
26639WAT      O80158   1.637   7.390   9.009
26639WAT     H180159   1.713   7.422   9.066
26639WAT     H280160   1.579   7.468   8.984
26640WAT      O80161   3.600   4.994   5.898
26640WAT     H180162   3.528   4.977   5.966
26640WAT     H280163   3.689   4.992   5.944
26641WAT      O80164   5.422   4.177   9.306
26641WAT     H180165   5.368   4.220   9.378
26641WAT     H280166   5.492   4.240   9.275
26642WAT      O80167   5.546   2.244   0.218
26642WAT     H180168   5.551   2.233   0.318
26642WAT     H280169   5.501   2.331   0.197
26643WAT      O80170   2.660   4.204   5.677
26643WAT     H180171   2.710   4.130   5.722
26643WAT     H280172   2.566   4.175   5.660
26644WAT      O80173   7.542   8.574   6.574
26644WAT     H180174   7.557   8.595   6.478
26644WAT     H280175   7.485   8.645   6.616
26645WAT      O80176   5.013   4.994   9.169
26645WAT     H180177   5.071   5.072   9.192
26645WAT     H280178   4.926   5.026   9.133
26646WAT      O80179   5.230   6.850   1.409
26646WAT     H180180   5.257   6.851   1.313
26646WAT     H280181   5.291   6.910   1.461
26647WAT      O80182   7.645   8.153   9.524
26647WAT     H180183   7.547   8.149   9.505
26647WAT     H280184   7.665   8.235   9.578
26648WAT      O80185   8.481   5.834   5.542
26648WAT     H180186   8.564   5.864   5.589
26648WAT     H280187   8.411   5.813   5.610
26649WAT      O80188   3.270   4.740   8.170
26649WAT     H180189   3.228   4.804   8.234
26649WAT     H280190   3.272   4.648   8.210
26650WAT      O80191   6.201   2.113   5.523
26650WAT     H180192   6.146   2.175   5.580
26650WAT     H280193   6.201   2.022   5.563
26651WAT      O80194   2.385   2.941   8.180
26651WAT     H180195   2.349   2.858   8.137
26651WAT     H280196   2.342   3.022   8.139
26652WAT      O80197   4.771   0.172   0.267
26652WAT     H180198   4.734   0.121   0.345
26652WAT     H280199   4.871   0.173   0.272
26653WAT      O80200   7.595   1.581   6.111
26653WAT     H180201   7.516   1.569   6.170
26653WAT     H280202   7.569   1.634   6.030
26654WAT      O80203   2.970   2.901   7.751
26654WAT     H180204   2.919   2.986   7.760
26654WAT     H280205   3.008   2.875   7.840
26655WAT      O80206   9.695   8.497   8.065
26655WAT     H180207   9.787   8.460   8.077
26655WAT     H280208   9.651   8.453   7.987
26656WAT      O80209   4.318   5.929   4.652
26656WAT     H180210   4.412   5.951   4.626
26656WAT     H280211   4.258   6.004   4.627
26657WAT      O80212   0.720   7.511   9.784
26657WAT     H180213   0.752   7.422   9.817
26657WAT     H280214   0.671   7.500   9.697
26658WAT      O80215   2.815   8.477   6.806
26658WAT     H180216   2.817   8.577   6.808
26658WAT     H280217   2.729   8.446   6.764
26659WAT      O80218   6.826   6.608   1.415
26659WAT     H180219   6.917   6.603   1.374
26659WAT     H280220   6.768   6.669   1.361
26660WAT      O80221   0.262   8.947   7.630
26660WAT     H180222   0.275   8.856   7.590
26660WAT     H280223   0.302   9.016   7.570
26661WAT      O80224   4.716   1.722   5.636
26661WAT     H180225   4.661   1.746   5.715
26661WAT     H280226   4.667   1.656   5.579
26662WAT      O80227   3.056   0.428   9.419
26662WAT     H180228   3.085   0.415   9.514
26662WAT     H280229   3.082   0.520   9.389
26663WAT      O80230   6.133   5.265   6.925
26663WAT     H180231   6.101   5.193   6.862
26663WAT     H280232   6.206   5.229   6.983
26664WAT      O80233   2.453   0.130   3.341
26664WAT     H180234   2.492   0.062   3.279
26664WAT     H280235   2.436   0.088   3.430
26665WAT      O80236   2.603   3.059   1.361
26665WAT     H180237   2.650   3.146   1.374
26665WAT     H280238   2.606   3.034   1.264
26666WAT      O80239   0.511   6.519   2.551
26666WAT     H180240   0.521   6.475   2.461
26666WAT     H280241   0.601   6.531   2.592
26667WAT      O80242   4.296   6.931   8.075
26667WAT     H180243   4.368   6.990   8.039
26667WAT     H280244   4.301   6.841   8.032
26668WAT      O80245   1.987   7.683   8.639
26668WAT     H180246   2.003   7.626   8.718
26668WAT     H280247   1.991   7.628   8.556
26669WAT      O80248   8.081   7.430   0.419
26669WAT     H180249   8.158   7.438   0.355
26669WAT     H280250   8.011   7.498   0.396
26670WAT      O80251   3.996   7.966   6.774
26670WAT     H180252   3.998   7.937   6.869
26670WAT     H280253   3.958   8.059   6.768
26671WAT      O80254   0.005   9.054   4.016
26671WAT     H180255  -0.073   9.009   4.060
26671WAT     H280256   0.039   9.127   4.075
26672WAT      O80257   1.178   1.805   3.751
26672WAT     H180258   1.136   1.752   3.824
26672WAT     H280259   1.258   1.853   3.786
26673WAT      O80260   3.906   8.783   5.744
26673WAT     H180261   3.998   8.811   5.773
26673WAT     H280262   3.844   8.789   5.822
26674WAT      O80263   0.705   8.464   5.534
26674WAT     H180264   0.765   8.541   5.511
26674WAT     H280265   0.727   8.386   5.476
26675WAT      O80266   9.809   7.854   8.804
26675WAT     H180267   9.811   7.798   8.887
26675WAT     H280268   9.889   7.833   8.748
26676WAT      O80269   6.127   3.741   1.786
26676WAT     H180270   6.044   3.735   1.732
26676WAT     H280271   6.204   3.705   1.734
26677WAT      O80272   0.191   5.620   2.475
26677WAT     H180273   0.202   5.545   2.541
26677WAT     H280274   0.123   5.594   2.406
26678WAT      O80275   2.027   8.081   9.280
26678WAT     H180276   2.052   8.176   9.264
26678WAT     H280277   1.934   8.065   9.247
26679WAT      O80278   5.829   4.079   7.457
26679WAT     H180279   5.873   4.101   7.544
26679WAT     H280280   5.812   4.163   7.406
26680WAT      O80281   4.478   9.192   7.982
26680WAT     H180282   4.452   9.122   7.916
26680WAT     H280283   4.509   9.149   8.067
26681WAT      O80284   1.036   3.137   7.980
26681WAT     H180285   0.986   3.115   7.896
26681WAT     H280286   1.132   3.155   7.959
26682WAT      O80287   8.999   1.023   4.911
26682WAT     H180288   8.961   1.017   4.819
26682WAT     H280289   9.013   1.119   4.936
26683WAT      O80290   5.360   9.507   6.113
26683WAT     H180291   5.349   9.452   6.030
26683WAT     H280292   5.341   9.450   6.193
26684WAT      O80293   1.434   8.152   5.640
26684WAT     H180294   1.533   8.168   5.641
26684WAT     H280295   1.416   8.054   5.648
26685WAT      O80296   7.250   0.526   6.752
26685WAT     H180297   7.234   0.509   6.849
26685WAT     H280298   7.324   0.592   6.741
26686WAT      O80299   2.167   2.580   7.143
26686WAT     H180300   2.185   2.641   7.066
26686WAT     H280301   2.069   2.558   7.146
26687WAT      O80302   8.824   7.591   9.694
26687WAT     H180303   8.797   7.683   9.722
26687WAT     H280304   8.741   7.534   9.685
26688WAT      O80305   2.167   0.000   1.333
26688WAT     H180306   2.133   0.082   1.380
26688WAT     H280307   2.120  -0.081   1.368
26689WAT      O80308   1.022   4.698   4.209
26689WAT     H180309   1.000   4.778   4.264
26689WAT     H280310   1.007   4.717   4.113
26690WAT      O80311   8.306   4.441   9.691
26690WAT     H180312   8.343   4.431   9.599
26690WAT     H280313   8.354   4.514   9.739
26691WAT      O80314   4.579   9.467   9.268
26691WAT     H180315   4.624   9.506   9.188
26691WAT     H280316   4.565   9.538   9.337
26692WAT      O80317   3.290   8.525   0.225
26692WAT     H180318   3.377   8.573   0.231
26692WAT     H280319   3.291   8.446   0.286
26693WAT      O80320   2.930   9.478   7.391
26693WAT     H180321   2.882   9.566   7.396
26693WAT     H280322   2.988   9.478   7.309
26694WAT      O80323   7.620   5.122   1.700
26694WAT     H180324   7.562   5.154   1.775
26694WAT     H280325   7.563   5.082   1.629
26695WAT      O80326   1.498   1.930   8.322
26695WAT     H180327   1.571   1.893   8.264
26695WAT     H280328   1.434   1.857   8.345
26696WAT      O80329   9.850   2.936   8.828
26696WAT     H180330   9.949   2.925   8.816
26696WAT     H280331   9.818   2.874   8.900
26697WAT      O80332   4.979   5.599   8.913
26697WAT     H180333   4.993   5.620   9.010
26697WAT     H280334   5.016   5.673   8.857
26698WAT      O80335   2.871   0.762   4.838
26698WAT     H180336   2.779   0.787   4.869
26698WAT     H280337   2.867   0.725   4.745
26699WAT      O80338   7.748   3.416   0.261
26699WAT     H180339   7.669   3.359   0.282
26699WAT     H280340   7.790   3.449   0.346
26700WAT      O80341   9.801   8.114   1.522
26700WAT     H180342   9.718   8.170   1.518
26700WAT     H280343   9.872   8.164   1.574
26701WAT      O80344   1.697   5.631   9.474
26701WAT     H180345   1.708   5.570   9.396
26701WAT     H280346   1.730   5.586   9.557
26702WAT      O80347   1.228   3.736   5.519
26702WAT     H180348   1.147   3.781   5.482
26702WAT     H280349   1.201   3.671   5.590
26703WAT      O80350   6.204   9.330   3.176
26703WAT     H180351   6.155   9.354   3.092
26703WAT     H280352   6.302   9.327   3.157
26704WAT      O80353   6.222   4.650   0.619
26704WAT     H180354   6.185   4.719   0.557
26704WAT     H280355   6.208   4.559   0.581
26705WAT      O80356   7.068   2.508   1.434
26705WAT     H180357   7.002   2.433   1.444
26705WAT     H280358   7.065   2.542   1.340
26706WAT      O80359   4.575   8.539   9.817
26706WAT     H180360   4.647   8.518   9.883
26706WAT     H280361   4.596   8.624   9.770
26707WAT      O80362   5.797   3.764   3.969
26707WAT     H180363   5.772   3.727   4.058
26707WAT     H280364   5.785   3.864   3.970
26708WAT      O80365   6.008   4.261   9.574
26708WAT     H180366   6.092   4.210   9.591
26708WAT     H280367   6.027   4.359   9.581
26709WAT      O80368   5.376   3.444   8.279
26709WAT     H180369   5.319   3.526   8.279
26709WAT     H280370   5.361   3.393   8.194
26710WAT      O80371   2.952   0.882   5.531
26710WAT     H180372   2.956   0.810   5.601
26710WAT     H280373   2.915   0.966   5.572
26711WAT      O80374   5.387   7.508   0.585
26711WAT     H180375   5.332   7.577   0.631
26711WAT     H280376   5.387   7.424   0.638
26712WAT      O80377   3.211   6.134   2.213
26712WAT     H180378   3.268   6.071   2.161
26712WAT     H280379   3.177   6.088   2.295
26713WAT      O80380   8.001   3.387   3.830
26713WAT     H180381   7.916   3.437   3.814
26713WAT     H280382   7.982   3.305   3.884
26714WAT      O80383   1.277   2.824   9.025
26714WAT     H180384   1.233   2.734   9.027
26714WAT     H280385   1.213   2.893   9.057
26715WAT      O80386   4.761   0.682   4.933
26715WAT     H180387   4.711   0.685   5.020
26715WAT     H280388   4.709   0.627   4.868
26716WAT      O80389   5.553   8.715   2.235
26716WAT     H180390   5.621   8.710   2.309
26716WAT     H280391   5.461   8.722   2.274
26717WAT      O80392   5.984   2.440   8.130
26717WAT     H180393   5.937   2.527   8.145
26717WAT     H280394   6.063   2.455   8.071
26718WAT      O80395   7.753   2.840   9.029
26718WAT     H180396   7.839   2.878   9.060
26718WAT     H280397   7.752   2.835   8.929
26719WAT      O80398   2.741   7.612   7.565
26719WAT     H180399   2.784   7.702   7.567
26719WAT     H280400   2.703   7.592   7.655
26720WAT      O80401   6.989   0.246   4.142
26720WAT     H180402   6.903   0.229   4.191
26720WAT     H280403   6.970   0.291   4.055
26721WAT      O80404   9.298   9.541   3.993
26721WAT     H180405   9.309   9.442   4.006
26721WAT     H280406   9.347   9.589   4.066
26722WAT      O80407   9.294   0.671   2.430
26722WAT     H180408   9.240   0.755   2.432
26722WAT     H280409   9.240   0.596   2.468
26723WAT      O80410   9.503   3.244   4.817
26723WAT     H180411   9.547   3.185   4.885
26723WAT     H280412   9.540   3.337   4.825
26724WAT      O80413   9.783   2.543   1.498
26724WAT     H180414   9.719   2.619   1.512
26724WAT     H280415   9.758   2.493   1.415
26725WAT      O80416   1.127   4.498   6.811
26725WAT     H180417   1.132   4.574   6.747
26725WAT     H280418   1.219   4.468   6.836
26726WAT      O80419   1.231   0.680   5.190
26726WAT     H180420   1.193   0.636   5.109
26726WAT     H280421   1.252   0.610   5.259
26727WAT      O80422   0.687   0.426   3.437
26727WAT     H180423   0.620   0.407   3.365
26727WAT     H280424   0.655   0.504   3.492
26728WAT      O80425   3.028   5.569   4.435
26728WAT     H180426   2.974   5.503   4.489
26728WAT     H280427   3.013   5.661   4.472
26729WAT      O80428   9.414   4.625   8.089
26729WAT     H180429   9.466   4.576   8.160
26729WAT     H280430   9.434   4.722   8.094
26730WAT      O80431   6.030   7.035   0.312
26730WAT     H180432   6.029   7.120   0.365
26730WAT     H280433   5.993   7.052   0.221
26731WAT      O80434   2.609   5.561   2.986
26731WAT     H180435   2.599   5.487   2.920
26731WAT     H280436   2.532   5.558   3.050
26732WAT      O80437   9.782   8.588   4.542
26732WAT     H180438   9.760   8.683   4.522
26732WAT     H280439   9.850   8.584   4.616
26733WAT      O80440   2.244   9.110   3.722
26733WAT     H180441   2.282   9.105   3.814
26733WAT     H280442   2.144   9.110   3.727
26734WAT      O80443   6.815   3.524   7.429
26734WAT     H180444   6.743   3.490   7.490
26734WAT     H280445   6.789   3.613   7.392
26735WAT      O80446   2.311   5.840   5.440
26735WAT     H180447   2.361   5.760   5.472
26735WAT     H280448   2.346   5.867   5.350
26736WAT      O80449   0.628   0.301   9.168
26736WAT     H180450   0.632   0.217   9.113
26736WAT     H280451   0.720   0.324   9.200
26737WAT      O80452   0.423   7.193   4.515
26737WAT     H180453   0.401   7.290   4.525
26737WAT     H280454   0.486   7.166   4.588
26738WAT      O80455   1.655   8.815   8.786
26738WAT     H180456   1.745   8.804   8.827
26738WAT     H280457   1.665   8.861   8.697
26739WAT      O80458   4.717   2.785   9.304
26739WAT     H180459   4.765   2.716   9.358
26739WAT     H280460   4.783   2.847   9.262
26740WAT      O80461   6.277   2.965   4.340
26740WAT     H180462   6.211   2.891   4.329
26740WAT     H280463   6.249   3.044   4.284
26741WAT      O80464   6.221   1.324   9.659
26741WAT     H180465   6.208   1.423   9.644
26741WAT     H280466   6.209   1.276   9.573
26742WAT      O80467   6.020   9.312   9.259
26742WAT     H180468   5.974   9.375   9.197
26742WAT     H280469   6.103   9.276   9.215
26743WAT      O80470   2.914   5.390   1.620
26743WAT     H180471   2.912   5.290   1.619
26743WAT     H280472   2.821   5.425   1.616
26744WAT      O80473   9.573   5.108   9.408
26744WAT     H180474   9.615   5.134   9.320
26744WAT     H280475   9.527   5.188   9.448
26745WAT      O80476   6.996   8.043   2.245
26745WAT     H180477   6.936   8.015   2.171
26745WAT     H280478   7.077   8.089   2.207
26746WAT      O80479   3.697   7.383   2.221
26746WAT     H180480   3.662   7.459   2.167
26746WAT     H280481   3.655   7.385   2.312
26747WAT      O80482   3.220   3.287   8.786
26747WAT     H180483   3.167   3.365   8.819
26747WAT     H280484   3.162   3.206   8.782
26748WAT      O80485   3.957   2.554   0.530
26748WAT     H180486   4.041   2.502   0.545
26748WAT     H280487   3.887   2.522   0.593
26749WAT      O80488   8.932   6.482   7.947
26749WAT     H180489   8.968   6.492   8.040
26749WAT     H280490   8.834   6.505   7.948
26750WAT      O80491   3.177   1.125   8.121
26750WAT     H180492   3.100   1.158   8.176
26750WAT     H280493   3.155   1.035   8.083
26751WAT      O80494   1.459   6.844   9.508
26751WAT     H180495   1.456   6.879   9.602
26751WAT     H280496   1.552   6.814   9.487
26752WAT      O80497   2.910   2.599   0.945
26752WAT     H180498   2.840   2.568   0.881
26752WAT     H280499   2.870   2.602   1.037
26753WAT      O80500   5.354   5.170   5.669
26753WAT     H180501   5.270   5.124   5.699
26753WAT     H280502   5.412   5.105   5.622
26754WAT      O80503   1.119   4.046   8.862
26754WAT     H180504   1.040   4.053   8.801
26754WAT     H280505   1.203   4.047   8.808
26755WAT      O80506   8.519   5.753   1.170
26755WAT     H180507   8.525   5.668   1.116
26755WAT     H280508   8.450   5.813   1.129
26756WAT      O80509   7.830   0.149   1.591
26756WAT     H180510   7.823   0.050   1.576
26756WAT     H280511   7.742   0.192   1.573
26757WAT      O80512   9.536   4.978   5.798
26757WAT     H180513   9.574   5.057   5.750
26757WAT     H280514   9.515   5.003   5.893
26758WAT      O80515   7.322   1.022   1.096
26758WAT     H180516   7.331   1.051   1.191
26758WAT     H280517   7.236   0.972   1.084
26759WAT      O80518   2.297   9.764   9.785
26759WAT     H180519   2.339   9.686   9.739
26759WAT     H280520   2.222   9.799   9.729
26760WAT      O80521   8.799   0.212   3.402
26760WAT     H180522   8.850   0.182   3.483
26760WAT     H280523   8.837   0.169   3.321
26761WAT      O80524   4.731   0.014   7.285
26761WAT     H180525   4.770   0.019   7.193
26761WAT     H280526   4.734  -0.081   7.317
26762WAT      O80527   2.866   4.905   0.464
26762WAT     H180528   2.862   4.986   0.522
26762WAT     H280529   2.910   4.928   0.377
26763WAT      O80530   7.802   7.530   6.465
26763WAT     H180531   7.833   7.588   6.540
26763WAT     H280532   7.714   7.564   6.431
26764WAT      O80533   3.075   8.950   5.383
26764WAT     H180534   3.043   8.919   5.472
26764WAT     H280535   3.021   8.906   5.311
26765WAT      O80536   6.015   2.248   8.493
26765WAT     H180537   5.919   2.275   8.502
26765WAT     H280538   6.020   2.157   8.451
26766WAT      O80539   3.322   0.211   8.369
26766WAT     H180540   3.307   0.132   8.309
26766WAT     H280541   3.420   0.222   8.386
26767WAT      O80542   2.090   9.751   9.576
26767WAT     H180543   2.158   9.774   9.506
26767WAT     H280544   2.028   9.682   9.540
26768WAT      O80545   7.018   5.711   5.948
26768WAT     H180546   7.002   5.615   5.925
26768WAT     H280547   7.033   5.763   5.864
26769WAT      O80548   6.055   9.313   8.279
26769WAT     H180549   5.963   9.340   8.249
26769WAT     H280550   6.119   9.387   8.260
26770WAT      O80551   2.345   8.499   4.012
26770WAT     H180552   2.416   8.560   3.979
26770WAT     H280553   2.261   8.512   3.959
26771WAT      O80554   1.847   2.208   5.490
26771WAT     H180555   1.890   2.209   5.581
26771WAT     H280556   1.908   2.251   5.424
26772WAT      O80557   2.034   2.915   7.109
26772WAT     H180558   1.943   2.873   7.103
26772WAT     H280559   2.083   2.901   7.023
26773WAT      O80560   6.035   7.130   1.584
26773WAT     H180561   5.967   7.116   1.512
26773WAT     H280562   6.023   7.221   1.624
26774WAT      O80563   7.255   0.878   5.454
26774WAT     H180564   7.341   0.927   5.439
26774WAT     H280565   7.252   0.844   5.548
26775WAT      O80566   1.206   9.429   6.950
26775WAT     H180567   1.270   9.504   6.965
26775WAT     H280568   1.198   9.374   7.033
26776WAT      O80569   8.561   2.864   5.987
26776WAT     H180570   8.593   2.810   5.909
26776WAT     H280571   8.478   2.823   6.025
26777WAT      O80572   7.260   1.577   3.398
26777WAT     H180573   7.317   1.501   3.367
26777WAT     H280574   7.208   1.613   3.321
26778WAT      O80575   3.296   9.648   6.748
26778WAT     H180576   3.365   9.611   6.810
26778WAT     H280577   3.332   9.729   6.703
26779WAT      O80578   2.776   6.741   0.195
26779WAT     H180579   2.792   6.823   0.140
26779WAT     H280580   2.793   6.762   0.291
26780WAT      O80581   8.219   0.800   7.830
26780WAT     H180582   8.249   0.874   7.890
26780WAT     H280583   8.214   0.714   7.881
26781WAT      O80584   5.947   3.797   6.154
26781WAT     H180585   6.001   3.830   6.077
26781WAT     H280586   6.001   3.732   6.207
26782WAT      O80587   1.410   2.594   9.708
26782WAT     H180588   1.425   2.497   9.728
26782WAT     H280589   1.335   2.603   9.643
26783WAT      O80590   3.675   9.701   5.471
26783WAT     H180591   3.655   9.692   5.373
26783WAT     H280592   3.716   9.791   5.488
26784WAT      O80593   6.830   7.285   6.315
26784WAT     H180594   6.897   7.252   6.249
26784WAT     H280595   6.775   7.209   6.348
26785WAT      O80596   4.538   4.524   8.894
26785WAT     H180597   4.475   4.601   8.908
26785WAT     H280598   4.507   4.445   8.947
26786WAT      O80599   2.955   5.745   1.024
26786WAT     H180600   2.856   5.754   1.013
26786WAT     H280601   2.994   5.707   0.940
26787WAT      O80602   9.392   2.755   5.253
26787WAT     H180603   9.451   2.753   5.333
26787WAT     H280604   9.313   2.814   5.271
26788WAT      O80605   6.233   3.009   2.873
26788WAT     H180606   6.259   3.087   2.930
26788WAT     H280607   6.281   2.927   2.904
26789WAT      O80608   1.851   8.552   7.724
26789WAT     H180609   1.773   8.612   7.737
26789WAT     H280610   1.934   8.606   7.712
26790WAT      O80611   0.675   3.988   5.576
26790WAT     H180612   0.715   3.969   5.666
26790WAT     H280613   0.679   3.906   5.519
26791WAT      O80614   8.234   3.634   2.986
26791WAT     H180615   8.187   3.705   3.039
26791WAT     H280616   8.201   3.544   3.016
26792WAT      O80617   6.287   1.098   2.648
26792WAT     H180618   6.329   1.185   2.623
26792WAT     H280619   6.190   1.113   2.669
26793WAT      O80620   5.201   7.711   2.283
26793WAT     H180621   5.229   7.806   2.266
26793WAT     H280622   5.220   7.687   2.378
26794WAT      O80623   6.335   5.623   0.221
26794WAT     H180624   6.393   5.702   0.201
26794WAT     H280625   6.279   5.642   0.302
26795WAT      O80626   3.683   9.367   5.144
26795WAT     H180627   3.655   9.367   5.240
26795WAT     H280628   3.664   9.457   5.104
26796WAT      O80629   7.471   2.151   8.769
26796WAT     H180630   7.449   2.182   8.676
26796WAT     H280631   7.522   2.222   8.817
26797WAT      O80632   2.849   9.211   1.048
26797WAT     H180633   2.826   9.117   1.022
26797WAT     H280634   2.766   9.260   1.075
26798WAT      O80635   7.965   6.467   0.653
26798WAT     H180636   8.047   6.431   0.608
26798WAT     H280637   7.972   6.567   0.658
26799WAT      O80638   6.909   8.050   3.144
26799WAT     H180639   6.866   8.036   3.054
26799WAT     H280640   6.994   8.100   3.132
26800WAT      O80641   1.447   9.281   6.154
26800WAT     H180642   1.414   9.259   6.063
26800WAT     H280643   1.379   9.337   6.202
26801WAT      O80644   5.736   1.210   2.778
26801WAT     H180645   5.646   1.241   2.746
26801WAT     H280646   5.743   1.225   2.877
26802WAT      O80647   1.351   6.575   2.750
26802WAT     H180648   1.298   6.619   2.677
26802WAT     H280649   1.296   6.504   2.793
26803WAT      O80650   1.229   0.864   3.328
26803WAT     H180651   1.305   0.917   3.290
26803WAT     H280652   1.148   0.875   3.269
26804WAT      O80653   2.736   9.227   8.487
26804WAT     H180654   2.834   9.244   8.473
26804WAT     H280655   2.685   9.260   8.408
26805WAT      O80656   6.704   1.894   6.352
26805WAT     H180657   6.622   1.935   6.313
26805WAT     H280658   6.713   1.922   6.448
26806WAT      O80659   8.175   2.463   3.233
26806WAT     H180660   8.132   2.536   3.285
26806WAT     H280661   8.272   2.483   3.222
26807WAT      O80662   7.030   8.425   6.562
26807WAT     H180663   6.964   8.351   6.558
26807WAT     H280664   6.982   8.513   6.554
26808WAT      O80665   4.066   0.565   3.792
26808WAT     H180666   4.110   0.477   3.810
26808WAT     H280667   4.135   0.636   3.781
26809WAT      O80668   2.792   4.511   2.701
26809WAT     H180669   2.826   4.460   2.622
26809WAT     H280670   2.718   4.572   2.672
26810WAT      O80671   1.770   7.663   7.298
26810WAT     H180672   1.759   7.674   7.199
26810WAT     H280673   1.710   7.590   7.331
26811WAT      O80674   7.878   7.324   6.646
26811WAT     H180675   7.806   7.280   6.699
26811WAT     H280676   7.836   7.382   6.575
26812WAT      O80677   7.460   2.322   5.480
26812WAT     H180678   7.516   2.337   5.561
26812WAT     H280679   7.465   2.226   5.453
26813WAT      O80680   7.766   8.622   9.135
26813WAT     H180681   7.694   8.637   9.067
26813WAT     H280682   7.791   8.709   9.177
26814WAT      O80683   8.236   2.095   7.207
26814WAT     H180684   8.310   2.162   7.196
26814WAT     H280685   8.193   2.108   7.296
26815WAT      O80686   6.505   2.679   7.036
26815WAT     H180687   6.423   2.646   6.989
26815WAT     H280688   6.504   2.779   7.037
26816WAT      O80689   4.453   3.582   5.740
26816WAT     H180690   4.511   3.535   5.807
26816WAT     H280691   4.421   3.516   5.672
26817WAT      O80692   5.885   5.585   4.100
26817WAT     H180693   5.799   5.627   4.071
26817WAT     H280694   5.951   5.588   4.025
26818WAT      O80695   6.087   7.493   8.114
26818WAT     H180696   6.168   7.459   8.066
26818WAT     H280697   6.008   7.439   8.085
26819WAT      O80698   6.392   0.867   2.694
26819WAT     H180699   6.372   0.962   2.667
26819WAT     H280700   6.319   0.834   2.754
26820WAT      O80701   0.696   2.087   4.237
26820WAT     H180702   0.748   2.124   4.314
26820WAT     H280703   0.753   2.090   4.154
26821WAT      O80704   1.393   7.957   4.035
26821WAT     H180705   1.454   7.922   3.965
26821WAT     H280706   1.305   7.909   4.030
26822WAT      O80707   5.333   7.389   3.819
26822WAT     H180708   5.324   7.461   3.887
26822WAT     H280709   5.422   7.397   3.774
26823WAT      O80710   0.790   0.279   1.937
26823WAT     H180711   0.830   0.368   1.960
26823WAT     H280712   0.863   0.209   1.937
26824WAT      O80713   7.531   2.758   2.195
26824WAT     H180714   7.525   2.695   2.273
26824WAT     H280715   7.601   2.725   2.132
26825WAT      O80716   2.802   1.126   9.338
26825WAT     H180717   2.819   1.057   9.267
26825WAT     H280718   2.876   1.124   9.405
26826WAT      O80719   3.501   2.414   0.488
26826WAT     H180720   3.579   2.403   0.426
26826WAT     H280721   3.476   2.511   0.492
26827WAT      O80722   1.225   1.178   9.010
26827WAT     H180723   1.225   1.162   8.911
26827WAT     H280724   1.190   1.269   9.029
26828WAT      O80725   2.944   6.712   5.620
26828WAT     H180726   3.043   6.718   5.631
26828WAT     H280727   2.913   6.623   5.655
26829WAT      O80728   7.126   3.767   5.891
26829WAT     H180729   7.027   3.760   5.902
26829WAT     H280730   7.155   3.862   5.905
26830WAT      O80731   6.044   5.082   6.724
26830WAT     H180732   5.971   5.124   6.671
26830WAT     H280733   6.019   4.987   6.746
26831WAT      O80734   9.312   1.236   8.542
26831WAT     H180735   9.243   1.195   8.602
26831WAT     H280736   9.275   1.319   8.501
26832WAT      O80737   4.700   1.953   3.972
26832WAT     H180738   4.661   1.983   3.885
26832WAT     H280739   4.773   1.887   3.956
26833WAT      O80740   2.872   2.390   2.841
26833WAT     H180741   2.912   2.300   2.827
26833WAT     H280742   2.774   2.382   2.859
26834WAT      O80743   1.004   2.033   7.725
26834WAT     H180744   1.062   2.000   7.800
26834WAT     H280745   0.931   1.966   7.708
26835WAT      O80746   5.073   8.819   6.584
26835WAT     H180747   5.058   8.746   6.651
26835WAT     H280748   5.132   8.889   6.623
26836WAT      O80749   6.048   2.041   2.988
26836WAT     H180750   6.073   1.948   2.962
26836WAT     H280751   5.965   2.039   3.045
26837WAT      O80752   7.758   5.055   3.330
26837WAT     H180753   7.851   5.091   3.334
26837WAT     H280754   7.702   5.115   3.272
26838WAT      O80755   1.508   3.164   4.852
26838WAT     H180756   1.469   3.249   4.815
26838WAT     H280757   1.543   3.181   4.944
26839WAT      O80758   7.058   7.150   3.386
26839WAT     H180759   7.150   7.179   3.360
26839WAT     H280760   7.034   7.067   3.335
26840WAT      O80761   4.843   8.562   6.255
26840WAT     H180762   4.787   8.563   6.338
26840WAT     H280763   4.826   8.477   6.205
26841WAT      O80764   3.342   0.285   5.406
26841WAT     H180765   3.360   0.379   5.379
26841WAT     H280766   3.247   0.276   5.435
26842WAT      O80767   6.106   1.144   0.815
26842WAT     H180768   6.041   1.132   0.740
26842WAT     H280769   6.115   1.058   0.865
26843WAT      O80770   2.004   8.064   8.077
26843WAT     H180771   2.094   8.048   8.117
26843WAT     H280772   1.984   7.992   8.010
26844WAT      O80773   5.534   1.480   6.885
26844WAT     H180774   5.605   1.423   6.844
26844WAT     H280775   5.483   1.427   6.952
26845WAT      O80776   8.822   6.178   0.505
26845WAT     H180777   8.856   6.096   0.459
26845WAT     H280778   8.792   6.155   0.597
26846WAT      O80779   0.561   1.688   3.701
26846WAT     H180780   0.579   1.596   3.666
26846WAT     H280781   0.507   1.739   3.633
26847WAT      O80782   2.729   7.329   5.771
26847WAT     H180783   2.659   7.336   5.842
26847WAT     H280784   2.695   7.370   5.687
26848WAT      O80785   3.188   3.770   0.839
26848WAT     H180786   3.141   3.781   0.751
26848WAT     H280787   3.123   3.738   0.908
26849WAT      O80788   4.130   9.217   7.684
26849WAT     H180789   4.153   9.139   7.626
26849WAT     H280790   4.164   9.201   7.777
26850WAT      O80791   2.469   3.238   3.408
26850WAT     H180792   2.374   3.245   3.378
26850WAT     H280793   2.514   3.327   3.400
26851WAT      O80794   0.208   5.048   2.317
26851WAT     H180795   0.213   5.030   2.218
26851WAT     H280796   0.297   5.079   2.350
26852WAT      O80797   9.148   7.199   7.132
26852WAT     H180798   9.157   7.285   7.183
26852WAT     H280799   9.206   7.203   7.050
26853WAT      O80800   0.562   7.003   4.379
26853WAT     H180801   0.607   6.947   4.449
26853WAT     H280802   0.517   7.081   4.422
26854WAT      O80803   8.892   3.871   4.872
26854WAT     H180804   8.869   3.813   4.794
26854WAT     H280805   8.965   3.828   4.925
26855WAT      O80806   6.552   2.516   9.682
26855WAT     H180807   6.534   2.418   9.670
26855WAT     H280808   6.495   2.568   9.617
26856WAT      O80809   7.989   7.699   1.873
26856WAT     H180810   7.915   7.739   1.819
26856WAT     H280811   8.070   7.759   1.867
26857WAT      O80812   5.951   2.619   3.316
26857WAT     H180813   5.913   2.527   3.321
26857WAT     H280814   5.955   2.649   3.220
26858WAT      O80815   2.854   9.799   5.183
26858WAT     H180816   2.890   9.892   5.181
26858WAT     H280817   2.754   9.801   5.176
26859WAT      O80818   2.155   4.328   3.128
26859WAT     H180819   2.082   4.393   3.148
26859WAT     H280820   2.211   4.315   3.210
26860WAT      O80821   1.708   8.679   5.268
26860WAT     H180822   1.794   8.644   5.305
26860WAT     H280823   1.642   8.692   5.342
26861WAT      O80824   9.306   1.794   6.752
26861WAT     H180825   9.383   1.740   6.718
26861WAT     H280826   9.261   1.838   6.675
26862WAT      O80827   1.979   4.954   5.628
26862WAT     H180828   1.925   5.013   5.569
26862WAT     H280829   2.076   4.976   5.619
26863WAT      O80830   2.338   7.769   8.336
26863WAT     H180831   2.398   7.762   8.416
26863WAT     H280832   2.291   7.858   8.337
26864WAT      O80833   1.818   4.924   5.274
26864WAT     H180834   1.839   4.941   5.177
26864WAT     H280835   1.731   4.875   5.281
26865WAT      O80836   5.161   7.829   2.536
26865WAT     H180837   5.131   7.924   2.524
26865WAT     H280838   5.215   7.822   2.620
26866WAT      O80839   6.873   8.770   3.177
26866WAT     H180840   6.846   8.701   3.111
26866WAT     H280841   6.915   8.726   3.257
26867WAT      O80842   8.220   8.034   7.555
26867WAT     H180843   8.268   7.963   7.607
26867WAT     H280844   8.279   8.113   7.543
26868WAT      O80845   4.111   5.412   6.085
26868WAT     H180846   4.018   5.386   6.111
26868WAT     H280847   4.177   5.363   6.143
26869WAT      O80848   4.708   5.472   8.908
26869WAT     H180849   4.800   5.511   8.908
26869WAT     H280850   4.653   5.515   8.837
26870WAT      O80851   1.520   7.393   9.586
26870WAT     H180852   1.587   7.467   9.597
26870WAT     H280853   1.441   7.411   9.644
26871WAT      O80854   5.088   5.910   6.070
26871WAT     H180855   4.992   5.893   6.049
26871WAT     H280856   5.113   5.863   6.155
26872WAT      O80857   4.612   2.071   2.174
26872WAT     H180858   4.637   2.079   2.078
26872WAT     H280859   4.516   2.096   2.186
26873WAT      O80860   6.159   3.270   5.038
26873WAT     H180861   6.066   3.254   5.071
26873WAT     H280862   6.225   3.234   5.104
26874WAT      O80863   5.714   9.802   0.638
26874WAT     H180864   5.718   9.864   0.716
26874WAT     H280865   5.626   9.814   0.591
26875WAT      O80866   8.878   9.197   9.844
26875WAT     H180867   8.906   9.182   9.749
26875WAT     H280868   8.900   9.116   9.898
26876WAT      O80869   2.774   7.537   2.975
26876WAT     H180870   2.779   7.484   3.060
26876WAT     H280871   2.697   7.600   2.981
26877WAT      O80872   6.515   0.121   8.166
26877WAT     H180873   6.465   0.080   8.242
26877WAT     H280874   6.508   0.221   8.171
26878WAT      O80875   3.302   7.787   0.773
26878WAT     H180876   3.308   7.872   0.824
26878WAT     H280877   3.392   7.765   0.734
26879WAT      O80878   7.934   0.577   5.175
26879WAT     H180879   8.000   0.605   5.106
26879WAT     H280880   7.849   0.627   5.162
26880WAT      O80881   1.177   2.744   2.523
26880WAT     H180882   1.131   2.817   2.474
26880WAT     H280883   1.138   2.656   2.496
26881WAT      O80884   9.498   0.666   4.836
26881WAT     H180885   9.404   0.696   4.850
26881WAT     H280886   9.561   0.739   4.865
26882WAT      O80887   4.840   9.014   1.222
26882WAT     H180888   4.828   8.955   1.141
26882WAT     H280889   4.807   9.106   1.201
26883WAT      O80890   1.234   3.294   0.961
26883WAT     H180891   1.231   3.351   0.879
26883WAT     H280892   1.297   3.334   1.027
26884WAT      O80893   6.720   5.230   7.591
26884WAT     H180894   6.650   5.160   7.580
26884WAT     H280895   6.712   5.298   7.517
26885WAT      O80896   1.838   8.930   7.670
26885WAT     H180897   1.892   9.012   7.690
26885WAT     H280898   1.742   8.948   7.690
26886WAT      O80899   7.450   5.132   2.753
26886WAT     H180900   7.365   5.183   2.762
26886WAT     H280901   7.444   5.074   2.671
26887WAT      O80902   0.472   7.051   2.166
26887WAT     H180903   0.413   7.025   2.242
26887WAT     H280904   0.436   7.012   2.081
26888WAT      O80905   8.192   1.303   3.909
26888WAT     H180906   8.142   1.381   3.946
26888WAT     H280907   8.165   1.288   3.814
26889WAT      O80908   8.280   4.654   6.520
26889WAT     H180909   8.182   4.670   6.530
26889WAT     H280910   8.317   4.713   6.449
26890WAT      O80911   4.352   6.418   7.118
26890WAT     H180912   4.393   6.476   7.047
26890WAT     H280913   4.415   6.343   7.139
26891WAT      O80914   4.008   0.808   8.508
26891WAT     H180915   4.078   0.738   8.493
26891WAT     H280916   3.937   0.799   8.439
26892WAT      O80917   0.046   9.256   5.551
26892WAT     H180918   0.034   9.247   5.452
26892WAT     H280919  -0.043   9.260   5.596
26893WAT      O80920   4.191   6.350   5.622
26893WAT     H180921   4.210   6.304   5.708
26893WAT     H280922   4.275   6.392   5.587
26894WAT      O80923   6.474   5.244   8.657
26894WAT     H180924   6.429   5.164   8.619
26894WAT     H280925   6.496   5.308   8.583
26895WAT      O80926   9.311   5.306   9.207
26895WAT     H180927   9.394   5.348   9.246
26895WAT     H280928   9.335   5.218   9.165
26896WAT      O80929   7.145   6.825   4.125
26896WAT     H180930   7.226   6.882   4.139
26896WAT     H280931   7.118   6.830   4.028
26897WAT      O80932   6.692   1.118   8.752
26897WAT     H180933   6.765   1.126   8.820
26897WAT     H280934   6.702   1.031   8.704
26898WAT      O80935   0.438   5.106   9.502
26898WAT     H180936   0.340   5.125   9.506
26898WAT     H280937   0.471   5.125   9.409
26899WAT      O80938   3.114   2.486   8.064
26899WAT     H180939   3.173   2.441   7.997
26899WAT     H280940   3.158   2.484   8.154
26900WAT      O80941   6.704   1.004   5.473
26900WAT     H180942   6.721   0.962   5.562
26900WAT     H280943   6.605   1.011   5.457
26901WAT      O80944   0.208   5.001   4.361
26901WAT     H180945   0.129   4.945   4.338
26901WAT     H280946   0.186   5.059   4.440
26902WAT      O80947   5.071   3.998   6.152
26902WAT     H180948   5.004   3.982   6.225
26902WAT     H280949   5.022   4.023   6.068
26903WAT      O80950   8.714   5.823   7.780
26903WAT     H180951   8.675   5.817   7.688
26903WAT     H280952   8.646   5.862   7.842
26904WAT      O80953   7.784   9.294   6.930
26904WAT     H180954   7.863   9.286   6.991
26904WAT     H280955   7.781   9.214   6.871
26905WAT      O80956   1.943   9.230   1.954
26905WAT     H180957   1.963   9.291   2.030
26905WAT     H280958   2.007   9.247   1.879
26906WAT      O80959   0.634   1.851   0.398
26906WAT     H180960   0.694   1.927   0.426
26906WAT     H280961   0.675   1.764   0.426
26907WAT      O80962   3.098   6.939   9.129
26907WAT     H180963   3.185   6.986   9.116
26907WAT     H280964   3.045   6.942   9.044
26908WAT      O80965   1.551   4.432   9.656
26908WAT     H180966   1.646   4.455   9.634
26908WAT     H280967   1.498   4.426   9.571
26909WAT      O80968   0.983   5.689   5.852
26909WAT     H180969   1.055   5.748   5.887
26909WAT     H280970   0.973   5.609   5.911
26910WAT      O80971   2.387   4.086   4.982
26910WAT     H180972   2.392   4.183   4.961
26910WAT     H280973   2.354   4.074   5.076
26911WAT      O80974   9.131   8.189   6.156
26911WAT     H180975   9.174   8.184   6.066
26911WAT     H280976   9.049   8.132   6.158
26912WAT      O80977   6.504   5.700   3.414
26912WAT     H180978   6.581   5.753   3.378
26912WAT     H280979   6.512   5.605   3.383
26913WAT      O80980   6.093   8.709   3.627
26913WAT     H180981   6.095   8.610   3.617
26913WAT     H280982   6.003   8.738   3.659
26914WAT      O80983   6.986   8.520   0.462
26914WAT     H180984   7.061   8.586   0.461
26914WAT     H280985   6.901   8.565   0.434
26915WAT      O80986   1.106   7.224   9.342
26915WAT     H180987   1.172   7.226   9.418
26915WAT     H280988   1.060   7.135   9.340
26916WAT      O80989   7.936   2.791   3.065
26916WAT     H180990   8.008   2.859   3.050
26916WAT     H280991   7.958   2.708   3.014
26917WAT      O80992   9.666   4.042   1.521
26917WAT     H180993   9.700   4.059   1.613
26917WAT     H280994   9.589   4.104   1.502
26918WAT      O80995   7.658   7.105   7.525
26918WAT     H180996   7.710   7.102   7.611
26918WAT     H280997   7.561   7.090   7.543
26919WAT      O80998   9.297   3.320   8.067
26919WAT     H180999   9.355   3.349   7.991
26919WAT     H281000   9.202   3.342   8.046
26920WAT      O81001   3.525   8.157   1.062
26920WAT     H181002   3.566   8.066   1.055
26920WAT     H281003   3.486   8.169   1.154
26921WAT      O81004   1.395   1.284   2.456
26921WAT     H181005   1.376   1.323   2.366
26921WAT     H281006   1.429   1.356   2.517
26922WAT      O81007   1.934   1.665   5.938
26922WAT     H181008   2.028   1.665   5.971
26922WAT     H281009   1.915   1.750   5.890
26923WAT      O81010   1.234   8.304   5.776
26923WAT     H181011   1.324   8.267   5.758
26923WAT     H281012   1.241   8.402   5.796
26924WAT      O81013   0.989   7.588   8.388
26924WAT     H181014   1.016   7.655   8.457
26924WAT     H281015   1.015   7.620   8.297
26925WAT      O81016   6.370   0.382   5.515
26925WAT     H181017   6.435   0.322   5.468
26925WAT     H281018   6.384   0.476   5.485
26926WAT      O81019   4.901   9.087   2.769
26926WAT     H181020   4.998   9.077   2.792
26926WAT     H281021   4.885   9.177   2.729
26927WAT      O81022   2.192   1.168   5.329
26927WAT     H181023   2.116   1.225   5.300
26927WAT     H281024   2.159   1.076   5.350
26928WAT      O81025   7.438   2.989   5.995
26928WAT     H181026   7.338   2.985   5.995
26928WAT     H281027   7.470   3.043   6.073
26929WAT      O81028   8.477   4.655   7.144
26929WAT     H181029   8.436   4.590   7.080
26929WAT     H281030   8.571   4.676   7.115
26930WAT      O81031   0.156   6.479   8.487
26930WAT     H181032   0.204   6.401   8.526
26930WAT     H281033   0.222   6.544   8.449
26931WAT      O81034   0.852   2.163   7.177
26931WAT     H181035   0.913   2.098   7.132
26931WAT     H281036   0.847   2.142   7.274
26932WAT      O81037   6.898   3.523   9.779
26932WAT     H181038   6.906   3.483   9.870
26932WAT     H281039   6.940   3.461   9.712
26933WAT      O81040   8.013   8.415   8.794
26933WAT     H181041   8.011   8.485   8.723
26933WAT     H281042   7.920   8.383   8.812
26934WAT      O81043   2.366   6.506   5.052
26934WAT     H181044   2.382   6.570   5.128
26934WAT     H281045   2.366   6.412   5.087
26935WAT      O81046   7.820   8.495   8.050
26935WAT     H181047   7.727   8.458   8.053
26935WAT     H281048   7.852   8.499   7.955
26936WAT      O81049   4.070   5.776   7.439
26936WAT     H181050   4.151   5.733   7.479
26936WAT     H281051   4.087   5.796   7.342
26937WAT      O81052   3.186   5.173   8.353
26937WAT     H181053   3.204   5.269   8.375
26937WAT     H281054   3.190   5.161   8.254
26938WAT      O81055   7.754   9.465   5.134
26938WAT     H181056   7.829   9.418   5.181
26938WAT     H281057   7.738   9.422   5.046
26939WAT      O81058   4.371   6.735   4.783
26939WAT     H181059   4.349   6.640   4.804
26939WAT     H281060   4.407   6.780   4.864
26940WAT      O81061   6.390   8.858   9.094
26940WAT     H181062   6.372   8.765   9.060
26940WAT     H281063   6.304   8.909   9.099
26941WAT      O81064   4.949   0.755   0.823
26941WAT     H181065   5.006   0.819   0.874
26941WAT     H281066   5.006   0.697   0.764
26942WAT      O81067   6.372   7.772   0.263
26942WAT     H181068   6.470   7.754   0.274
26942WAT     H281069   6.335   7.808   0.348
26943WAT      O81070   5.113   2.793   0.087
26943WAT     H181071   5.138   2.832  -0.002
26943WAT     H281072   5.158   2.844   0.159
26944WAT      O81073   6.885   9.442   9.793
26944WAT     H181074   6.970   9.492   9.807
26944WAT     H281075   6.905   9.344   9.789
26945WAT      O81076   4.771   2.640   7.606
26945WAT     H181077   4.776   2.675   7.700
26945WAT     H281078   4.848   2.676   7.554
26946WAT      O81079   8.496   8.713   4.339
26946WAT     H181080   8.573   8.669   4.294
26946WAT     H281081   8.411   8.679   4.300
26947WAT      O81082   6.832   4.919   7.593
26947WAT     H181083   6.905   4.854   7.613
26947WAT     H281084   6.751   4.896   7.647
26948WAT      O81085   1.648   5.987   3.970
26948WAT     H181086   1.708   5.960   4.045
26948WAT     H281087   1.639   6.087   3.968
26949WAT      O81088   4.497   6.754   6.403
26949WAT     H181089   4.498   6.665   6.356
26949WAT     H281090   4.442   6.819   6.351
26950WAT      O81091   2.896   6.051   1.996
26950WAT     H181092   2.925   6.141   2.029
26950WAT     H281093   2.976   5.994   1.980
26951WAT      O81094   9.258   7.355   1.828
26951WAT     H181095   9.209   7.291   1.769
26951WAT     H281096   9.334   7.308   1.873
26952WAT      O81097   1.465   1.869   6.133
26952WAT     H181098   1.460   1.960   6.173
26952WAT     H281099   1.455   1.800   6.205
26953WAT      O81100   0.281   6.275   8.577
26953WAT     H181101   0.374   6.296   8.604
26953WAT     H281102   0.266   6.176   8.580
26954WAT      O81103   7.263   3.000   5.267
26954WAT     H181104   7.264   2.929   5.196
26954WAT     H281105   7.215   3.080   5.233
26955WAT      O81106   0.022   5.965   3.711
26955WAT     H181107   0.112   6.003   3.691
26955WAT     H281108   0.026   5.865   3.706
26956WAT      O81109   4.242   9.094   1.118
26956WAT     H181110   4.225   9.056   1.209
26956WAT     H281111   4.321   9.154   1.121
26957WAT      O81112   8.024   7.414   9.172
26957WAT     H181113   7.960   7.464   9.114
26957WAT     H281114   8.103   7.386   9.117
26958WAT      O81115   2.150   6.646   9.335
26958WAT     H181116   2.121   6.567   9.389
26958WAT     H281117   2.121   6.730   9.381
26959WAT      O81118   2.478   8.299   0.995
26959WAT     H181119   2.432   8.253   0.920
26959WAT     H281120   2.536   8.234   1.045
26960WAT      O81121   2.963   7.900   4.467
26960WAT     H181122   2.931   7.988   4.502
26960WAT     H281123   2.994   7.912   4.373
26961WAT      O81124   6.371   3.684   2.871
26961WAT     H181125   6.274   3.659   2.877
26961WAT     H281126   6.382   3.760   2.808
26962WAT      O81127   7.211   3.800   6.383
26962WAT     H181128   7.216   3.796   6.284
26962WAT     H281129   7.303   3.802   6.421
26963WAT      O81130   7.949   7.498   0.917
26963WAT     H181131   7.957   7.496   1.016
26963WAT     H281132   7.894   7.420   0.886
26964WAT      O81133   1.292   9.551   2.524
26964WAT     H181134   1.315   9.643   2.556
26964WAT     H281135   1.358   9.522   2.454
26965WAT      O81136   0.613   9.583   5.628
26965WAT     H181137   0.678   9.658   5.639
26965WAT     H281138   0.617   9.524   5.708
26966WAT      O81139   6.199   9.127   8.088
26966WAT     H181140   6.145   9.175   8.158
26966WAT     H281141   6.296   9.133   8.111
26967WAT      O81142   4.919   9.196   3.636
26967WAT     H181143   4.953   9.233   3.722
26967WAT     H281144   4.853   9.259   3.596
26968WAT      O81145   3.439   4.760   7.286
26968WAT     H181146   3.514   4.707   7.324
26968WAT     H281147   3.404   4.714   7.204
26969WAT      O81148   4.210   6.437   2.098
26969WAT     H181149   4.261   6.374   2.039
26969WAT     H281150   4.247   6.434   2.190
26970WAT      O81151   2.771   5.981   9.083
26970WAT     H181152   2.698   6.040   9.116
26970WAT     H281153   2.858   6.010   9.123
26971WAT      O81154   7.194   1.935   0.994
26971WAT     H181155   7.243   2.021   0.985
26971WAT     H281156   7.159   1.927   1.087
26972WAT      O81157   9.868   6.882   4.142
26972WAT     H181158   9.875   6.978   4.115
26972WAT     H281159   9.799   6.872   4.214
26973WAT      O81160   0.409   4.321   9.678
26973WAT     H181161   0.413   4.252   9.606
26973WAT     H281162   0.473   4.395   9.657
26974WAT      O81163   0.254   2.693   8.927
26974WAT     H181164   0.261   2.777   8.872
26974WAT     H281165   0.293   2.709   9.018
26975WAT      O81166   0.934   3.210   2.474
26975WAT     H181167   0.862   3.191   2.541
26975WAT     H281168   0.916   3.299   2.431
26976WAT      O81169   2.271   9.308   4.508
26976WAT     H181170   2.204   9.335   4.577
26976WAT     H281171   2.300   9.214   4.525
26977WAT      O81172   0.928   7.684   4.515
26977WAT     H181173   0.852   7.707   4.455
26977WAT     H281174   1.014   7.686   4.464
26978WAT      O81175   3.301   9.359   0.278
26978WAT     H181176   3.292   9.456   0.299
26978WAT     H281177   3.322   9.309   0.362
26979WAT      O81178   0.546   1.487   1.271
26979WAT     H181179   0.589   1.397   1.260
26979WAT     H281180   0.608   1.558   1.237
26980WAT      O81181   1.297   8.842   5.544
26980WAT     H181182   1.236   8.771   5.578
26980WAT     H281183   1.246   8.903   5.483
26981WAT      O81184   8.926   6.139   6.690
26981WAT     H181185   8.881   6.052   6.671
26981WAT     H281186   8.881   6.183   6.768
26982WAT      O81187   5.717   7.034   2.100
26982WAT     H181188   5.637   7.073   2.146
26982WAT     H281189   5.776   6.989   2.167
26983WAT      O81190   7.247   3.446   2.791
26983WAT     H181191   7.156   3.430   2.830
26983WAT     H281192   7.238   3.458   2.692
26984WAT      O81193   4.606   1.863   6.474
26984WAT     H181194   4.699   1.832   6.452
26984WAT     H281195   4.594   1.957   6.442
26985WAT      O81196   0.296   7.947   0.449
26985WAT     H181197   0.329   7.872   0.507
26985WAT     H281198   0.275   7.912   0.358
26986WAT      O81199   0.124   1.123   4.195
26986WAT     H181200   0.220   1.125   4.224
26986WAT     H281201   0.065   1.131   4.276
26987WAT      O81202   9.509   7.580   3.340
26987WAT     H181203   9.410   7.579   3.356
26987WAT     H281204   9.557   7.552   3.424
26988WAT      O81205   5.554   7.961   0.588
26988WAT     H181206   5.476   8.016   0.557
26988WAT     H281207   5.639   8.008   0.563
26989WAT      O81208   2.755   1.492   3.863
26989WAT     H181209   2.841   1.446   3.886
26989WAT     H281210   2.704   1.436   3.798
26990WAT      O81211   9.096   5.258   3.268
26990WAT     H181212   9.098   5.267   3.169
26990WAT     H281213   9.189   5.245   3.303
26991WAT      O81214   4.277   5.940   1.561
26991WAT     H181215   4.196   5.917   1.507
26991WAT     H281216   4.359   5.904   1.516
26992WAT      O81217   5.595   9.823   5.758
26992WAT     H181218   5.659   9.895   5.783
26992WAT     H281219   5.612   9.742   5.814
26993WAT      O81220   5.773   2.319   5.889
26993WAT     H181221   5.773   2.281   5.796
26993WAT     H281222   5.860   2.297   5.933
26994WAT      O81223   7.498   9.805   7.333
26994WAT     H181224   7.449   9.722   7.305
26994WAT     H281225   7.433   9.879   7.349
26995WAT      O81226   2.812   3.613   0.480
26995WAT     H181227   2.892   3.566   0.443
26995WAT     H281228   2.759   3.550   0.536
26996WAT      O81229   5.129   3.550   6.940
26996WAT     H181230   5.036   3.530   6.972
26996WAT     H281231   5.124   3.596   6.851
26997WAT      O81232   3.341   6.726   6.684
26997WAT     H181233   3.249   6.732   6.723
26997WAT     H281234   3.377   6.634   6.699
26998WAT      O81235   0.365   5.941   3.424
26998WAT     H181236   0.447   5.964   3.372
26998WAT     H281237   0.299   6.016   3.417
26999WAT      O81238   3.112   7.563   0.454
26999WAT     H181239   3.149   7.559   0.547
26999WAT     H281240   3.022   7.608   0.456
27000WAT      O81241   1.791   9.233   3.378
27000WAT     H181242   1.830   9.303   3.438
27000WAT     H281243   1.742   9.278   3.303
27001WAT      O81244   4.603   5.570   6.165
27001WAT     H181245   4.634   5.622   6.245
27001WAT     H281246   4.676   5.511   6.133
27002WAT      O81247   4.539   7.989   2.099
27002WAT     H181248   4.577   8.025   2.014
27002WAT     H281249   4.566   8.047   2.175
27003WAT      O81250   0.141   1.909   8.817
27003WAT     H181251   0.054   1.887   8.861
27003WAT     H281252   0.161   2.007   8.830
27004WAT      O81253   8.221   8.456   1.435
27004WAT     H181254   8.143   8.518   1.424
27004WAT     H281255   8.190   8.362   1.427
27005WAT      O81256   8.996   8.407   6.003
27005WAT     H181257   8.924   8.382   6.068
27005WAT     H281258   9.041   8.325   5.970
27006WAT      O81259   8.221   8.146   0.936
27006WAT     H181260   8.278   8.156   0.855
27006WAT     H281261   8.271   8.097   1.007
27007WAT      O81262   2.522   3.314   5.414
27007WAT     H181263   2.621   3.328   5.428
27007WAT     H281264   2.479   3.295   5.502
27008WAT      O81265   6.911   7.957   0.764
27008WAT     H181266   6.894   8.042   0.812
27008WAT     H281267   6.835   7.894   0.780
27009WAT      O81268   6.613   2.771   9.740
27009WAT     H181269   6.569   2.791   9.828
27009WAT     H281270   6.603   2.674   9.718
27010WAT      O81271   2.625   1.606   9.693
27010WAT     H181272   2.717   1.642   9.704
27010WAT     H281273   2.611   1.580   9.597
27011WAT      O81274   4.240   6.401   5.311
27011WAT     H181275   4.140   6.401   5.311
27011WAT     H281276   4.273   6.491   5.341
27012WAT      O81277   9.807   4.802   2.878
27012WAT     H181278   9.850   4.718   2.845
27012WAT     H281279   9.869   4.849   2.941
27013WAT      O81280   6.467   2.116   4.376
27013WAT     H181281   6.542   2.103   4.311
27013WAT     H281282   6.457   2.214   4.396
27014WAT      O81283   0.998   3.337   9.697
27014WAT     H181284   0.935   3.270   9.738
27014WAT     H281285   1.001   3.419   9.755
27015WAT      O81286   0.850   8.160   7.702
27015WAT     H181287   0.768   8.185   7.754
27015WAT     H281288   0.847   8.063   7.680
27016WAT      O81289   6.795   8.926   6.924
27016WAT     H181290   6.698   8.913   6.903
27016WAT     H281291   6.837   8.984   6.854
27017WAT      O81292   3.456   7.695   7.359
27017WAT     H181293   3.515   7.747   7.297
27017WAT     H281294   3.367   7.681   7.315
27018WAT      O81295   1.015   7.431   0.190
27018WAT     H181296   0.967   7.344   0.203
27018WAT     H281297   0.973   7.502   0.246
27019WAT      O81298   8.760   1.556   3.599
27019WAT     H181299   8.712   1.471   3.578
27019WAT     H281300   8.823   1.577   3.524
27020WAT      O81301   7.796   1.654   8.607
27020WAT     H181302   7.697   1.648   8.594
27020WAT     H281303   7.816   1.701   8.692
27021WAT      O81304   0.717   7.500   0.517
27021WAT     H181305   0.756   7.415   0.552
27021WAT     H281306   0.627   7.514   0.558
27022WAT      O81307   2.842   0.735   0.638
27022WAT     H181308   2.910   0.808   0.649
27022WAT     H281309   2.885   0.647   0.658
27023WAT      O81310   4.426   1.217   1.489
27023WAT     H181311   4.492   1.288   1.465
27023WAT     H281312   4.424   1.148   1.417
27024WAT      O81313   4.931   2.325   7.734
27024WAT     H181314   4.961   2.243   7.782
27024WAT     H281315   4.929   2.402   7.798
27025WAT      O81316   7.725   5.166   1.035
27025WAT     H181317   7.653   5.202   1.094
27025WAT     H281318   7.718   5.066   1.030
27026WAT      O81319   1.363   4.402   0.227
27026WAT     H181320   1.455   4.384   0.261
27026WAT     H281321   1.316   4.467   0.287
27027WAT      O81322   2.382   3.694   5.530
27027WAT     H181323   2.397   3.666   5.436
27027WAT     H281324   2.306   3.642   5.569
27028WAT      O81325   9.237   0.127   3.691
27028WAT     H181326   9.269   0.046   3.741
27028WAT     H281327   9.285   0.208   3.724
27029WAT      O81328   0.838   6.090   3.938
27029WAT     H181329   0.938   6.097   3.938
27029WAT     H281330   0.811   6.005   3.892
27030WAT      O81331   5.227   7.251   2.342
27030WAT     H181332   5.180   7.183   2.399
27030WAT     H281333   5.193   7.244   2.248
27031WAT      O81334   7.716   5.915   8.843
27031WAT     H181335   7.701   5.997   8.787
27031WAT     H281336   7.696   5.833   8.789
27032WAT      O81337   9.688   3.228   5.516
27032WAT     H181338   9.607   3.268   5.559
27032WAT     H281339   9.668   3.133   5.492
27033WAT      O81340   4.738   1.629   1.927
27033WAT     H181341   4.665   1.561   1.928
27033WAT     H281342   4.716   1.703   1.990
27034WAT      O81343   6.548   0.649   7.926
27034WAT     H181344   6.499   0.667   8.011
27034WAT     H281345   6.641   0.620   7.947
27035WAT      O81346   0.009   1.557   3.705
27035WAT     H181347  -0.089   1.561   3.724
27035WAT     H281348   0.052   1.492   3.768
27036WAT      O81349   2.434   0.346   5.593
27036WAT     H181350   2.345   0.309   5.621
27036WAT     H281351   2.450   0.433   5.640
27037WAT      O81352   8.559   3.248   5.157
27037WAT     H181353   8.608   3.334   5.170
27037WAT     H281354   8.485   3.241   5.224
27038WAT      O81355   3.685   8.773   1.269
27038WAT     H181356   3.748   8.714   1.319
27038WAT     H281357   3.682   8.745   1.173
27039WAT      O81358   3.655   2.227   8.900
27039WAT     H181359   3.751   2.241   8.923
27039WAT     H281360   3.597   2.272   8.969
27040WAT      O81361   7.216   4.502   2.672
27040WAT     H181362   7.271   4.495   2.588
27040WAT     H281363   7.127   4.458   2.657
27041WAT      O81364   9.845   2.038   7.767
27041WAT     H181365   9.777   1.982   7.815
27041WAT     H281366   9.826   2.135   7.784
27042WAT      O81367   7.366   8.010   2.710
27042WAT     H181368   7.272   7.977   2.715
27042WAT     H281369   7.417   7.978   2.790
27043WAT      O81370   5.147   2.148   7.209
27043WAT     H181371   5.199   2.234   7.204
27043WAT     H281372   5.127   2.127   7.305
27044WAT      O81373   4.103   1.797   3.308
27044WAT     H181374   4.064   1.838   3.391
27044WAT     H281375   4.135   1.704   3.329
27045WAT      O81376   5.752   0.908   5.462
27045WAT     H181377   5.820   0.912   5.389
27045WAT     H281378   5.737   0.812   5.488
27046WAT      O81379   3.293   3.964   2.093
27046WAT     H181380   3.195   3.979   2.079
27046WAT     H281381   3.311   3.866   2.099
27047WAT      O81382   8.806   7.382   1.137
27047WAT     H181383   8.748   7.303   1.158
27047WAT     H281384   8.751   7.452   1.092
27048WAT      O81385   5.400   4.893   8.295
27048WAT     H181386   5.400   4.805   8.341
27048WAT     H281387   5.309   4.935   8.304
27049WAT      O81388   1.094   8.604   5.538
27049WAT     H181389   1.004   8.634   5.507
27049WAT     H281390   1.131   8.537   5.473
27050WAT      O81391   7.419   9.165   6.838
27050WAT     H181392   7.455   9.199   6.751
27050WAT     H281393   7.334   9.115   6.822
27051WAT      O81394   6.654   8.131   6.757
27051WAT     H181395   6.596   8.212   6.766
27051WAT     H281396   6.610   8.053   6.801
27052WAT      O81397   0.942   4.967   1.715
27052WAT     H181398   0.921   5.054   1.761
27052WAT     H281399   0.973   4.986   1.622
27053WAT      O81400   0.226   5.504   6.652
27053WAT     H181401   0.186   5.442   6.720
27053WAT     H281402   0.208   5.599   6.679
27054WAT      O81403   0.998   5.854   8.499
27054WAT     H181404   1.063   5.831   8.426
27054WAT     H281405   1.011   5.950   8.525
27055WAT      O81406   2.160   8.843   9.026
27055WAT     H181407   2.254   8.833   9.061
27055WAT     H281408   2.142   8.770   8.960
27056WAT      O81409   9.305   1.402   7.813
27056WAT     H181410   9.250   1.415   7.896
27056WAT     H281411   9.307   1.305   7.790
27057WAT      O81412   7.686   4.835   9.314
27057WAT     H181413   7.676   4.876   9.223
27057WAT     H281414   7.681   4.735   9.307
27058WAT      O81415   9.820   8.708   2.388
27058WAT     H181416   9.855   8.788   2.339
27058WAT     H281417   9.857   8.625   2.346
27059WAT      O81418   7.164   0.293   7.399
27059WAT     H181419   7.095   0.313   7.469
27059WAT     H281420   7.249   0.263   7.443
27060WAT      O81421   7.702   2.269   5.954
27060WAT     H181422   7.699   2.245   6.051
27060WAT     H281423   7.780   2.223   5.911
27061WAT      O81424   9.068   4.976   3.452
27061WAT     H181425   9.030   4.886   3.434
27061WAT     H281426   9.044   5.038   3.377
27062WAT      O81427   8.824   5.388   5.410
27062WAT     H181428   8.855   5.463   5.467
27062WAT     H281429   8.890   5.313   5.414
27063WAT      O81430   7.293   8.107   8.697
27063WAT     H181431   7.204   8.151   8.709
27063WAT     H281432   7.280   8.008   8.684
27064WAT      O81433   9.410   3.085   5.415
27064WAT     H181434   9.393   3.181   5.394
27064WAT     H281435   9.471   3.046   5.345
27065WAT      O81436   1.226   1.612   7.727
27065WAT     H181437   1.262   1.617   7.634
27065WAT     H281438   1.250   1.524   7.767
27066WAT      O81439   4.572   5.886   6.136
27066WAT     H181440   4.541   5.891   6.231
27066WAT     H281441   4.494   5.895   6.075
27067WAT      O81442   1.720   0.666   7.494
27067WAT     H181443   1.704   0.684   7.591
27067WAT     H281444   1.780   0.737   7.457
27068WAT      O81445   7.771   6.813   0.440
27068WAT     H181446   7.764   6.753   0.520
27068WAT     H281447   7.755   6.760   0.357
27069WAT      O81448   4.355   3.692   3.331
27069WAT     H181449   4.403   3.640   3.402
27069WAT     H281450   4.339   3.633   3.252
27070WAT      O81451   4.995   3.284   7.765
27070WAT     H181452   5.016   3.317   7.857
27070WAT     H281453   4.972   3.361   7.706
27071WAT      O81454   7.824   1.703   5.826
27071WAT     H181455   7.859   1.622   5.778
27071WAT     H281456   7.727   1.690   5.847
27072WAT      O81457   4.003   8.078   8.163
27072WAT     H181458   3.972   8.173   8.161
27072WAT     H281459   3.929   8.018   8.133
27073WAT      O81460   6.464   8.975   2.604
27073WAT     H181461   6.517   8.988   2.688
27073WAT     H281462   6.416   8.887   2.608
27074WAT      O81463   5.396   2.352   9.756
27074WAT     H181464   5.453   2.362   9.674
27074WAT     H281465   5.350   2.263   9.754
27075WAT      O81466   4.937   0.910   5.982
27075WAT     H181467   5.001   0.860   5.924
27075WAT     H281468   4.884   0.846   6.037
27076WAT      O81469   7.180   0.926   3.332
27076WAT     H181470   7.217   1.014   3.361
27076WAT     H281471   7.163   0.927   3.233
27077WAT      O81472   5.869   8.609   8.278
27077WAT     H181473   5.817   8.524   8.272
27077WAT     H281474   5.852   8.665   8.197
27078WAT      O81475   6.787   2.287   2.425
27078WAT     H181476   6.818   2.246   2.510
27078WAT     H281477   6.700   2.335   2.441
27079WAT      O81478   6.653   5.016   0.032
27079WAT     H181479   6.591   5.085  -0.007
27079WAT     H281480   6.672   5.039   0.127
27080WAT      O81481   2.167   6.789   2.539
27080WAT     H181482   2.098   6.769   2.609
27080WAT     H281483   2.219   6.870   2.566
27081WAT      O81484   8.815   2.019   0.025
27081WAT     H181485   8.826   1.920   0.027
27081WAT     H281486   8.760   2.048   0.104
27082WAT      O81487   8.901   5.660   7.635
27082WAT     H181488   8.851   5.740   7.667
27082WAT     H281489   8.878   5.581   7.692
27083WAT      O81490   2.530   8.062   5.756
27083WAT     H181491   2.625   8.070   5.785
27083WAT     H281492   2.483   7.997   5.815
27084WAT      O81493   8.493   7.220   0.867
27084WAT     H181494   8.569   7.164   0.901
27084WAT     H281495   8.522   7.272   0.787
27085WAT      O81496   8.826   3.993   0.818
27085WAT     H181497   8.829   3.905   0.771
27085WAT     H281498   8.846   4.066   0.754
27086WAT      O81499   8.959   9.375   1.962
27086WAT     H181500   8.912   9.410   1.881
27086WAT     H281501   8.936   9.432   2.041
27087WAT      O81502   4.286   0.634   7.541
27087WAT     H181503   4.192   0.619   7.510
27087WAT     H281504   4.348   0.632   7.463
27088WAT      O81505   8.015   5.985   3.303
27088WAT     H181506   8.072   5.965   3.383
27088WAT     H281507   7.923   5.951   3.318
27089WAT      O81508   8.602   6.365   1.653
27089WAT     H181509   8.698   6.369   1.683
27089WAT     H281510   8.542   6.378   1.732
27090WAT      O81511   5.029   9.560   8.395
27090WAT     H181512   4.982   9.575   8.308
27090WAT     H281513   5.108   9.621   8.400
27091WAT      O81514   4.634   0.403   7.213
27091WAT     H181515   4.590   0.336   7.272
27091WAT     H281516   4.565   0.469   7.181
27092WAT      O81517   1.676   2.723   3.732
27092WAT     H181518   1.754   2.786   3.725
27092WAT     H281519   1.617   2.734   3.652
27093WAT      O81520   3.460   5.489   0.987
27093WAT     H181521   3.373   5.449   1.014
27093WAT     H281522   3.522   5.490   1.066
27094WAT      O81523   1.980   9.698   7.767
27094WAT     H181524   1.948   9.624   7.708
27094WAT     H281525   2.074   9.722   7.741
27095WAT      O81526   6.693   2.760   9.033
27095WAT     H181527   6.599   2.736   9.008
27095WAT     H281528   6.757   2.717   8.969
27096WAT      O81529   6.792   6.153   7.843
27096WAT     H181530   6.814   6.250   7.844
27096WAT     H281531   6.713   6.135   7.901
27097WAT      O81532   8.554   2.788   3.761
27097WAT     H181533   8.565   2.778   3.662
27097WAT     H281534   8.632   2.839   3.798
27098WAT      O81535   6.942   8.743   9.475
27098WAT     H181536   6.846   8.762   9.456
27098WAT     H281537   6.998   8.818   9.440
27099WAT      O81538   8.045   5.533   6.438
27099WAT     H181539   8.112   5.517   6.511
27099WAT     H281540   8.075   5.486   6.355
27100WAT      O81541   8.553   2.342   0.820
27100WAT     H181542   8.585   2.328   0.914
27100WAT     H281543   8.581   2.432   0.789
27101WAT      O81544   5.819   3.256   3.613
27101WAT     H181545   5.899   3.306   3.646
27101WAT     H281546   5.843   3.160   3.597
27102WAT      O81547   3.660   2.732   1.994
27102WAT     H181548   3.597   2.700   1.924
27102WAT     H281549   3.714   2.808   1.958
27103WAT      O81550   4.550   0.297   5.866
27103WAT     H181551   4.615   0.293   5.942
27103WAT     H281552   4.495   0.214   5.863
27104WAT      O81553   2.066   0.883   3.359
27104WAT     H181554   2.162   0.914   3.359
27104WAT     H281555   2.057   0.804   3.299
27105WAT      O81556   6.224   5.908   0.463
27105WAT     H181557   6.193   5.820   0.500
27105WAT     H281558   6.145   5.966   0.444
27106WAT      O81559   1.932   4.306   5.075
27106WAT     H181560   1.873   4.231   5.045
27106WAT     H281561   2.012   4.311   5.015
27107WAT      O81562   1.525   8.645   0.035
27107WAT     H181563   1.583   8.645   0.117
27107WAT     H281564   1.531   8.734  -0.010
27108WAT      O81565   4.042   3.724   7.706
27108WAT     H181566   4.119   3.681   7.754
27108WAT     H281567   3.979   3.764   7.773
27109WAT      O81568   4.591   4.333   2.531
27109WAT     H181569   4.538   4.414   2.553
27109WAT     H281570   4.641   4.348   2.446
27110WAT      O81571   3.040   6.442   6.938
27110WAT     H181572   3.010   6.444   7.034
27110WAT     H281573   3.137   6.418   6.934
27111WAT      O81574   6.880   1.029   8.434
27111WAT     H181575   6.954   1.034   8.368
27111WAT     H281576   6.821   0.951   8.413
27112WAT      O81577   3.032   9.422   3.195
27112WAT     H181578   3.026   9.323   3.188
27112WAT     H281579   3.058   9.448   3.287
27113WAT      O81580   6.806   3.922   9.160
27113WAT     H181581   6.845   3.941   9.251
27113WAT     H281582   6.786   4.008   9.114
27114WAT      O81583   9.632   4.796   1.656
27114WAT     H181584   9.624   4.887   1.698
27114WAT     H281585   9.729   4.776   1.640
27115WAT      O81586   2.803   5.715   9.473
27115WAT     H181587   2.840   5.725   9.566
27115WAT     H281588   2.793   5.618   9.452
27116WAT      O81589   5.567   8.938   6.933
27116WAT     H181590   5.488   8.984   6.974
27116WAT     H281591   5.613   8.882   7.002
27117WAT      O81592   7.080   6.710   2.834
27117WAT     H181593   6.980   6.700   2.835
27117WAT     H281594   7.112   6.719   2.740
27118WAT      O81595   3.172   0.963   7.810
27118WAT     H181596   3.097   0.914   7.855
27118WAT     H281597   3.178   0.934   7.715
27119WAT      O81598   3.003   8.395   2.285
27119WAT     H181599   2.960   8.353   2.364
27119WAT     H281600   3.046   8.325   2.228
27120WAT      O81601   2.504   8.650   7.586
27120WAT     H181602   2.496   8.698   7.673
27120WAT     H281603   2.414   8.616   7.558
27121WAT      O81604   3.036   7.158   8.742
27121WAT     H181605   3.059   7.232   8.804
27121WAT     H281606   3.006   7.078   8.794
27122WAT      O81607   3.610   2.433   0.083
27122WAT     H181608   3.550   2.359   0.054
27122WAT     H281609   3.555   2.513   0.108
27123WAT      O81610   2.339   2.086   4.394
27123WAT     H181611   2.282   2.040   4.325
27123WAT     H281612   2.347   2.027   4.474
27124WAT      O81613   1.387   0.052   2.140
27124WAT     H181614   1.472  -0.001   2.133
27124WAT     H281615   1.405   0.137   2.189
27125WAT      O81616   3.268   7.728   8.254
27125WAT     H181617   3.289   7.664   8.180
27125WAT     H281618   3.229   7.812   8.216
27126WAT      O81619   8.775   4.062   8.291
27126WAT     H181620   8.748   4.014   8.208
27126WAT     H281621   8.717   4.143   8.304
27127WAT      O81622   1.723   8.112   8.661
27127WAT     H181623   1.736   8.167   8.578
27127WAT     H281624   1.715   8.016   8.637
27128WAT      O81625   4.375   6.909   3.502
27128WAT     H181626   4.298   6.869   3.551
27128WAT     H281627   4.458   6.900   3.557
27129WAT      O81628   6.805   7.921   6.256
27129WAT     H181629   6.755   7.838   6.233
27129WAT     H281630   6.741   7.991   6.286
27130WAT      O81631   3.894   7.707   6.407
27130WAT     H181632   3.964   7.689   6.339
27130WAT     H281633   3.815   7.648   6.390
27131WAT      O81634   9.799   0.880   2.868
27131WAT     H181635   9.783   0.794   2.820
27131WAT     H281636   9.714   0.933   2.871
27132WAT      O81637   1.636   9.674   4.766
27132WAT     H181638   1.666   9.587   4.806
27132WAT     H281639   1.537   9.676   4.762
27133WAT      O81640   9.216   5.121   1.678
27133WAT     H181641   9.286   5.111   1.607
27133WAT     H281642   9.235   5.202   1.733
27134WAT      O81643   6.254   5.707   6.665
27134WAT     H181644   6.220   5.695   6.571
27134WAT     H281645   6.226   5.629   6.721
27135WAT      O81646   8.262   6.451   1.526
27135WAT     H181647   8.237   6.415   1.437
27135WAT     H281648   8.339   6.513   1.517
27136WAT      O81649   3.648   6.528   0.166
27136WAT     H181650   3.632   6.430   0.168
27136WAT     H281651   3.561   6.577   0.161
27137WAT      O81652   4.610   2.301   0.036
27137WAT     H181653   4.516   2.325   0.058
27137WAT     H281654   4.640   2.224   0.093
27138WAT      O81655   4.297   3.708   4.776
27138WAT     H181656   4.243   3.705   4.692
27138WAT     H281657   4.316   3.614   4.806
27139WAT      O81658   1.591   4.772   6.891
27139WAT     H181659   1.533   4.800   6.815
27139WAT     H281660   1.544   4.791   6.977
27140WAT      O81661   4.379   3.997   1.283
27140WAT     H181662   4.433   3.990   1.367
27140WAT     H281663   4.406   3.924   1.220
27141WAT      O81664   2.561   3.166   7.776
27141WAT     H181665   2.566   3.201   7.870
27141WAT     H281666   2.467   3.169   7.745
27142WAT      O81667   0.181   4.050   2.008
27142WAT     H181668   0.102   4.097   2.047
27142WAT     H281669   0.234   4.115   1.953
27143WAT      O81670   3.180   6.522   7.978
27143WAT     H181671   3.139   6.435   7.951
27143WAT     H281672   3.276   6.524   7.952
27144WAT      O81673   8.270   6.765   1.196
27144WAT     H181674   8.291   6.750   1.100
27144WAT     H281675   8.180   6.809   1.205
27145WAT      O81676   7.230   3.234   3.049
27145WAT     H181677   7.174   3.311   3.022
27145WAT     H281678   7.278   3.256   3.134
27146WAT      O81679   4.739   3.067   2.011
27146WAT     H181680   4.706   3.117   1.930
27146WAT     H281681   4.805   3.123   2.060
27147WAT      O81682   9.314   1.404   1.057
27147WAT     H181683   9.217   1.430   1.065
27147WAT     H281684   9.330   1.318   1.106
27148WAT      O81685   5.600   5.677   1.789
27148WAT     H181686   5.528   5.717   1.734
27148WAT     H281687   5.594   5.711   1.883
27149WAT      O81688   6.473   1.703   4.508
27149WAT     H181689   6.504   1.698   4.602
27149WAT     H281690   6.428   1.791   4.492
27150WAT      O81691   6.053   3.652   6.624
27150WAT     H181692   6.135   3.694   6.663
27150WAT     H281693   5.972   3.702   6.655
27151WAT      O81694   9.725   6.942   7.159
27151WAT     H181695   9.756   6.993   7.079
27151WAT     H281696   9.630   6.916   7.148
27152WAT      O81697   8.012   8.789   9.372
27152WAT     H181698   8.013   8.697   9.412
27152WAT     H281699   8.106   8.822   9.361
27153WAT      O81700   5.809   4.213   9.386
27153WAT     H181701   5.846   4.177   9.300
27153WAT     H281702   5.882   4.220   9.453
27154WAT      O81703   4.773   4.410   2.028
27154WAT     H181704   4.702   4.478   2.014
27154WAT     H281705   4.836   4.410   1.950
27155WAT      O81706   6.385   7.760   5.679
27155WAT     H181707   6.387   7.661   5.692
27155WAT     H281708   6.474   7.791   5.647
27156WAT      O81709   6.101   0.969   6.250
27156WAT     H181710   6.069   1.009   6.165
27156WAT     H281711   6.022   0.935   6.302
27157WAT      O81712   6.106   7.976   4.645
27157WAT     H181713   6.167   7.913   4.598
27157WAT     H281714   6.055   8.030   4.578
27158WAT      O81715   7.844   8.397   6.186
27158WAT     H181716   7.826   8.490   6.152
27158WAT     H281717   7.759   8.358   6.222
27159WAT      O81718   2.888   8.360   7.097
27159WAT     H181719   2.849   8.364   7.005
27159WAT     H281720   2.980   8.400   7.096
27160WAT      O81721   5.947   3.188   8.760
27160WAT     H181722   5.874   3.181   8.828
27160WAT     H281723   6.036   3.191   8.807
27161WAT      O81724   0.622   0.426   4.562
27161WAT     H181725   0.554   0.486   4.521
27161WAT     H281726   0.697   0.410   4.497
27162WAT      O81727   3.599   4.379   4.090
27162WAT     H181728   3.554   4.293   4.063
27162WAT     H281729   3.680   4.358   4.144
27163WAT      O81730   5.455   0.221   2.636
27163WAT     H181731   5.518   0.152   2.673
27163WAT     H281732   5.417   0.275   2.710
27164WAT      O81733   0.129   1.502   5.879
27164WAT     H181734   0.138   1.445   5.960
27164WAT     H281735   0.219   1.538   5.853
27165WAT      O81736   1.195   9.382   8.397
27165WAT     H181737   1.140   9.304   8.428
27165WAT     H281738   1.244   9.421   8.474
27166WAT      O81739   9.811   7.281   2.972
27166WAT     H181740   9.759   7.200   2.998
27166WAT     H281741   9.898   7.253   2.930
27167WAT      O81742   4.501   9.047   2.591
27167WAT     H181743   4.539   9.128   2.547
27167WAT     H281744   4.416   9.071   2.638
27168WAT      O81745   7.157   6.252   7.707
27168WAT     H181746   7.113   6.163   7.712
27168WAT     H281747   7.097   6.316   7.658
27169WAT      O81748   9.698   4.549   6.049
27169WAT     H181749   9.666   4.464   6.092
27169WAT     H281750   9.791   4.569   6.081
27170WAT      O81751   5.664   5.577   5.712
27170WAT     H181752   5.612   5.519   5.649
27170WAT     H281753   5.644   5.550   5.806
27171WAT      O81754   6.814   5.174   8.466
27171WAT     H181755   6.729   5.167   8.414
27171WAT     H281756   6.889   5.198   8.405
27172WAT      O81757   4.320   2.950   4.662
27172WAT     H181758   4.359   2.947   4.570
27172WAT     H281759   4.392   2.973   4.728
27173WAT      O81760   2.740   8.030   1.953
27173WAT     H181761   2.682   8.100   1.994
27173WAT     H281762   2.686   7.975   1.889
27174WAT      O81763   3.595   8.980   8.509
27174WAT     H181764   3.596   8.895   8.456
27174WAT     H281765   3.504   9.022   8.502
27175WAT      O81766   9.472   6.210   2.177
27175WAT     H181767   9.486   6.159   2.093
27175WAT     H281768   9.540   6.182   2.245
27176WAT      O81769   0.057   2.906   0.846
27176WAT     H181770   0.072   3.004   0.858
27176WAT     H281771   0.006   2.891   0.762
27177WAT      O81772   8.156   3.798   5.081
27177WAT     H181773   8.092   3.858   5.128
27177WAT     H281774   8.110   3.712   5.058
27178WAT      O81775   1.134   7.685   3.411
27178WAT     H181776   1.078   7.603   3.401
27178WAT     H281777   1.107   7.753   3.344
27179WAT      O81778   5.819   8.297   3.722
27179WAT     H181779   5.902   8.282   3.668
27179WAT     H281780   5.743   8.315   3.660
27180WAT      O81781   8.890   4.690   7.140
27180WAT     H181782   8.864   4.602   7.100
27180WAT     H281783   8.868   4.690   7.238
27181WAT      O81784   4.346   2.730   7.212
27181WAT     H181785   4.358   2.798   7.284
27181WAT     H281786   4.337   2.639   7.252
27182WAT      O81787   8.724   7.348   2.905
27182WAT     H181788   8.727   7.319   3.001
27182WAT     H281789   8.774   7.281   2.849
27183WAT      O81790   9.410   7.619   7.927
27183WAT     H181791   9.342   7.680   7.886
27183WAT     H281792   9.431   7.544   7.864
27184WAT      O81793   2.218   4.911   4.428
27184WAT     H181794   2.151   4.984   4.411
27184WAT     H281795   2.195   4.864   4.513
27185WAT      O81796   3.337   9.274   0.543
27185WAT     H181797   3.374   9.194   0.590
27185WAT     H281798   3.303   9.339   0.610
27186WAT      O81799   6.689   8.725   4.919
27186WAT     H181800   6.678   8.779   5.002
27186WAT     H281801   6.745   8.776   4.853
27187WAT      O81802   5.833   3.501   7.055
27187WAT     H181803   5.840   3.600   7.058
27187WAT     H281804   5.902   3.464   6.992
27188WAT      O81805   6.346   5.969   0.831
27188WAT     H181806   6.422   5.910   0.803
27188WAT     H281807   6.364   6.006   0.922
27189WAT      O81808   6.055   5.885   8.118
27189WAT     H181809   6.122   5.957   8.136
27189WAT     H281810   6.062   5.814   8.188
27190WAT      O81811   1.851   0.626   1.295
27190WAT     H181812   1.789   0.578   1.233
27190WAT     H281813   1.904   0.693   1.244
27191WAT      O81814   4.263   2.076   4.204
27191WAT     H181815   4.345   2.026   4.181
27191WAT     H281816   4.246   2.147   4.135
27192WAT      O81817   2.710   3.482   9.094
27192WAT     H181818   2.758   3.569   9.106
27192WAT     H281819   2.661   3.459   9.178
27193WAT      O81820   7.875   4.755   5.718
27193WAT     H181821   7.962   4.717   5.750
27193WAT     H281822   7.893   4.840   5.668
27194WAT      O81823   2.841   2.327   6.426
27194WAT     H181824   2.890   2.355   6.343
27194WAT     H281825   2.872   2.383   6.503
27195WAT      O81826   7.786   1.449   9.552
27195WAT     H181827   7.718   1.430   9.480
27195WAT     H281828   7.826   1.363   9.583
27196WAT      O81829   8.023   6.233   3.132
27196WAT     H181830   8.037   6.135   3.115
27196WAT     H281831   8.067   6.286   3.060
27197WAT      O81832   7.001   8.711   1.256
27197WAT     H181833   6.960   8.652   1.186
27197WAT     H281834   7.029   8.797   1.215
27198WAT      O81835   2.898   1.817   7.022
27198WAT     H181836   2.942   1.857   6.942
27198WAT     H281837   2.799   1.826   7.014
27199WAT      O81838   9.499   2.763   2.295
27199WAT     H181839   9.583   2.771   2.241
27199WAT     H281840   9.509   2.687   2.360
27200WAT      O81841   3.374   8.688   9.679
27200WAT     H181842   3.431   8.698   9.598
27200WAT     H281843   3.429   8.704   9.761
27201WAT      O81844   8.976   5.067   8.991
27201WAT     H181845   9.072   5.048   8.967
27201WAT     H281846   8.966   5.165   9.009
27202WAT      O81847   4.054   6.877   5.899
27202WAT     H181848   4.046   6.922   5.810
27202WAT     H281849   4.096   6.940   5.965
27203WAT      O81850   4.682   7.667   6.688
27203WAT     H181851   4.661   7.586   6.742
27203WAT     H281852   4.668   7.647   6.591
27204WAT      O81853   3.950   7.036   4.139
27204WAT     H181854   3.940   6.968   4.212
27204WAT     H281855   3.885   7.017   4.066
27205WAT      O81856   9.415   5.390   3.991
27205WAT     H181857   9.508   5.356   4.001
27205WAT     H281858   9.377   5.360   3.903
27206WAT      O81859   0.917   6.469   3.556
27206WAT     H181860   0.987   6.526   3.599
27206WAT     H281861   0.872   6.413   3.625
27207WAT      O81862   9.188   7.971   1.365
27207WAT     H181863   9.099   7.958   1.322
27207WAT     H281864   9.219   7.885   1.404
27208WAT      O81865   7.197   9.021   7.667
27208WAT     H181866   7.291   9.004   7.638
27208WAT     H281867   7.176   9.119   7.659
27209WAT      O81868   3.443   3.424   8.631
27209WAT     H181869   3.402   3.382   8.712
27209WAT     H281870   3.497   3.504   8.658
27210WAT      O81871   8.553   8.668   2.039
27210WAT     H181872   8.650   8.677   2.062
27210WAT     H281873   8.502   8.745   2.078
27211WAT      O81874   3.093   2.558   4.930
27211WAT     H181875   3.191   2.558   4.913
27211WAT     H281876   3.063   2.650   4.957
27212WAT      O81877   2.884   7.176   4.317
27212WAT     H181878   2.947   7.117   4.366
27212WAT     H281879   2.914   7.271   4.325
27213WAT      O81880   2.338   7.455   7.316
27213WAT     H181881   2.254   7.499   7.285
27213WAT     H281882   2.325   7.417   7.407
27214WAT      O81883   1.035   1.907   0.948
27214WAT     H181884   1.059   2.002   0.931
27214WAT     H281885   0.953   1.883   0.895
27215WAT      O81886   1.706   5.299   6.455
27215WAT     H181887   1.782   5.296   6.391
27215WAT     H281888   1.627   5.252   6.415
27216WAT      O81889   5.277   1.154   1.572
27216WAT     H181890   5.305   1.138   1.477
27216WAT     H281891   5.186   1.194   1.574
27217WAT      O81892   3.092   6.458   3.004
27217WAT     H181893   3.063   6.528   2.939
27217WAT     H281894   3.088   6.494   3.097
27218WAT      O81895   2.648   4.242   4.774
27218WAT     H181896   2.692   4.188   4.846
27218WAT     H281897   2.706   4.243   4.693
27219WAT      O81898   7.397   2.575   5.807
27219WAT     H181899   7.402   2.607   5.901
27219WAT     H281900   7.302   2.572   5.778
27220WAT      O81901   9.311   5.887   7.393
27220WAT     H181902   9.212   5.887   7.379
27220WAT     H281903   9.338   5.803   7.438
27221WAT      O81904   5.181   7.874   9.090
27221WAT     H181905   5.104   7.903   9.147
27221WAT     H281906   5.217   7.954   9.041
27222WAT      O81907   8.983   2.999   9.845
27222WAT     H181908   8.901   3.055   9.835
27222WAT     H281909   9.027   2.989   9.755
27223WAT      O81910   6.679   2.075   3.502
27223WAT     H181911   6.741   2.003   3.472
27223WAT     H281912   6.723   2.129   3.575
27224WAT      O81913   4.189   1.994   0.157
27224WAT     H181914   4.093   2.015   0.173
27224WAT     H281915   4.224   1.942   0.236
27225WAT      O81916   2.696   4.410   2.978
27225WAT     H181917   2.678   4.468   3.058
27225WAT     H281918   2.794   4.408   2.959
27226WAT      O81919   6.273   5.370   5.078
27226WAT     H181920   6.336   5.335   5.009
27226WAT     H281921   6.313   5.452   5.120
27227WAT      O81922   3.821   5.446   5.461
27227WAT     H181923   3.886   5.496   5.404
27227WAT     H281924   3.798   5.500   5.542
27228WAT      O81925   7.211   9.738   1.373
27228WAT     H181926   7.240   9.804   1.304
27228WAT     H281927   7.143   9.779   1.433
27229WAT      O81928   5.621   6.582   6.498
27229WAT     H181929   5.566   6.631   6.566
27229WAT     H281930   5.598   6.614   6.407
27230WAT      O81931   9.550   1.945   9.249
27230WAT     H181932   9.509   2.026   9.291
27230WAT     H281933   9.480   1.873   9.240
27231WAT      O81934   3.738   1.554   1.163
27231WAT     H181935   3.824   1.536   1.115
27231WAT     H281936   3.756   1.602   1.248
27232WAT      O81937   3.809   3.292   2.881
27232WAT     H181938   3.784   3.196   2.895
27232WAT     H281939   3.795   3.316   2.785
27233WAT      O81940   0.070   5.342   3.910
27233WAT     H181941   0.139   5.314   3.976
27233WAT     H281942   0.075   5.441   3.897
27234WAT      O81943   1.643   2.163   5.335
27234WAT     H181944   1.575   2.121   5.395
27234WAT     H281945   1.729   2.175   5.384
27235WAT      O81946   5.873   9.248   7.037
27235WAT     H181947   5.927   9.165   7.025
27235WAT     H281948   5.934   9.328   7.041
27236WAT      O81949   9.076   7.533   4.337
27236WAT     H181950   9.005   7.568   4.399
27236WAT     H281951   9.146   7.486   4.390
27237WAT      O81952   6.901   4.953   5.923
27237WAT     H181953   6.988   4.955   5.875
27237WAT     H281954   6.827   4.934   5.858
27238WAT      O81955   4.849   4.499   1.365
27238WAT     H181956   4.939   4.455   1.363
27238WAT     H281957   4.844   4.567   1.291
27239WAT      O81958   8.312   4.485   6.985
27239WAT     H181959   8.263   4.555   7.037
27239WAT     H281960   8.257   4.458   6.905
27240WAT      O81961   8.386   3.090   3.801
27240WAT     H181962   8.288   3.069   3.805
27240WAT     H281963   8.418   3.076   3.707
27241WAT      O81964   2.935   5.181   8.429
27241WAT     H181965   3.022   5.177   8.380
27241WAT     H281966   2.884   5.262   8.401
27242WAT      O81967   5.164   3.107   3.190
27242WAT     H181968   5.152   3.204   3.171
27242WAT     H281969   5.083   3.071   3.236
27243WAT      O81970   0.049   5.452   7.233
27243WAT     H181971  -0.040   5.480   7.198
27243WAT     H281972   0.121   5.500   7.183
27244WAT      O81973   4.365   0.002   1.322
27244WAT     H181974   4.393  -0.034   1.411
27244WAT     H281975   4.309   0.084   1.335
27245WAT      O81976   0.232   4.997   0.625
27245WAT     H181977   0.317   4.951   0.648
27245WAT     H281978   0.194   4.957   0.542
27246WAT      O81979   9.164   0.005   0.970
27246WAT     H181980   9.067   0.030   0.973
27246WAT     H281981   9.217   0.070   1.024
27247WAT      O81982   4.562   1.857   7.176
27247WAT     H181983   4.576   1.954   7.156
27247WAT     H281984   4.586   1.802   7.096
27248WAT      O81985   7.124   9.607   5.809
27248WAT     H181986   7.132   9.665   5.728
27248WAT     H281987   7.112   9.664   5.890
27249WAT      O81988   7.048   9.255   7.630
27249WAT     H181989   7.041   9.313   7.549
27249WAT     H281990   6.982   9.286   7.699
27250WAT      O81991   3.079   3.270   9.425
27250WAT     H181992   2.983   3.242   9.431
27250WAT     H281993   3.100   3.334   9.499
27251WAT      O81994   0.992   7.402   4.356
27251WAT     H181995   1.015   7.466   4.282
27251WAT     H281996   1.033   7.433   4.441
27252WAT      O81997   8.452   8.586   2.373
27252WAT     H181998   8.442   8.667   2.316
27252WAT     H281999   8.419   8.605   2.466
27253WAT      O82000   5.665   1.731   8.826
27253WAT     H182001   5.726   1.653   8.808
27253WAT     H282002   5.703   1.786   8.901
27254WAT      O82003   9.414   7.354   5.780
27254WAT     H182004   9.384   7.283   5.843
27254WAT     H282005   9.363   7.348   5.694
27255WAT      O82006   6.534   4.742   0.491
27255WAT     H182007   6.573   4.753   0.583
27255WAT     H282008   6.436   4.757   0.495
27256WAT      O82009   4.567   4.567   6.569
27256WAT     H182010   4.515   4.604   6.492
27256WAT     H282011   4.652   4.619   6.580
27257WAT      O82012   5.923   8.525   5.529
27257WAT     H182013   5.887   8.606   5.482
27257WAT     H282014   5.936   8.451   5.463
27258WAT      O82015   6.209   7.892   5.043
27258WAT     H182016   6.143   7.948   4.993
27258WAT     H282017   6.299   7.903   5.003
27259WAT      O82018   4.517   6.240   5.659
27259WAT     H182019   4.486   6.240   5.754
27259WAT     H282020   4.498   6.329   5.617
27260WAT      O82021   9.828   8.104   9.298
27260WAT     H182022   9.860   8.196   9.318
27260WAT     H282023   9.826   8.090   9.199
27261WAT      O82024   8.225   3.508   8.429
27261WAT     H182025   8.137   3.546   8.458
27261WAT     H282026   8.262   3.449   8.501
27262WAT      O82027   8.753   4.440   4.879
27262WAT     H182028   8.809   4.360   4.858
27262WAT     H282029   8.720   4.434   4.973
27263WAT      O82030   6.982   8.134   9.865
27263WAT     H182031   6.925   8.101   9.940
27263WAT     H282032   6.929   8.197   9.808
27264WAT      O82033   0.030   3.274   3.135
27264WAT     H182034  -0.019   3.214   3.198
27264WAT     H282035  -0.031   3.301   3.061
27265WAT      O82036   9.019   4.324   5.131
27265WAT     H182037   9.029   4.311   5.230
27265WAT     H282038   8.949   4.261   5.097
27266WAT      O82039   5.048   2.215   5.817
27266WAT     H182040   5.029   2.305   5.856
27266WAT     H282041   5.144   2.191   5.832
27267WAT      O82042   2.294   3.535   4.257
27267WAT     H182043   2.351   3.613   4.230
27267WAT     H282044   2.263   3.487   4.174
27268WAT      O82045   9.761   1.114   8.287
27268WAT     H182046   9.774   1.140   8.192
27268WAT     H282047   9.669   1.138   8.316
27269WAT      O82048   5.343   6.510   1.690
27269WAT     H182049   5.312   6.512   1.595
27269WAT     H282050   5.263   6.506   1.751
27270WAT      O82051   8.713   2.805   0.802
27270WAT     H182052   8.712   2.900   0.832
27270WAT     H282053   8.722   2.744   0.881
27271WAT      O82054   6.522   6.018   7.889
27271WAT     H182055   6.471   5.946   7.840
27271WAT     H282056   6.583   5.976   7.955
27272WAT      O82057   2.859   0.593   8.061
27272WAT     H182058   2.867   0.611   8.159
27272WAT     H282059   2.896   0.503   8.041
27273WAT      O82060   7.606   1.875   9.609
27273WAT     H182061   7.678   1.809   9.585
27273WAT     H282062   7.518   1.829   9.609
27274WAT      O82063   3.547   4.594   5.800
27274WAT     H182064   3.484   4.670   5.786
27274WAT     H282065   3.521   4.543   5.881
27275WAT      O82066   6.657   0.565   9.183
27275WAT     H182067   6.622   0.477   9.215
27275WAT     H282068   6.744   0.553   9.136
27276WAT      O82069   1.487   5.963   2.815
27276WAT     H182070   1.573   5.921   2.842
27276WAT     H282071   1.414   5.933   2.877
27277WAT      O82072   8.909   6.151   6.080
27277WAT     H182073   8.996   6.128   6.122
27277WAT     H282074   8.900   6.251   6.074
27278WAT      O82075   0.266   2.981   3.937
27278WAT     H182076   0.212   2.897   3.925
27278WAT     H282077   0.356   2.968   3.897
27279WAT      O82078   7.978   5.548   5.471
27279WAT     H182079   7.950   5.636   5.433
27279WAT     H282080   8.071   5.556   5.508
27280WAT      O82081   1.364   0.470   0.658
27280WAT     H182082   1.457   0.472   0.622
27280WAT     H282083   1.359   0.531   0.738
27281WAT      O82084   6.255   4.259   2.909
27281WAT     H182085   6.227   4.355   2.911
27281WAT     H282086   6.310   4.241   2.828
27282WAT      O82087   6.271   8.691   0.963
27282WAT     H182088   6.333   8.740   0.903
27282WAT     H282089   6.176   8.712   0.939
27283WAT      O82090   0.955   8.449   4.495
27283WAT     H182091   0.873   8.412   4.539
27283WAT     H282092   0.928   8.515   4.424
27284WAT      O82093   2.557   3.142   6.012
27284WAT     H182094   2.561   3.168   5.916
27284WAT     H282095   2.531   3.221   6.068
27285WAT      O82096   3.358   4.819   6.061
27285WAT     H182097   3.411   4.772   6.132
27285WAT     H282098   3.375   4.775   5.972
27286WAT      O82099   6.757   8.218   9.002
27286WAT     H182100   6.815   8.175   9.071
27286WAT     H282101   6.814   8.266   8.936
27287WAT      O82102   2.307   8.012   9.750
27287WAT     H182103   2.239   7.969   9.691
27287WAT     H282104   2.286   8.109   9.760
27288WAT      O82105   4.358   0.615   2.294
27288WAT     H182106   4.374   0.574   2.204
27288WAT     H282107   4.260   0.619   2.312
27289WAT      O82108   6.149   0.636   2.857
27289WAT     H182109   6.108   0.546   2.842
27289WAT     H282110   6.087   0.691   2.913
27290WAT      O82111   9.269   0.570   9.106
27290WAT     H182112   9.204   0.497   9.085
27290WAT     H282113   9.310   0.604   9.022
27291WAT      O82114   2.791   0.901   9.084
27291WAT     H182115   2.693   0.885   9.076
27291WAT     H282116   2.839   0.850   9.012
27292WAT      O82117   8.644   2.946   3.403
27292WAT     H182118   8.606   3.033   3.436
27292WAT     H282119   8.586   2.871   3.433
27293WAT      O82120   3.267   3.664   3.154
27293WAT     H182121   3.309   3.601   3.219
27293WAT     H282122   3.325   3.745   3.142
27294WAT      O82123   6.670   2.773   3.362
27294WAT     H182124   6.713   2.839   3.301
27294WAT     H282125   6.738   2.705   3.391
27295WAT      O82126   3.718   2.026   4.947
27295WAT     H182127   3.645   1.979   4.998
27295WAT     H282128   3.734   2.116   4.988
27296WAT      O82129   3.039   6.770   7.118
27296WAT     H182130   3.131   6.805   7.104
27296WAT     H282131   2.976   6.846   7.132
27297WAT      O82132   8.049   9.411   4.195
27297WAT     H182133   7.960   9.430   4.154
27297WAT     H282134   8.118   9.470   4.153
27298WAT      O82135   1.932   7.118   3.953
27298WAT     H182136   2.008   7.058   3.928
27298WAT     H282137   1.880   7.142   3.871
27299WAT      O82138   1.803   4.078   8.998
27299WAT     H182139   1.868   4.007   8.971
27299WAT     H282140   1.826   4.164   8.952
27300WAT      O82141   5.532   6.966   2.887
27300WAT     H182142   5.573   6.904   2.954
27300WAT     H282143   5.521   7.057   2.928
27301WAT      O82144   5.707   5.313   4.891
27301WAT     H182145   5.728   5.301   4.988
27301WAT     H282146   5.639   5.385   4.879
27302WAT      O82147   1.436   3.984   0.686
27302WAT     H182148   1.478   4.039   0.614
27302WAT     H282149   1.483   3.999   0.772
27303WAT      O82150   0.131   7.718   3.095
27303WAT     H182151   0.156   7.623   3.115
27303WAT     H282152   0.179   7.749   3.013
27304WAT      O82153   4.580   4.833   1.330
27304WAT     H182154   4.517   4.756   1.327
27304WAT     H282155   4.528   4.917   1.346
27305WAT      O82156   8.149   8.526   3.548
27305WAT     H182157   8.097   8.448   3.582
27305WAT     H282158   8.240   8.495   3.519
27306WAT      O82159   3.518   2.027   9.791
27306WAT     H182160   3.457   2.107   9.789
27306WAT     H282161   3.467   1.947   9.821
27307WAT      O82162   9.235   1.831   7.238
27307WAT     H182163   9.239   1.928   7.214
27307WAT     H282164   9.142   1.797   7.224
27308WAT      O82165   5.027   2.200   3.167
27308WAT     H182166   4.976   2.278   3.132
27308WAT     H282167   5.038   2.209   3.266
27309WAT      O82168   8.775   4.130   4.525
27309WAT     H182169   8.847   4.144   4.457
27309WAT     H282170   8.735   4.040   4.512
27310WAT      O82171   5.891   9.677   1.508
27310WAT     H182172   5.884   9.612   1.432
27310WAT     H282173   5.913   9.767   1.473
27311WAT      O82174   3.300   3.208   5.069
27311WAT     H182175   3.206   3.232   5.044
27311WAT     H282176   3.300   3.124   5.122
27312WAT      O82177   5.762   7.952   3.107
27312WAT     H182178   5.671   7.953   3.149
27312WAT     H282179   5.776   7.863   3.063
27313WAT      O82180   0.448   4.835   0.693
27313WAT     H182181   0.474   4.771   0.621
27313WAT     H282182   0.518   4.835   0.765
27314WAT      O82183   5.732   2.240   0.029
27314WAT     H182184   5.793   2.164   0.053
27314WAT     H282185   5.660   2.247   0.099
27315WAT      O82186   1.500   9.450   9.702
27315WAT     H182187   1.496   9.474   9.799
27315WAT     H282188   1.596   9.447   9.673
27316WAT      O82189   6.020   3.381   3.743
27316WAT     H182190   6.107   3.332   3.745
27316WAT     H282191   6.037   3.480   3.740
27317WAT      O82192   3.809   5.889   2.848
27317WAT     H182193   3.734   5.939   2.803
27317WAT     H282194   3.894   5.939   2.836
27318WAT      O82195   3.903   0.801   6.700
27318WAT     H182196   3.905   0.846   6.611
27318WAT     H282197   3.854   0.858   6.765
27319WAT      O82198   8.917   6.016   5.440
27319WAT     H182199   8.956   5.932   5.404
27319WAT     H282200   8.973   6.049   5.516
27320WAT      O82201   0.541   0.557   4.831
27320WAT     H182202   0.600   0.541   4.752
27320WAT     H282203   0.558   0.487   4.900
27321WAT      O82204   4.286   2.169   6.069
27321WAT     H182205   4.234   2.092   6.107
27321WAT     H282206   4.227   2.249   6.059
27322WAT      O82207   0.284   6.649   0.579
27322WAT     H182208   0.278   6.598   0.493
27322WAT     H282209   0.339   6.731   0.565
27323WAT      O82210   7.044   6.779   6.110
27323WAT     H182211   7.124   6.804   6.164
27323WAT     H282212   7.058   6.688   6.070
27324WAT      O82213   3.275   9.730   1.571
27324WAT     H182214   3.239   9.674   1.497
27324WAT     H282215   3.212   9.806   1.589
27325WAT      O82216   2.220   3.258   0.677
27325WAT     H182217   2.128   3.291   0.697
27325WAT     H282218   2.237   3.174   0.728
27326WAT      O82219   2.991   6.006   2.862
27326WAT     H182220   2.993   5.958   2.949
27326WAT     H282221   2.921   5.967   2.803
27327WAT      O82222   8.525   5.821   2.665
27327WAT     H182223   8.578   5.768   2.732
27327WAT     H282224   8.479   5.897   2.711
27328WAT      O82225   0.696   9.530   1.048
27328WAT     H182226   0.631   9.473   0.999
27328WAT     H282227   0.744   9.476   1.117
27329WAT      O82228   1.694   2.242   1.612
27329WAT     H182229   1.647   2.327   1.636
27329WAT     H282230   1.633   2.186   1.555
27330WAT      O82231   6.642   8.487   4.441
27330WAT     H182232   6.599   8.412   4.492
27330WAT     H282233   6.738   8.465   4.424
27331WAT      O82234   5.636   4.959   5.782
27331WAT     H182235   5.700   5.022   5.824
27331WAT     H282236   5.611   4.992   5.691
27332WAT      O82237   7.958   6.354   7.877
27332WAT     H182238   7.951   6.271   7.932
27332WAT     H282239   7.994   6.330   7.786
27333WAT      O82240   3.653   0.538   7.981
27333WAT     H182241   3.730   0.560   8.040
27333WAT     H282242   3.661   0.589   7.895
27334WAT      O82243   1.943   4.946   7.798
27334WAT     H182244   2.023   4.885   7.798
27334WAT     H282245   1.972   5.039   7.777
27335WAT      O82246   8.425   0.990   2.569
27335WAT     H182247   8.450   1.035   2.483
27335WAT     H282248   8.327   0.971   2.569
27336WAT      O82249   2.692   2.160   9.511
27336WAT     H182250   2.754   2.082   9.504
27336WAT     H282251   2.745   2.243   9.527
27337WAT      O82252   6.698   0.169   9.407
27337WAT     H182253   6.790   0.161   9.446
27337WAT     H282254   6.641   0.226   9.467
27338WAT      O82255   3.566   5.799   5.133
27338WAT     H182256   3.545   5.839   5.223
27338WAT     H282257   3.519   5.851   5.062
27339WAT      O82258   0.826   7.784   5.437
27339WAT     H182259   0.758   7.827   5.377
27339WAT     H282260   0.830   7.834   5.523
27340WAT      O82261   9.302   6.725   7.881
27340WAT     H182262   9.203   6.735   7.893
27340WAT     H282263   9.322   6.637   7.837
27341WAT      O82264   5.645   7.363   3.131
27341WAT     H182265   5.730   7.315   3.152
27341WAT     H282266   5.635   7.441   3.192
27342WAT      O82267   9.365   9.791   9.686
27342WAT     H182268   9.387   9.705   9.732
27342WAT     H282269   9.267   9.792   9.663
27343WAT      O82270   3.662   0.420   6.030
27343WAT     H182271   3.743   0.365   6.010
27343WAT     H282272   3.595   0.365   6.079
27344WAT      O82273   6.032   0.054   7.837
27344WAT     H182274   6.111  -0.004   7.818
27344WAT     H282275   5.956   0.030   7.777
27345WAT      O82276   2.659   1.675   4.017
27345WAT     H182277   2.682   1.610   3.945
27345WAT     H282278   2.697   1.765   3.995
27346WAT      O82279   4.646   4.978   0.136
27346WAT     H182280   4.698   4.900   0.100
27346WAT     H282281   4.591   4.948   0.214
27347WAT      O82282   5.011   5.226   8.330
27347WAT     H182283   4.919   5.221   8.370
27347WAT     H282284   5.068   5.285   8.386
27348WAT      O82285   9.598   3.648   8.905
27348WAT     H182286   9.698   3.647   8.899
27348WAT     H282287   9.562   3.718   8.844
27349WAT      O82288   8.806   7.234   0.600
27349WAT     H182289   8.718   7.269   0.631
27349WAT     H282290   8.854   7.304   0.548
27350WAT      O82291   0.394   0.910   0.065
27350WAT     H182292   0.440   0.903   0.154
27350WAT     H282293   0.448   0.968   0.005
27351WAT      O82294   0.638   1.256   4.023
27351WAT     H182295   0.651   1.334   4.084
27351WAT     H282296   0.568   1.279   3.956
27352WAT      O82297   1.090   2.479   9.409
27352WAT     H182298   1.090   2.440   9.317
27352WAT     H282299   1.073   2.406   9.476
27353WAT      O82300   4.314   7.726   4.611
27353WAT     H182301   4.346   7.807   4.659
27353WAT     H282302   4.214   7.720   4.619
27354WAT      O82303   2.522   4.394   1.726
27354WAT     H182304   2.465   4.426   1.801
27354WAT     H282305   2.561   4.472   1.678
27355WAT      O82306   6.422   9.284   2.521
27355WAT     H182307   6.438   9.193   2.560
27355WAT     H282308   6.389   9.346   2.592
27356WAT      O82309   8.847   8.731   0.612
27356WAT     H182310   8.844   8.716   0.711
27356WAT     H282311   8.820   8.647   0.565
27357WAT      O82312   9.077   6.611   9.124
27357WAT     H182313   9.013   6.645   9.056
27357WAT     H282314   9.071   6.511   9.129
27358WAT      O82315   1.919   0.853   0.269
27358WAT     H182316   1.839   0.841   0.211
27358WAT     H282317   1.943   0.765   0.310
27359WAT      O82318   2.603   5.494   7.594
27359WAT     H182319   2.678   5.459   7.538
27359WAT     H282320   2.526   5.519   7.536
27360WAT      O82321   5.416   9.364   6.394
27360WAT     H182322   5.323   9.338   6.366
27360WAT     H282323   5.415   9.394   6.489
27361WAT      O82324   0.845   2.572   3.397
27361WAT     H182325   0.940   2.542   3.412
27361WAT     H282326   0.842   2.672   3.399
27362WAT      O82327   0.363   2.501   7.171
27362WAT     H182328   0.365   2.463   7.079
27362WAT     H282329   0.456   2.524   7.199
27363WAT      O82330   0.327   7.973   6.093
27363WAT     H182331   0.263   7.959   6.169
27363WAT     H282332   0.348   8.070   6.085
27364WAT      O82333   5.689   9.161   6.813
27364WAT     H182334   5.667   9.072   6.853
27364WAT     H282335   5.773   9.196   6.853
27365WAT      O82336   7.184   7.335   7.920
27365WAT     H182337   7.260   7.385   7.879
27365WAT     H282338   7.104   7.341   7.860
27366WAT      O82339   5.329   9.137   2.110
27366WAT     H182340   5.392   9.203   2.150
27366WAT     H282341   5.252   9.185   2.067
27367WAT      O82342   8.776   3.337   2.462
27367WAT     H182343   8.823   3.418   2.497
27367WAT     H282344   8.839   3.259   2.460
27368WAT      O82345   4.074   6.478   1.527
27368WAT     H182346   4.058   6.422   1.609
27368WAT     H282347   4.096   6.572   1.555
27369WAT      O82348   6.490   8.655   4.287
27369WAT     H182349   6.547   8.597   4.345
27369WAT     H282350   6.494   8.622   4.192
27370WAT      O82351   2.186   8.194   1.819
27370WAT     H182352   2.152   8.122   1.758
27370WAT     H282353   2.110   8.253   1.845
27371WAT      O82354   4.934   9.166   5.275
27371WAT     H182355   4.847   9.184   5.229
27371WAT     H282356   4.977   9.253   5.300
27372WAT      O82357   4.584   7.713   4.880
27372WAT     H182358   4.564   7.615   4.877
27372WAT     H282359   4.669   7.729   4.929
27373WAT      O82360   4.081   7.243   2.634
27373WAT     H182361   4.045   7.229   2.726
27373WAT     H282362   4.028   7.189   2.569
27374WAT      O82363   2.648   1.589   0.767
27374WAT     H182364   2.716   1.600   0.839
27374WAT     H282365   2.577   1.526   0.797
27375WAT      O82366   0.908   1.515   7.700
27375WAT     H182367   0.841   1.508   7.626
27375WAT     H282368   0.999   1.528   7.662
27376WAT      O82369   0.551   2.564   9.034
27376WAT     H182370   0.504   2.638   9.083
27376WAT     H282371   0.486   2.520   8.971
27377WAT      O82372   0.333   0.518   7.890
27377WAT     H182373   0.343   0.510   7.791
27377WAT     H282374   0.423   0.528   7.932
27378WAT      O82375   4.341   7.637   6.266
27378WAT     H182376   4.292   7.585   6.335
27378WAT     H282377   4.415   7.581   6.228
27379WAT      O82378   3.253   9.519   5.410
27379WAT     H182379   3.159   9.495   5.386
27379WAT     H282380   3.288   9.453   5.476
27380WAT      O82381   9.021   7.394   1.303
27380WAT     H182382   9.074   7.474   1.276
27380WAT     H282383   8.955   7.372   1.230
27381WAT      O82384   4.643   7.274   9.418
27381WAT     H182385   4.557   7.275   9.467
27381WAT     H282386   4.630   7.313   9.327
27382WAT      O82387   4.924   2.639   6.193
27382WAT     H182388   4.879   2.664   6.279
27382WAT     H282389   4.869   2.671   6.116
27383WAT      O82390   0.921   4.078   8.694
27383WAT     H182391   0.945   4.011   8.623
27383WAT     H282392   0.825   4.067   8.719
27384WAT      O82393   1.475   6.937   2.894
27384WAT     H182394   1.440   7.012   2.838
27384WAT     H282395   1.563   6.906   2.858
27385WAT      O82396   7.179   1.935   3.692
27385WAT     H182397   7.151   1.844   3.724
27385WAT     H282398   7.125   1.960   3.612
27386WAT      O82399   0.371   2.099   6.676
27386WAT     H182400   0.367   2.014   6.729
27386WAT     H282401   0.338   2.082   6.583
27387WAT      O82402   3.414   1.714   2.733
27387WAT     H182403   3.328   1.664   2.733
27387WAT     H282404   3.440   1.734   2.828
27388WAT      O82405   3.831   3.477   9.846
27388WAT     H182406   3.887   3.395   9.847
27388WAT     H282407   3.740   3.456   9.883
27389WAT      O82408   6.546   3.460   2.296
27389WAT     H182409   6.460   3.430   2.257
27389WAT     H282410   6.545   3.560   2.306
27390WAT      O82411   9.147   2.413   0.239
27390WAT     H182412   9.075   2.422   0.170
27390WAT     H282413   9.131   2.480   0.312
27391WAT      O82414   8.608   3.525   5.154
27391WAT     H182415   8.586   3.591   5.226
27391WAT     H282416   8.629   3.573   5.069
27392WAT      O82417   2.643   0.838   0.430
27392WAT     H182418   2.575   0.768   0.407
27392WAT     H282419   2.705   0.802   0.500
27393WAT      O82420   0.513   0.591   0.955
27393WAT     H182421   0.427   0.641   0.945
27393WAT     H282422   0.494   0.494   0.968
27394WAT      O82423   5.106   2.737   9.237
27394WAT     H182424   5.133   2.828   9.268
27394WAT     H282425   5.031   2.703   9.293
27395WAT      O82426   0.505   6.847   4.615
27395WAT     H182427   0.484   6.792   4.534
27395WAT     H282428   0.420   6.886   4.652
27396WAT      O82429   0.481   7.333   2.123
27396WAT     H182430   0.426   7.324   2.040
27396WAT     H282431   0.483   7.246   2.172
27397WAT      O82432   8.194   3.972   5.851
27397WAT     H182433   8.096   3.972   5.831
27397WAT     H282434   8.241   3.913   5.785
27398WAT      O82435   0.946   6.147   3.237
27398WAT     H182436   0.895   6.126   3.320
27398WAT     H282437   1.043   6.126   3.252
27399WAT      O82438   1.621   3.573   8.941
27399WAT     H182439   1.664   3.552   9.029
27399WAT     H282440   1.581   3.665   8.945
27400WAT      O82441   3.268   4.595   1.051
27400WAT     H182442   3.205   4.547   1.112
27400WAT     H282443   3.320   4.528   0.997
27401WAT      O82444   0.549   7.059   2.884
27401WAT     H182445   0.598   7.057   2.971
27401WAT     H282446   0.506   7.148   2.873
27402WAT      O82447   9.771   9.288   6.736
27402WAT     H182448   9.811   9.370   6.777
27402WAT     H282449   9.830   9.256   6.662
27403WAT      O82450   3.078   7.956   5.892
27403WAT     H182451   3.095   7.907   5.807
27403WAT     H282452   3.106   8.052   5.882
27404WAT      O82453   5.238   7.288   2.670
27404WAT     H182454   5.259   7.192   2.687
27404WAT     H282455   5.310   7.328   2.612
27405WAT      O82456   8.306   6.858   3.685
27405WAT     H182457   8.267   6.889   3.598
27405WAT     H282458   8.236   6.863   3.756
27406WAT      O82459   9.469   9.517   8.086
27406WAT     H182460   9.524   9.600   8.088
27406WAT     H282461   9.505   9.451   8.152
27407WAT      O82462   0.065   3.766   7.149
27407WAT     H182463   0.160   3.797   7.156
27407WAT     H282464   0.064   3.669   7.125
27408WAT      O82465   1.479   2.797   1.331
27408WAT     H182466   1.523   2.708   1.321
27408WAT     H282467   1.409   2.792   1.403
27409WAT      O82468   5.610   1.243   8.957
27409WAT     H182469   5.551   1.242   9.037
27409WAT     H282470   5.595   1.327   8.905
27410WAT      O82471   7.538   5.750   3.305
27410WAT     H182472   7.581   5.662   3.286
27410WAT     H282473   7.525   5.761   3.403
27411WAT      O82474   1.148   1.899   2.985
27411WAT     H182475   1.097   1.923   3.067
27411WAT     H282476   1.189   1.981   2.946
27412WAT      O82477   7.720   0.471   2.357
27412WAT     H182478   7.674   0.518   2.282
27412WAT     H282479   7.662   0.397   2.391
27413WAT      O82480   5.959   0.426   9.367
27413WAT     H182481   6.007   0.514   9.371
27413WAT     H282482   5.998   0.364   9.435
27414WAT      O82483   5.462   9.652   3.404
27414WAT     H182484   5.366   9.628   3.390
27414WAT     H282485   5.515   9.569   3.423
27415WAT      O82486   9.700   4.932   7.828
27415WAT     H182487   9.773   4.957   7.893
27415WAT     H282488   9.664   4.842   7.852
27416WAT      O82489   4.073   4.493   5.815
27416WAT     H182490   4.141   4.555   5.777
27416WAT     H282491   3.984   4.540   5.821
27417WAT      O82492   8.009   3.332   8.733
27417WAT     H182493   8.019   3.409   8.797
27417WAT     H282494   7.977   3.251   8.783
27418WAT      O82495   4.921   7.379   0.913
27418WAT     H182496   4.909   7.438   0.993
27418WAT     H282497   5.018   7.354   0.905
27419WAT      O82498   4.022   3.588   8.142
27419WAT     H182499   4.092   3.598   8.213
27419WAT     H282500   4.003   3.677   8.101
27420WAT      O82501   4.288   1.636   1.453
27420WAT     H182502   4.255   1.568   1.519
27420WAT     H282503   4.286   1.727   1.495
27421WAT      O82504   2.959   2.875   8.895
27421WAT     H182505   2.875   2.929   8.891
27421WAT     H282506   3.021   2.916   8.962
27422WAT      O82507   9.618   3.917   3.643
27422WAT     H182508   9.544   3.980   3.664
27422WAT     H282509   9.587   3.849   3.577
27423WAT      O82510   8.707   9.298   7.829
27423WAT     H182511   8.750   9.226   7.775
27423WAT     H282512   8.629   9.260   7.878
27424WAT      O82513   8.499   1.954   2.985
27424WAT     H182514   8.556   1.939   3.065
27424WAT     H282515   8.422   2.013   3.009
27425WAT      O82516   1.082   5.442   3.554
27425WAT     H182517   1.084   5.533   3.512
27425WAT     H282518   1.044   5.377   3.489
27426WAT      O82519   8.790   3.197   1.873
27426WAT     H182520   8.754   3.185   1.780
27426WAT     H282521   8.834   3.287   1.880
27427WAT      O82522   1.057   9.462   3.544
27427WAT     H182523   0.998   9.533   3.506
27427WAT     H282524   1.031   9.373   3.505
27428WAT      O82525   0.571   9.097   3.452
27428WAT     H182526   0.619   9.120   3.537
27428WAT     H282527   0.493   9.037   3.474
27429WAT      O82528   6.606   4.518   6.566
27429WAT     H182529   6.641   4.607   6.594
27429WAT     H282530   6.606   4.456   6.644
27430WAT      O82531   7.581   3.027   2.948
27430WAT     H182532   7.485   3.003   2.938
27430WAT     H282533   7.617   2.986   3.032
27431WAT      O82534   5.015   1.228   1.529
27431WAT     H182535   5.027   1.302   1.462
27431WAT     H282536   4.931   1.177   1.508
27432WAT      O82537   5.828   7.728   1.522
27432WAT     H182538   5.787   7.770   1.441
27432WAT     H282539   5.791   7.636   1.534
27433WAT      O82540   9.693   7.499   6.740
27433WAT     H182541   9.703   7.573   6.807
27433WAT     H282542   9.775   7.494   6.684
27434WAT      O82543   8.318   8.801   6.948
27434WAT     H182544   8.221   8.778   6.943
27434WAT     H282545   8.369   8.747   6.882
27435WAT      O82546   0.244   7.085   2.599
27435WAT     H182547   0.158   7.114   2.642
27435WAT     H282548   0.305   7.164   2.589
27436WAT      O82549   7.970   8.686   2.753
27436WAT     H182550   7.908   8.761   2.776
27436WAT     H282551   7.927   8.599   2.779
27437WAT      O82552   8.776   1.031   0.739
27437WAT     H182553   8.813   0.967   0.672
27437WAT     H282554   8.734   1.108   0.692
27438WAT      O82555   4.061   7.807   4.702
27438WAT     H182556   4.026   7.811   4.795
27438WAT     H282557   3.991   7.837   4.638
27439WAT      O82558   4.971   7.196   4.392
27439WAT     H182559   5.053   7.219   4.445
27439WAT     H282560   4.965   7.255   4.312
27440WAT      O82561   7.540   8.668   8.397
27440WAT     H182562   7.549   8.589   8.458
27440WAT     H282563   7.615   8.733   8.416
27441WAT      O82564   9.525   2.391   9.011
27441WAT     H182565   9.431   2.423   9.022
27441WAT     H282566   9.572   2.397   9.099
27442WAT      O82567   8.383   8.482   1.655
27442WAT     H182568   8.318   8.526   1.717
27442WAT     H282569   8.334   8.446   1.575
27443WAT      O82570   7.156   0.515   9.090
27443WAT     H182571   7.151   0.467   9.002
27443WAT     H282572   7.242   0.566   9.095
27444WAT      O82573   1.131   0.179   9.489
27444WAT     H182574   1.088   0.089   9.480
27444WAT     H282575   1.133   0.224   9.400
27445WAT      O82576   9.522   5.305   4.326
27445WAT     H182577   9.563   5.305   4.234
27445WAT     H282578   9.525   5.397   4.364
27446WAT      O82579   9.055   7.152   0.721
27446WAT     H182580   9.023   7.180   0.811
27446WAT     H282581   8.979   7.153   0.656
27447WAT      O82582   5.345   9.388   8.689
27447WAT     H182583   5.334   9.487   8.692
27447WAT     H282584   5.291   9.346   8.763
27448WAT      O82585   4.189   6.615   8.237
27448WAT     H182586   4.279   6.658   8.248
27448WAT     H282587   4.142   6.615   8.325
27449WAT      O82588   6.647   6.184   8.831
27449WAT     H182589   6.675   6.280   8.835
27449WAT     H282590   6.635   6.156   8.736
27450WAT      O82591   6.785   3.148   5.477
27450WAT     H182592   6.765   3.244   5.492
27450WAT     H282593   6.810   3.133   5.381
27451WAT      O82594   8.585   0.895   8.126
27451WAT     H182595   8.633   0.982   8.121
27451WAT     H282596   8.644   0.826   8.169
27452WAT      O82597   6.741   8.046   0.127
27452WAT     H182598   6.747   7.948   0.104
27452WAT     H282599   6.645   8.072   0.137
27453WAT      O82600   7.255   7.409   1.648
27453WAT     H182601   7.231   7.353   1.726
27453WAT     H282602   7.212   7.499   1.657
27454WAT      O82603   4.774   7.512   0.216
27454WAT     H182604   4.677   7.491   0.223
27454WAT     H282605   4.787   7.611   0.213
27455WAT      O82606   7.649   0.274   8.407
27455WAT     H182607   7.600   0.230   8.482
27455WAT     H282608   7.584   0.316   8.344
27456WAT      O82609   1.750   3.790   9.206
27456WAT     H182610   1.844   3.801   9.236
27456WAT     H282611   1.694   3.865   9.242
27457WAT      O82612   4.892   1.207   7.109
27457WAT     H182613   4.886   1.294   7.060
27457WAT     H282614   4.958   1.215   7.184
27458WAT      O82615   0.701   1.717   1.193
27458WAT     H182616   0.714   1.695   1.096
27458WAT     H282617   0.781   1.767   1.227
27459WAT      O82618   1.958   9.488   8.745
27459WAT     H182619   1.936   9.397   8.711
27459WAT     H282620   2.057   9.496   8.759
27460WAT      O82621   1.589   2.759   1.664
27460WAT     H182622   1.620   2.837   1.611
27460WAT     H282623   1.525   2.789   1.735
27461WAT      O82624   4.930   3.964   9.888
27461WAT     H182625   5.027   3.938   9.883
27461WAT     H282626   4.876   3.885   9.917
27462WAT      O82627   3.591   3.348   8.167
27462WAT     H182628   3.538   3.430   8.191
27462WAT     H282629   3.555   3.270   8.218
27463WAT      O82630   6.576   2.204   1.508
27463WAT     H182631   6.568   2.139   1.432
27463WAT     H282632   6.618   2.289   1.475
27464WAT      O82633   4.326   5.659   0.402
27464WAT     H182634   4.245   5.601   0.390
27464WAT     H282635   4.375   5.667   0.315
27465WAT      O82636   6.370   3.446   8.056
27465WAT     H182637   6.456   3.496   8.064
27465WAT     H282638   6.299   3.494   8.106
27466WAT      O82639   3.800   5.391   6.120
27466WAT     H182640   3.743   5.310   6.132
27466WAT     H282641   3.757   5.469   6.167
27467WAT      O82642   6.302   8.543   3.465
27467WAT     H182643   6.244   8.514   3.541
27467WAT     H282644   6.307   8.470   3.397
27468WAT      O82645   0.389   2.121   4.798
27468WAT     H182646   0.480   2.157   4.779
27468WAT     H282647   0.397   2.030   4.837
27469WAT      O82648   7.166   4.929   8.962
27469WAT     H182649   7.072   4.896   8.966
27469WAT     H282650   7.166   5.025   8.933
27470WAT      O82651   1.952   1.738   6.681
27470WAT     H182652   1.935   1.779   6.770
27470WAT     H282653   1.865   1.724   6.633
27471WAT      O82654   0.476   7.152   0.796
27471WAT     H182655   0.566   7.116   0.821
27471WAT     H282656   0.407   7.081   0.808
27472WAT      O82657   4.842   6.117   4.555
27472WAT     H182658   4.874   6.182   4.487
27472WAT     H282659   4.841   6.160   4.645
27473WAT      O82660   0.144   7.082   1.892
27473WAT     H182661   0.109   7.000   1.846
27473WAT     H282662   0.145   7.068   1.991
27474WAT      O82663   4.218   6.798   0.726
27474WAT     H182664   4.133   6.846   0.704
27474WAT     H282665   4.293   6.837   0.672
27475WAT      O82666   9.431   5.690   3.521
27475WAT     H182667   9.376   5.661   3.599
27475WAT     H282668   9.527   5.691   3.546
27476WAT      O82669   1.257   2.935   7.645
27476WAT     H182670   1.268   2.998   7.568
27476WAT     H282671   1.262   2.987   7.730
27477WAT      O82672   2.960   5.332   8.802
27477WAT     H182673   3.000   5.244   8.777
27477WAT     H282674   2.978   5.400   8.731
27478WAT      O82675   8.626   5.440   6.624
27478WAT     H182676   8.608   5.348   6.587
27478WAT     H282677   8.603   5.442   6.721
27479WAT      O82678   0.260   8.987   6.442
27479WAT     H182679   0.276   9.022   6.349
27479WAT     H282680   0.282   9.058   6.509
27480WAT      O82681   9.087   0.292   4.332
27480WAT     H182682   9.044   0.209   4.297
27480WAT     H282683   9.175   0.269   4.374
27481WAT      O82684   8.313   6.185   1.542
27481WAT     H182685   8.326   6.284   1.547
27481WAT     H282686   8.362   6.142   1.618
27482WAT      O82687   5.340   5.466   4.599
27482WAT     H182688   5.340   5.392   4.665
27482WAT     H282689   5.434   5.499   4.585
27483WAT      O82690   0.406   3.913   8.687
27483WAT     H182691   0.381   3.896   8.782
27483WAT     H282692   0.357   3.850   8.627
27484WAT      O82693   2.139   4.798   2.636
27484WAT     H182694   2.151   4.738   2.557
27484WAT     H282695   2.046   4.832   2.639
27485WAT      O82696   8.090   6.038   5.739
27485WAT     H182697   8.137   5.950   5.749
27485WAT     H282698   8.142   6.096   5.677
27486WAT      O82699   6.624   8.672   5.339
27486WAT     H182700   6.669   8.675   5.428
27486WAT     H282701   6.597   8.578   5.318
27487WAT      O82702   2.091   1.373   3.567
27487WAT     H182703   2.030   1.377   3.646
27487WAT     H282704   2.094   1.462   3.522
27488WAT      O82705   1.595   7.962   2.279
27488WAT     H182706   1.545   8.018   2.345
27488WAT     H282707   1.566   7.866   2.287
27489WAT      O82708   7.665   5.106   4.826
27489WAT     H182709   7.629   5.068   4.740
27489WAT     H282710   7.600   5.087   4.900
27490WAT      O82711   0.387   3.053   6.071
27490WAT     H182712   0.362   2.962   6.036
27490WAT     H282713   0.307   3.114   6.065
27491WAT      O82714   4.892   4.437   7.978
27491WAT     H182715   4.986   4.453   7.948
27491WAT     H282716   4.828   4.473   7.910
27492WAT      O82717   5.273   4.555   2.214
27492WAT     H182718   5.220   4.636   2.236
27492WAT     H282719   5.262   4.533   2.117
27493WAT      O82720   4.800   1.933   9.529
27493WAT     H182721   4.712   1.965   9.563
27493WAT     H282722   4.786   1.884   9.443
27494WAT      O82723   4.979   1.946   0.632
27494WAT     H182724   4.940   1.892   0.557
27494WAT     H282725   5.025   1.884   0.696
27495WAT      O82726   8.471   0.095   5.027
27495WAT     H182727   8.517   0.053   5.105
27495WAT     H282728   8.375   0.064   5.025
27496WAT      O82729   8.264   8.722   0.263
27496WAT     H182730   8.279   8.634   0.217
27496WAT     H282731   8.181   8.717   0.318
27497WAT      O82732   3.946   6.257   5.504
27497WAT     H182733   4.037   6.288   5.532
27497WAT     H282734   3.890   6.239   5.585
27498WAT      O82735   3.286   0.696   5.137
27498WAT     H182736   3.210   0.732   5.083
27498WAT     H282737   3.318   0.766   5.201
27499WAT      O82738   7.048   3.552   3.231
27499WAT     H182739   7.067   3.640   3.273
27499WAT     H282740   7.064   3.479   3.298
27500WAT      O82741   2.026   2.832   1.452
27500WAT     H182742   2.018   2.739   1.488
27500WAT     H282743   1.961   2.845   1.377
27501WAT      O82744   7.552   5.766   9.595
27501WAT     H182745   7.468   5.712   9.602
27501WAT     H282746   7.564   5.819   9.679
27502WAT      O82747   6.020   6.372   8.005
27502WAT     H182748   5.948   6.364   8.074
27502WAT     H282749   5.981   6.357   7.915
27503WAT      O82750   3.168   4.613   5.960
27503WAT     H182751   3.154   4.687   6.027
27503WAT     H282752   3.154   4.525   6.005
27504WAT      O82753   8.286   1.025   4.440
27504WAT     H182754   8.219   0.993   4.507
27504WAT     H282755   8.249   1.104   4.391
27505WAT      O82756   7.170   9.716   4.256
27505WAT     H182757   7.149   9.775   4.178
27505WAT     H282758   7.268   9.697   4.258
27506WAT      O82759   7.366   7.574   0.188
27506WAT     H182760   7.279   7.588   0.140
27506WAT     H282761   7.353   7.591   0.286
27507WAT      O82762   1.651   1.260   2.258
27507WAT     H182763   1.683   1.330   2.322
27507WAT     H282764   1.629   1.176   2.309
27508WAT      O82765   8.902   5.198   7.931
27508WAT     H182766   8.832   5.136   7.897
27508WAT     H282767   8.992   5.170   7.898
27509WAT      O82768   5.198   4.971   8.918
27509WAT     H182769   5.178   4.991   8.822
27509WAT     H282770   5.113   4.972   8.971
27510WAT      O82771   8.817   9.688   8.185
27510WAT     H182772   8.893   9.749   8.161
27510WAT     H282773   8.822   9.605   8.128
27511WAT      O82774   2.356   3.599   9.266
27511WAT     H182775   2.300   3.682   9.272
27511WAT     H282776   2.298   3.518   9.266
27512WAT      O82777   1.459   4.178   5.222
27512WAT     H182778   1.375   4.221   5.255
27512WAT     H282779   1.498   4.121   5.294
27513WAT      O82780   9.628   7.802   9.179
27513WAT     H182781   9.654   7.852   9.261
27513WAT     H282782   9.590   7.866   9.112
27514WAT      O82783   6.786   8.391   9.894
27514WAT     H182784   6.726   8.419   9.819
27514WAT     H282785   6.880   8.416   9.872
27515WAT      O82786   6.177   6.006   3.599
27515WAT     H182787   6.106   6.076   3.590
27515WAT     H282788   6.211   5.982   3.508
27516WAT      O82789   4.208   3.155   5.503
27516WAT     H182790   4.156   3.238   5.482
27516WAT     H282791   4.163   3.076   5.462
27517WAT      O82792   3.665   7.830   2.360
27517WAT     H182793   3.681   7.922   2.395
27517WAT     H282794   3.745   7.773   2.377
27518WAT      O82795   1.133   3.387   0.458
27518WAT     H182796   1.220   3.348   0.489
27518WAT     H282797   1.072   3.400   0.536
27519WAT      O82798   8.843   5.753   3.726
27519WAT     H182799   8.751   5.766   3.687
27519WAT     H282800   8.890   5.681   3.675
27520WAT      O82801   7.640   6.552   3.197
27520WAT     H182802   7.544   6.558   3.224
27520WAT     H282803   7.669   6.640   3.158
27521WAT      O82804   7.576   8.968   3.335
27521WAT     H182805   7.484   8.959   3.298
27521WAT     H282806   7.641   8.919   3.277
27522WAT      O82807   2.384   4.606   0.317
27522WAT     H182808   2.425   4.663   0.388
27522WAT     H282809   2.387   4.510   0.347
27523WAT      O82810   7.206   7.966   7.972
27523WAT     H182811   7.166   8.046   8.017
27523WAT     H282812   7.148   7.939   7.895
27524WAT      O82813   4.405   0.047   5.850
27524WAT     H182814   4.376   0.024   5.757
27524WAT     H282815   4.449  -0.032   5.892
27525WAT      O82816   2.537   4.656   5.450
27525WAT     H182817   2.575   4.576   5.497
27525WAT     H282818   2.438   4.658   5.462
27526WAT      O82819   7.620   4.590   2.383
27526WAT     H182820   7.576   4.511   2.424
27526WAT     H282821   7.627   4.577   2.284
27527WAT      O82822   4.199   1.658   6.925
27527WAT     H182823   4.157   1.572   6.894
27527WAT     H282824   4.267   1.639   6.995
27528WAT      O82825   0.406   4.336   6.731
27528WAT     H182826   0.456   4.326   6.816
27528WAT     H282827   0.396   4.434   6.709
27529WAT      O82828   7.014   1.998   0.824
27529WAT     H182829   7.064   2.067   0.773
27529WAT     H282830   7.075   1.955   0.891
27530WAT      O82831   8.251   3.845   3.379
27530WAT     H182832   8.215   3.879   3.465
27530WAT     H282833   8.300   3.759   3.394
27531WAT      O82834   8.624   5.054   1.608
27531WAT     H182835   8.716   5.038   1.571
27531WAT     H282836   8.587   5.138   1.569
27532WAT      O82837   3.180   6.524   2.501
27532WAT     H182838   3.212   6.578   2.423
27532WAT     H282839   3.174   6.583   2.582
27533WAT      O82840   8.856   4.336   9.792
27533WAT     H182841   8.844   4.391   9.875
27533WAT     H282842   8.949   4.298   9.791
27534WAT      O82843   8.381   4.647   3.679
27534WAT     H182844   8.300   4.657   3.621
27534WAT     H282845   8.354   4.613   3.769
27535WAT      O82846   0.738   1.437   9.576
27535WAT     H182847   0.666   1.399   9.634
27535WAT     H282848   0.806   1.366   9.557
27536WAT      O82849   8.275   8.297   8.152
27536WAT     H182850   8.250   8.324   8.244
27536WAT     H282851   8.295   8.199   8.150
27537WAT      O82852   9.496   3.739   9.711
27537WAT     H182853   9.579   3.767   9.663
27537WAT     H282854   9.464   3.814   9.768
27538WAT      O82855   9.173   9.035   2.713
27538WAT     H182856   9.208   8.952   2.757
27538WAT     H282857   9.198   9.114   2.770
27539WAT      O82858   2.844   9.704   4.769
27539WAT     H182859   2.755   9.694   4.726
27539WAT     H282860   2.849   9.792   4.816
27540WAT      O82861   7.830   5.328   3.006
27540WAT     H182862   7.758   5.336   2.938
27540WAT     H282863   7.918   5.348   2.965
27541WAT      O82864   8.865   5.802   8.882
27541WAT     H182865   8.860   5.888   8.832
27541WAT     H282866   8.961   5.774   8.890
27542WAT      O82867   8.267   3.104   1.006
27542WAT     H182868   8.338   3.136   1.069
27542WAT     H282869   8.310   3.055   0.930
27543WAT      O82870   1.111   2.923   5.401
27543WAT     H182871   1.031   2.926   5.340
27543WAT     H282872   1.085   2.882   5.488
27544WAT      O82873   9.515   2.455   2.165
27544WAT     H182874   9.517   2.363   2.204
27544WAT     H282875   9.592   2.466   2.101
27545WAT      O82876   0.161   8.933   2.982
27545WAT     H182877   0.251   8.956   2.945
27545WAT     H282878   0.130   9.005   3.043
27546WAT      O82879   6.436   9.263   4.188
27546WAT     H182880   6.438   9.226   4.095
27546WAT     H282881   6.518   9.235   4.237
27547WAT      O82882   1.792   4.698   9.292
27547WAT     H182883   1.710   4.755   9.284
27547WAT     H282884   1.870   4.756   9.317
27548WAT      O82885   8.775   8.955   1.927
27548WAT     H182886   8.855   9.012   1.942
27548WAT     H282887   8.786   8.869   1.978
27549WAT      O82888   8.902   0.427   4.748
27549WAT     H182889   8.841   0.375   4.688
27549WAT     H282890   8.884   0.402   4.844
27550WAT      O82891   6.545   8.860   6.844
27550WAT     H182892   6.585   8.813   6.766
27550WAT     H282893   6.450   8.881   6.824
27551WAT      O82894   9.581   7.230   2.787
27551WAT     H182895   9.615   7.261   2.876
27551WAT     H282896   9.486   7.200   2.796
27552WAT      O82897   7.331   6.754   9.105
27552WAT     H182898   7.366   6.662   9.089
27552WAT     H282899   7.235   6.759   9.076
27553WAT      O82900   9.697   5.692   8.226
27553WAT     H182901   9.764   5.766   8.228
27553WAT     H282902   9.707   5.639   8.142
27554WAT      O82903   5.283   1.442   4.939
27554WAT     H182904   5.188   1.446   4.908
27554WAT     H282905   5.289   1.468   5.035
27555WAT      O82906   2.975   6.210   3.771
27555WAT     H182907   3.062   6.165   3.788
27555WAT     H282908   2.912   6.191   3.847
27556WAT      O82909   3.013   1.947   1.129
27556WAT     H182910   3.091   1.985   1.078
27556WAT     H282911   2.996   2.004   1.210
27557WAT      O82912   6.189   7.933   5.729
27557WAT     H182913   6.267   7.874   5.708
27557WAT     H282914   6.213   8.028   5.710
27558WAT      O82915   8.648   6.582   5.409
27558WAT     H182916   8.607   6.493   5.388
27558WAT     H282917   8.686   6.621   5.325
27559WAT      O82918   6.695   2.116   3.129
27559WAT     H182919   6.762   2.095   3.058
27559WAT     H282920   6.625   2.044   3.130
27560WAT      O82921   4.930   4.499   7.602
27560WAT     H182922   4.926   4.531   7.697
27560WAT     H282923   4.965   4.572   7.544
27561WAT      O82924   5.500   5.471   4.338
27561WAT     H182925   5.493   5.565   4.371
27561WAT     H282926   5.572   5.423   4.389
27562WAT      O82927   1.645   0.569   7.057
27562WAT     H182928   1.717   0.534   7.117
27562WAT     H282929   1.654   0.527   6.967
27563WAT      O82930   4.697   0.514   8.057
27563WAT     H182931   4.604   0.490   8.084
27563WAT     H282932   4.695   0.569   7.974
27564WAT      O82933   9.562   5.832   9.075
27564WAT     H182934   9.536   5.928   9.079
27564WAT     H282935   9.614   5.816   8.990
27565WAT      O82936   3.845   0.793   8.313
27565WAT     H182937   3.874   0.845   8.233
27565WAT     H282938   3.831   0.697   8.287
27566WAT      O82939   2.886   3.464   3.634
27566WAT     H182940   2.883   3.375   3.679
27566WAT     H282941   2.939   3.528   3.691
27567WAT      O82942   8.143   5.972   0.288
27567WAT     H182943   8.197   5.888   0.287
27567WAT     H282944   8.083   5.974   0.208
27568WAT      O82945   7.863   7.747   0.930
27568WAT     H182946   7.905   7.659   0.906
27568WAT     H282947   7.915   7.821   0.888
27569WAT      O82948   5.417   9.035   3.319
27569WAT     H182949   5.325   9.059   3.289
27569WAT     H282950   5.479   9.034   3.240
27570WAT      O82951   0.105   9.741   1.242
27570WAT     H182952   0.125   9.657   1.193
27570WAT     H282953   0.171   9.812   1.215
27571WAT      O82954   0.612   3.778   3.508
27571WAT     H182955   0.601   3.797   3.605
27571WAT     H282956   0.622   3.679   3.494
27572WAT      O82957   9.530   8.971   1.447
27572WAT     H182958   9.530   8.898   1.378
27572WAT     H282959   9.528   9.060   1.401
27573WAT      O82960   5.700   3.618   5.209
27573WAT     H182961   5.640   3.694   5.235
27573WAT     H282962   5.795   3.647   5.217
27574WAT      O82963   1.194   2.030   9.473
27574WAT     H182964   1.146   2.054   9.388
27574WAT     H282965   1.175   1.934   9.495
27575WAT      O82966   9.016   8.706   2.696
27575WAT     H182967   9.083   8.722   2.622
27575WAT     H282968   8.926   8.690   2.656
27576WAT      O82969   4.490   9.515   2.417
27576WAT     H182970   4.546   9.593   2.391
27576WAT     H282971   4.549   9.439   2.443
27577WAT      O82972   5.852   4.384   0.159
27577WAT     H182973   5.894   4.320   0.094
27577WAT     H282974   5.796   4.332   0.224
27578WAT      O82975   6.339   1.918   4.838
27578WAT     H182976   6.287   1.975   4.774
27578WAT     H282977   6.305   1.931   4.931
27579WAT      O82978   6.494   0.007   6.044
27579WAT     H182979   6.430   0.074   6.082
27579WAT     H282980   6.509   0.027   5.947
27580WAT      O82981   6.674   4.985   5.761
27580WAT     H182982   6.681   5.072   5.712
27580WAT     H282983   6.587   4.941   5.740
27581WAT      O82984   0.516   7.779   4.035
27581WAT     H182985   0.547   7.858   4.088
27581WAT     H282986   0.595   7.723   4.010
27582WAT      O82987   4.654   6.451   4.671
27582WAT     H182988   4.632   6.520   4.740
27582WAT     H282989   4.667   6.363   4.715
27583WAT      O82990   6.669   1.704   6.135
27583WAT     H182991   6.657   1.770   6.060
27583WAT     H282992   6.676   1.752   6.222
27584WAT      O82993   4.110   3.758   6.940
27584WAT     H182994   4.025   3.741   6.989
27584WAT     H282995   4.179   3.793   7.003
27585WAT      O82996   2.200   0.449   8.066
27585WAT     H182997   2.224   0.483   7.974
27585WAT     H282998   2.154   0.522   8.117
27586WAT      O82999   0.706   3.913   4.051
27586WAT     H183000   0.769   3.945   3.980
27586WAT     H283001   0.612   3.934   4.023
27587WAT      O83002   8.723   4.757   2.532
27587WAT     H183003   8.734   4.809   2.447
27587WAT     H283004   8.809   4.758   2.583
27588WAT      O83005   4.702   3.227   0.750
27588WAT     H183006   4.728   3.284   0.827
27588WAT     H283007   4.648   3.149   0.783
27589WAT      O83008   3.475   4.406   1.610
27589WAT     H183009   3.489   4.310   1.632
27589WAT     H283010   3.563   4.453   1.609
27590WAT      O83011   6.217   2.834   7.778
27590WAT     H183012   6.155   2.861   7.852
27590WAT     H283013   6.179   2.864   7.690
27591WAT      O83014   9.808   1.473   8.105
27591WAT     H183015   9.857   1.528   8.037
27591WAT     H283016   9.769   1.534   8.174
27592WAT      O83017   8.284   1.507   1.661
27592WAT     H183018   8.366   1.450   1.668
27592WAT     H283019   8.203   1.450   1.664
27593WAT      O83020   0.554   8.248   0.797
27593WAT     H183021   0.586   8.167   0.846
27593WAT     H283022   0.488   8.221   0.726
27594WAT      O83023   4.412   9.137   5.222
27594WAT     H183024   4.343   9.086   5.171
27594WAT     H283025   4.400   9.235   5.205
27595WAT      O83026   5.382   9.005   1.777
27595WAT     H183027   5.448   8.945   1.733
27595WAT     H283028   5.373   8.980   1.873
27596WAT      O83029   5.273   5.220   6.103
27596WAT     H183030   5.240   5.126   6.117
27596WAT     H283031   5.203   5.284   6.133
27597WAT      O83032   9.843   8.041   9.029
27597WAT     H183033   9.818   8.073   8.938
27597WAT     H283034   9.864   7.943   9.026
27598WAT      O83035   5.203   9.771   9.097
27598WAT     H183036   5.112   9.730   9.094
27598WAT     H283037   5.273   9.700   9.106
27599WAT      O83038   5.964   1.312   8.448
27599WAT     H183039   5.931   1.267   8.531
27599WAT     H283040   5.950   1.253   8.369
27600WAT      O83041   8.610   8.099   2.435
27600WAT     H183042   8.569   8.028   2.378
27600WAT     H283043   8.691   8.062   2.481
27601WAT      O83044   0.612   8.788   8.707
27601WAT     H183045   0.528   8.757   8.664
27601WAT     H283046   0.688   8.728   8.680
27602WAT      O83047   0.237   7.376   6.076
27602WAT     H183048   0.226   7.351   5.980
27602WAT     H283049   0.293   7.459   6.082
27603WAT      O83050   8.832   2.031   7.561
27603WAT     H183051   8.818   2.024   7.660
27603WAT     H283052   8.918   1.987   7.536
27604WAT      O83053   7.846   3.910   2.919
27604WAT     H183054   7.843   3.842   2.993
27604WAT     H283055   7.876   3.866   2.835
27605WAT      O83056   2.852   4.225   0.277
27605WAT     H183057   2.876   4.247   0.372
27605WAT     H283058   2.763   4.265   0.255
27606WAT      O83059   4.363   2.859   6.787
27606WAT     H183060   4.433   2.882   6.855
27606WAT     H283061   4.289   2.926   6.791
27607WAT      O83062   4.307   6.253   3.196
27607WAT     H183063   4.223   6.271   3.247
27607WAT     H283064   4.336   6.337   3.150
27608WAT      O83065   7.788   0.515   1.616
27608WAT     H183066   7.731   0.434   1.604
27608WAT     H283067   7.860   0.515   1.546
27609WAT      O83068   5.488   4.583   1.025
27609WAT     H183069   5.416   4.525   1.064
27609WAT     H283070   5.499   4.665   1.082
27610WAT      O83071   4.420   1.497   1.028
27610WAT     H183072   4.393   1.582   0.982
27610WAT     H283073   4.367   1.421   0.991
27611WAT      O83074   5.135   1.806   0.792
27611WAT     H183075   5.232   1.823   0.805
27611WAT     H283076   5.121   1.712   0.759
27612WAT      O83077   4.729   2.914   4.292
27612WAT     H183078   4.783   2.968   4.228
27612WAT     H283079   4.789   2.848   4.339
27613WAT      O83080   3.078   3.770   5.011
27613WAT     H183081   3.104   3.682   4.971
27613WAT     H283082   3.117   3.777   5.103
27614WAT      O83083   4.181   1.534   4.199
27614WAT     H183084   4.246   1.526   4.275
27614WAT     H283085   4.121   1.612   4.216
27615WAT      O83086   0.366   1.047   1.282
27615WAT     H183087   0.363   0.947   1.290
27615WAT     H283088   0.391   1.072   1.188
27616WAT      O83089   7.407   7.085   1.904
27616WAT     H183090   7.493   7.040   1.882
27616WAT     H283091   7.342   7.073   1.829
27617WAT      O83092   5.481   3.262   6.757
27617WAT     H183093   5.515   3.197   6.825
27617WAT     H283094   5.391   3.295   6.784
27618WAT      O83095   2.358   9.544   2.940
27618WAT     H183096   2.311   9.456   2.935
27618WAT     H283097   2.447   9.532   2.983
27619WAT      O83098   3.515   9.742   9.263
27619WAT     H183099   3.579   9.770   9.191
27619WAT     H283100   3.538   9.650   9.294
27620WAT      O83101   2.039   8.336   2.603
27620WAT     H183102   2.007   8.334   2.508
27620WAT     H283103   2.134   8.305   2.607
27621WAT      O83104   1.965   5.087   1.337
27621WAT     H183105   1.972   5.112   1.434
27621WAT     H283106   1.964   5.170   1.281
27622WAT      O83107   8.470   2.208   5.209
27622WAT     H183108   8.494   2.300   5.180
27622WAT     H283109   8.372   2.203   5.227
27623WAT      O83110   8.803   1.274   9.558
27623WAT     H183111   8.708   1.303   9.568
27623WAT     H283112   8.841   1.316   9.475
27624WAT      O83113   4.379   6.310   9.832
27624WAT     H183114   4.359   6.398   9.789
27624WAT     H283115   4.451   6.323   9.901
27625WAT      O83116   5.749   3.213   9.248
27625WAT     H183117   5.813   3.153   9.202
27625WAT     H283118   5.777   3.308   9.235
27626WAT      O83119   7.887   1.625   0.292
27626WAT     H183120   7.790   1.612   0.273
27626WAT     H283121   7.935   1.648   0.208
27627WAT      O83122   5.809   5.951   0.935
27627WAT     H183123   5.890   6.001   0.965
27627WAT     H283124   5.735   6.016   0.917
27628WAT      O83125   3.005   5.367   5.439
27628WAT     H183126   2.928   5.420   5.476
27628WAT     H283127   3.074   5.356   5.510
27629WAT      O83128   6.946   2.084   0.371
27629WAT     H183129   6.993   2.101   0.285
27629WAT     H283130   6.963   1.990   0.401
27630WAT      O83131   2.803   3.514   6.235
27630WAT     H183132   2.868   3.566   6.290
27630WAT     H283133   2.778   3.567   6.154
27631WAT      O83134   0.925   0.704   2.200
27631WAT     H183135   0.903   0.712   2.298
27631WAT     H283136   0.868   0.766   2.148
27632WAT      O83137   5.518   6.530   0.078
27632WAT     H183138   5.457   6.550   0.155
27632WAT     H283139   5.611   6.558   0.101
27633WAT      O83140   9.141   0.186   1.175
27633WAT     H183141   9.125   0.142   1.264
27633WAT     H283142   9.055   0.221   1.139
27634WAT      O83143   0.968   3.845   3.372
27634WAT     H183144   1.041   3.911   3.355
27634WAT     H283145   0.886   3.871   3.321
27635WAT      O83146   9.052   6.206   5.764
27635WAT     H183147   9.100   6.133   5.814
27635WAT     H283148   9.110   6.238   5.690
27636WAT      O83149   9.287   6.379   2.270
27636WAT     H183150   9.362   6.326   2.229
27636WAT     H283151   9.215   6.317   2.302
27637WAT      O83152   0.515   5.626   3.124
27637WAT     H183153   0.471   5.607   3.036
27637WAT     H283154   0.580   5.701   3.113
27638WAT      O83155   8.733   8.492   6.337
27638WAT     H183156   8.659   8.548   6.299
27638WAT     H283157   8.816   8.547   6.344
27639WAT      O83158   1.302   3.955   8.469
27639WAT     H183159   1.295   3.924   8.374
27639WAT     H283160   1.247   4.037   8.482
27640WAT      O83161   5.041   8.759   9.558
27640WAT     H183162   5.048   8.668   9.600
27640WAT     H283163   4.963   8.808   9.597
27641WAT      O83164   5.016   5.149   5.723
27641WAT     H183165   4.956   5.183   5.794
27641WAT     H283166   4.974   5.165   5.633
27642WAT      O83167   1.373   5.772   8.138
27642WAT     H183168   1.297   5.719   8.101
27642WAT     H283169   1.453   5.712   8.148
27643WAT      O83170   3.688   8.226   1.911
27643WAT     H183171   3.740   8.309   1.932
27643WAT     H283172   3.628   8.243   1.833
27644WAT      O83173   1.757   2.253   2.220
27644WAT     H183174   1.694   2.273   2.145
27644WAT     H283175   1.830   2.193   2.188
27645WAT      O83176   3.446   8.742   7.778
27645WAT     H183177   3.444   8.642   7.785
27645WAT     H283178   3.483   8.780   7.863
27646WAT      O83179   1.425   3.873  -0.000
27646WAT     H183180   1.434   3.949  -0.065
27646WAT     H283181   1.418   3.910   0.092
27647WAT      O83182   7.254   7.047   1.671
27647WAT     H183183   7.154   7.044   1.681
27647WAT     H283184   7.279   7.022   1.578
27648WAT      O83185   4.845   6.727   1.632
27648WAT     H183186   4.887   6.817   1.617
27648WAT     H283187   4.834   6.711   1.730
27649WAT      O83188   2.999   8.811   3.908
27649WAT     H183189   2.995   8.897   3.959
27649WAT     H283190   3.091   8.774   3.912
27650WAT      O83191   7.581   3.442   0.843
27650WAT     H183192   7.592   3.541   0.848
27650WAT     H283193   7.597   3.401   0.933
27651WAT      O83194   5.616   0.777   9.841
27651WAT     H183195   5.644   0.756   9.935
27651WAT     H283196   5.652   0.867   9.816
27652WAT      O83197   4.495   8.720   3.775
27652WAT     H183198   4.449   8.647   3.826
27652WAT     H283199   4.594   8.713   3.788
27653WAT      O83200   0.103   5.500   6.393
27653WAT     H183201   0.003   5.494   6.401
27653WAT     H283202   0.144   5.488   6.484
27654WAT      O83203   2.158   1.122   9.272
27654WAT     H183204   2.120   1.054   9.335
27654WAT     H283205   2.160   1.084   9.180
27655WAT      O83206   2.470   3.366   3.792
27655WAT     H183207   2.463   3.268   3.775
27655WAT     H283208   2.402   3.415   3.737
27656WAT      O83209   8.068   1.447   5.829
27656WAT     H183210   8.026   1.491   5.750
27656WAT     H283211   8.135   1.379   5.798
27657WAT      O83212   8.013   9.171   8.219
27657WAT     H183213   8.044   9.213   8.134
27657WAT     H283214   8.027   9.072   8.214
27658WAT      O83215   7.544   3.332   1.703
27658WAT     H183216   7.599   3.252   1.723
27658WAT     H283217   7.497   3.320   1.615
27659WAT      O83218   9.651   4.571   5.530
27659WAT     H183219   9.655   4.602   5.625
27659WAT     H283220   9.643   4.650   5.469
27660WAT      O83221   2.597   6.733   8.690
27660WAT     H183222   2.594   6.668   8.614
27660WAT     H283223   2.671   6.799   8.674
27661WAT      O83224   2.450   2.056   6.966
27661WAT     H183225   2.530   2.095   7.012
27661WAT     H283226   2.430   2.108   6.883
27662WAT      O83227   3.751   0.641   8.609
27662WAT     H183228   3.755   0.722   8.551
27662WAT     H283229   3.842   0.623   8.647
27663WAT      O83230   3.614   6.141   1.441
27663WAT     H183231   3.679   6.216   1.429
27663WAT     H283232   3.585   6.136   1.536
27664WAT      O83233   5.624   2.547   5.763
27664WAT     H183234   5.689   2.473   5.779
27664WAT     H283235   5.531   2.511   5.767
27665WAT      O83236   4.278   7.076   8.602
27665WAT     H183237   4.293   6.989   8.648
27665WAT     H283238   4.253   7.146   8.669
27666WAT      O83239   7.737   1.999   5.632
27666WAT     H183240   7.822   1.995   5.578
27666WAT     H283241   7.661   2.019   5.571
27667WAT      O83242   0.090   1.812   3.795
27667WAT     H183243   0.137   1.802   3.882
27667WAT     H283244   0.077   1.722   3.753
27668WAT      O83245   5.376   6.900   3.316
27668WAT     H183246   5.427   6.976   3.355
27668WAT     H283247   5.326   6.931   3.235
27669WAT      O83248   0.373   0.128   7.441
27669WAT     H183249   0.407   0.137   7.348
27669WAT     H283250   0.370   0.032   7.467
27670WAT      O83251   5.795   6.397   3.999
27670WAT     H183252   5.892   6.415   3.978
27670WAT     H283253   5.768   6.448   4.080
27671WAT      O83254   4.894   5.057   1.279
27671WAT     H183255   4.950   5.126   1.325
27671WAT     H283256   4.945   4.972   1.273
27672WAT      O83257   6.190   8.823   6.209
27672WAT     H183258   6.140   8.737   6.198
27672WAT     H283259   6.281   8.814   6.168
27673WAT      O83260   5.279   4.824   1.656
27673WAT     H183261   5.290   4.832   1.755
27673WAT     H283262   5.340   4.752   1.622
27674WAT      O83263   7.682   7.141   8.353
27674WAT     H183264   7.714   7.111   8.442
27674WAT     H283265   7.596   7.191   8.363
27675WAT      O83266   4.597   0.412   4.164
27675WAT     H183267   4.548   0.364   4.091
27675WAT     H283268   4.618   0.505   4.134
27676WAT      O83269   9.581   1.008   2.982
27676WAT     H183270   9.545   0.915   2.971
27676WAT     H283271   9.634   1.012   3.067
27677WAT      O83272   2.369   4.278   1.356
27677WAT     H183273   2.404   4.193   1.318
27677WAT     H283274   2.373   4.275   1.455
27678WAT      O83275   3.505   3.055   9.467
27678WAT     H183276   3.406   3.045   9.471
27678WAT     H283277   3.529   3.131   9.407
27679WAT      O83278   1.923   8.716   9.319
27679WAT     H183279   2.012   8.699   9.360
27679WAT     H283280   1.905   8.815   9.317
27680WAT      O83281   2.620   3.154   7.517
27680WAT     H183282   2.583   3.167   7.609
27680WAT     H283283   2.713   3.191   7.513
27681WAT      O83284   7.784   9.393   2.457
27681WAT     H183285   7.725   9.367   2.534
27681WAT     H283286   7.730   9.442   2.389
27682WAT      O83287   5.099   6.285   0.737
27682WAT     H183288   5.010   6.330   0.738
27682WAT     H283289   5.168   6.348   0.771
27683WAT      O83290   4.297   7.705   6.798
27683WAT     H183291   4.358   7.628   6.780
27683WAT     H283292   4.252   7.692   6.887
27684WAT      O83293   5.640   5.845   6.154
27684WAT     H183294   5.608   5.873   6.245
27684WAT     H283295   5.716   5.903   6.126
27685WAT      O83296   4.110   2.670   2.740
27685WAT     H183297   4.073   2.760   2.761
27685WAT     H283298   4.190   2.680   2.681
27686WAT      O83299   3.771   0.861   9.759
27686WAT     H183300   3.744   0.815   9.843
27686WAT     H283301   3.851   0.816   9.720
27687WAT      O83302   7.148   1.754   4.480
27687WAT     H183303   7.196   1.688   4.422
27687WAT     H283304   7.050   1.736   4.476
27688WAT      O83305   9.872   2.969   3.045
27688WAT     H183306   9.862   2.883   3.094
27688WAT     H283307   9.951   3.019   3.082
27689WAT      O83308   8.930   4.331   6.544
27689WAT     H183309   8.902   4.318   6.639
27689WAT     H283310   8.919   4.428   6.520
27690WAT      O83311   2.418   6.778   4.076
27690WAT     H183312   2.495   6.753   4.017
27690WAT     H283313   2.379   6.696   4.116
27691WAT      O83314   1.919   3.819   7.556
27691WAT     H183315   2.001   3.784   7.602
27691WAT     H283316   1.945   3.892   7.493
27692WAT      O83317   1.548   9.408   2.027
27692WAT     H183318   1.602   9.324   2.017
27692WAT     H283319   1.460   9.397   1.982
27693WAT      O83320   2.653   1.225   3.341
27693WAT     H183321   2.712   1.298   3.307
27693WAT     H283322   2.707   1.142   3.356
27694WAT      O83323   4.909   0.279   0.742
27694WAT     H183324   4.917   0.234   0.830
27694WAT     H283325   5.000   0.290   0.701
27695WAT      O83326   3.792   5.657   7.353
27695WAT     H183327   3.851   5.695   7.424
27695WAT     H283328   3.710   5.619   7.396
27696WAT      O83329   6.066   1.170   7.953
27696WAT     H183330   6.135   1.099   7.962
27696WAT     H283331   6.059   1.197   7.857
27697WAT      O83332   8.840   3.775   1.601
27697WAT     H183333   8.933   3.813   1.605
27697WAT     H283334   8.844   3.684   1.558
27698WAT      O83335   4.024   9.273   5.122
27698WAT     H183336   3.946   9.270   5.184
27698WAT     H283337   4.036   9.367   5.089
27699WAT      O83338   3.686   7.765   3.945
27699WAT     H183339   3.649   7.687   3.994
27699WAT     H283340   3.784   7.750   3.928
27700WAT      O83341   0.779   1.720   3.407
27700WAT     H183342   0.737   1.798   3.361
27700WAT     H283343   0.877   1.718   3.387
27701WAT      O83344   6.854   0.773   8.822
27701WAT     H183345   6.903   0.853   8.787
27701WAT     H283346   6.778   0.804   8.879
27702WAT      O83347   3.052   4.721   1.713
27702WAT     H183348   3.151   4.706   1.711
27702WAT     H283349   3.031   4.800   1.770
27703WAT      O83350   4.511   7.054   7.946
27703WAT     H183351   4.545   7.024   7.857
27703WAT     H283352   4.563   7.134   7.976
27704WAT      O83353   3.700   4.401   7.939
27704WAT     H183354   3.687   4.497   7.964
27704WAT     H283355   3.655   4.343   8.007
27705WAT      O83356   4.591   6.342   0.883
27705WAT     H183357   4.551   6.381   0.800
27705WAT     H283358   4.570   6.400   0.961
27706WAT      O83359   4.012   4.510   9.269
27706WAT     H183360   4.032   4.598   9.226
27706WAT     H283361   3.958   4.525   9.352
27707WAT      O83362   2.029   8.530   7.130
27707WAT     H183363   2.127   8.516   7.114
27707WAT     H283364   1.982   8.441   7.130
27708WAT      O83365   4.602   2.196   5.012
27708WAT     H183366   4.518   2.147   5.037
27708WAT     H283367   4.642   2.154   4.930
27709WAT      O83368   7.902   9.415   0.210
27709WAT     H183369   7.949   9.501   0.189
27709WAT     H283370   7.809   9.435   0.242
27710WAT      O83371   4.008   5.203   9.237
27710WAT     H183372   4.018   5.252   9.150
27710WAT     H283373   3.974   5.265   9.307
27711WAT      O83374   2.327   4.781   1.418
27711WAT     H183375   2.319   4.694   1.370
27711WAT     H283376   2.412   4.782   1.471
27712WAT      O83377   0.239   1.211   7.597
27712WAT     H183378   0.282   1.121   7.590
27712WAT     H283379   0.162   1.217   7.534
27713WAT      O83380   6.520   2.739   5.818
27713WAT     H183381   6.522   2.830   5.775
27713WAT     H283382   6.438   2.691   5.789
27714WAT      O83383   4.037   8.945   5.299
27714WAT     H183384   4.114   8.962   5.362
27714WAT     H283385   3.964   9.011   5.317
27715WAT      O83386   6.309   8.042   1.070
27715WAT     H183387   6.379   8.113   1.060
27715WAT     H283388   6.242   8.071   1.138
27716WAT      O83389   2.687   6.403   7.696
27716WAT     H183390   2.781   6.433   7.678
27716WAT     H283391   2.672   6.313   7.655
27717WAT      O83392   7.414   1.092   5.173
27717WAT     H183393   7.472   1.128   5.100
27717WAT     H283394   7.340   1.039   5.133
27718WAT      O83395   1.484   5.815   9.371
27718WAT     H183396   1.581   5.790   9.377
27718WAT     H283397   1.428   5.734   9.381
27719WAT      O83398   6.720   8.889   3.411
27719WAT     H183399   6.741   8.877   3.314
27719WAT     H283400   6.797   8.936   3.456
27720WAT      O83401   3.146   2.763   0.874
27720WAT     H183402   3.218   2.759   0.944
27720WAT     H283403   3.086   2.684   0.884
27721WAT      O83404   9.559   5.943   5.628
27721WAT     H183405   9.535   5.847   5.640
27721WAT     H283406   9.636   5.950   5.564
27722WAT      O83407   8.571   5.764   3.775
27722WAT     H183408   8.515   5.843   3.798
27722WAT     H283409   8.652   5.762   3.835
27723WAT      O83410   0.037   4.086   4.232
27723WAT     H183411   0.033   4.051   4.138
27723WAT     H283412  -0.047   4.135   4.253
27724WAT      O83413   8.966   5.440   2.515
27724WAT     H183414   9.043   5.499   2.490
27724WAT     H283415   8.935   5.390   2.434
27725WAT      O83416   5.215   3.021   8.368
27725WAT     H183417   5.178   2.931   8.343
27725WAT     H283418   5.223   3.026   8.468
27726WAT      O83419   8.925   2.834   5.656
27726WAT     H183420   8.941   2.764   5.726
27726WAT     H283421   8.871   2.909   5.695
27727WAT      O83422   8.536   6.130   4.773
27727WAT     H183423   8.494   6.057   4.827
27727WAT     H283424   8.506   6.219   4.807
27728WAT      O83425   8.747   6.535   0.623
27728WAT     H183426   8.683   6.519   0.548
27728WAT     H283427   8.810   6.609   0.599
27729WAT      O83428   7.444   1.534   7.812
27729WAT     H183429   7.352   1.570   7.823
27729WAT     H283430   7.443   1.435   7.826
27730WAT      O83431   3.712   2.079   4.199
27730WAT     H183432   3.648   2.153   4.219
27730WAT     H283433   3.806   2.113   4.207
27731WAT      O83434   4.045   9.551   2.634
27731WAT     H183435   4.142   9.568   2.645
27731WAT     H283436   4.030   9.498   2.550
27732WAT      O83437   1.671   1.756   8.952
27732WAT     H183438   1.728   1.674   8.961
27732WAT     H283439   1.729   1.837   8.962
27733WAT      O83440   1.387   9.316   5.001
27733WAT     H183441   1.338   9.372   5.068
27733WAT     H283442   1.322   9.274   4.939
27734WAT      O83443   1.911   1.662   7.891
27734WAT     H183444   1.935   1.565   7.891
27734WAT     H283445   1.976   1.713   7.835
27735WAT      O83446   6.305   1.635   0.186
27735WAT     H183447   6.306   1.560   0.119
27735WAT     H283448   6.397   1.649   0.222
27736WAT      O83449   0.557   9.485   9.551
27736WAT     H183450   0.472   9.537   9.558
27736WAT     H283451   0.623   9.519   9.619
27737WAT      O83452   8.663   1.235   8.494
27737WAT     H183453   8.726   1.307   8.465
27737WAT     H283454   8.688   1.202   8.585
27738WAT      O83455   9.166   5.782   8.872
27738WAT     H183456   9.164   5.728   8.956
27738WAT     H283457   9.254   5.769   8.826
27739WAT      O83458   5.622   4.367   2.598
27739WAT     H183459   5.633   4.408   2.508
27739WAT     H283460   5.645   4.270   2.594
27740WAT      O83461   3.077   0.151   6.902
27740WAT     H183462   3.121   0.171   6.990
27740WAT     H283463   3.112   0.213   6.832
27741WAT      O83464   1.518   9.162   7.125
27741WAT     H183465   1.466   9.210   7.196
27741WAT     H283466   1.552   9.228   7.059
27742WAT      O83467   5.702   4.900   8.490
27742WAT     H183468   5.621   4.844   8.506
27742WAT     H283469   5.676   4.997   8.491
27743WAT      O83470   6.144   2.172   3.807
27743WAT     H183471   6.216   2.234   3.774
27743WAT     H283472   6.150   2.164   3.906
27744WAT      O83473   7.240   4.182   5.250
27744WAT     H183474   7.233   4.092   5.206
27744WAT     H283475   7.202   4.177   5.342
27745WAT      O83476   7.251   3.845   1.143
27745WAT     H183477   7.339   3.802   1.123
27745WAT     H283478   7.202   3.789   1.209
27746WAT      O83479   6.674   7.747   9.462
27746WAT     H183480   6.669   7.842   9.430
27746WAT     H283481   6.660   7.685   9.384
27747WAT      O83482   9.542   4.965   2.628
27747WAT     H183483   9.545   5.050   2.576
27747WAT     H283484   9.634   4.926   2.634
27748WAT      O83485   5.641   2.571   8.816
27748WAT     H183486   5.639   2.595   8.719
27748WAT     H283487   5.586   2.637   8.867
27749WAT      O83488   1.276   9.116   5.957
27749WAT     H183489   1.204   9.088   6.021
27749WAT     H283490   1.314   9.035   5.913
27750WAT      O83491   5.057   7.133   4.751
27750WAT     H183492   5.043   7.040   4.715
27750WAT     H283493   5.131   7.177   4.700
27751WAT      O83494   4.560   4.415   9.482
27751WAT     H183495   4.550   4.515   9.491
27751WAT     H283496   4.656   4.393   9.462
27752WAT      O83497   1.481   0.926   8.673
27752WAT     H183498   1.470   0.988   8.595
27752WAT     H283499   1.566   0.874   8.661
27753WAT      O83500   2.139   1.042   7.876
27753WAT     H183501   2.153   1.112   7.946
27753WAT     H283502   2.225   1.023   7.829
27754WAT      O83503   6.787   1.251   6.825
27754WAT     H183504   6.841   1.336   6.824
27754WAT     H283505   6.820   1.190   6.753
27755WAT      O83506   5.340   4.140   7.655
27755WAT     H183507   5.412   4.118   7.588
27755WAT     H283508   5.268   4.192   7.610
27756WAT      O83509   1.602   2.306   1.995
27756WAT     H183510   1.622   2.369   1.920
27756WAT     H283511   1.561   2.223   1.957
27757WAT      O83512   4.666   4.622   3.260
27757WAT     H183513   4.648   4.703   3.317
27757WAT     H283514   4.696   4.546   3.318
27758WAT      O83515   7.866   1.318   3.702
27758WAT     H183516   7.831   1.363   3.619
27758WAT     H283517   7.960   1.290   3.688
27759WAT      O83518   1.766   2.094   3.108
27759WAT     H183519   1.690   2.104   3.044
27759WAT     H283520   1.808   2.183   3.124
27760WAT      O83521   3.886   5.473   6.809
27760WAT     H183522   3.941   5.523   6.876
27760WAT     H283523   3.946   5.425   6.746
27761WAT      O83524   7.093   1.137   5.082
27761WAT     H183525   7.086   1.059   5.144
27761WAT     H283526   7.019   1.132   5.014
27762WAT      O83527   2.589   9.316   1.670
27762WAT     H183528   2.602   9.249   1.743
27762WAT     H283529   2.541   9.396   1.705
27763WAT      O83530   6.240   9.058   5.875
27763WAT     H183531   6.215   8.964   5.850
27763WAT     H283532   6.161   9.118   5.860
27764WAT      O83533   3.196   9.005   8.870
27764WAT     H183534   3.168   9.070   8.799
27764WAT     H283535   3.273   8.951   8.837
27765WAT      O83536   5.730   1.000   8.830
27765WAT     H183537   5.688   0.986   8.741
27765WAT     H283538   5.686   1.078   8.876
27766WAT      O83539   4.046   8.454   1.788
27766WAT     H183540   4.124   8.404   1.825
27766WAT     H283541   3.999   8.398   1.720
27767WAT      O83542   2.415   0.433   7.680
27767WAT     H183543   2.357   0.364   7.636
27767WAT     H283544   2.358   0.494   7.734
27768WAT      O83545   5.378   0.233   7.610
27768WAT     H183546   5.440   0.157   7.591
27768WAT     H283547   5.407   0.314   7.559
27769WAT      O83548   1.348   6.618   4.331
27769WAT     H183549   1.291   6.662   4.401
27769WAT     H283550   1.441   6.654   4.336
27770WAT      O83551   5.247   1.111   5.615
27770WAT     H183552   5.254   1.182   5.684
27770WAT     H283553   5.151   1.083   5.606
27771WAT      O83554   9.782   4.724   4.988
27771WAT     H183555   9.813   4.725   4.893
27771WAT     H283556   9.683   4.708   4.991
27772WAT      O83557   8.201   0.848   2.381
27772WAT     H183558   8.171   0.756   2.359
27772WAT     H283559   8.239   0.892   2.299
27773WAT      O83560   1.483   7.571   8.938
27773WAT     H183561   1.552   7.638   8.908
27773WAT     H283562   1.402   7.578   8.879
27774WAT      O83563   7.882   0.993   0.724
27774WAT     H183564   7.797   1.042   0.703
27774WAT     H283565   7.955   1.028   0.665
27775WAT      O83566   1.019   3.094   8.687
27775WAT     H183567   1.026   3.167   8.755
27775WAT     H283568   1.075   3.016   8.716
27776WAT      O83569   6.507   3.870   2.671
27776WAT     H183570   6.535   3.947   2.613
27776WAT     H283571   6.579   3.800   2.671
27777WAT      O83572   2.313   2.954   6.068
27777WAT     H183573   2.389   3.015   6.050
27777WAT     H283574   2.253   2.994   6.138
27778WAT      O83575   1.853   8.089   1.066
27778WAT     H183576   1.866   8.116   0.970
27778WAT     H283577   1.760   8.112   1.095
27779WAT      O83578   5.282   4.096   2.917
27779WAT     H183579   5.187   4.111   2.889
27779WAT     H283580   5.335   4.179   2.902
27780WAT      O83581   1.674   2.436   3.861
27780WAT     H183582   1.656   2.340   3.836
27780WAT     H283583   1.697   2.487   3.779
27781WAT      O83584   6.454   8.263   1.071
27781WAT     H183585   6.401   8.329   1.017
27781WAT     H283586   6.531   8.230   1.017
27782WAT      O83587   4.105   6.076   4.620
27782WAT     H183588   4.024   6.020   4.637
27782WAT     H283589   4.088   6.171   4.648
27783WAT      O83590   5.377   3.945   6.780
27783WAT     H183591   5.472   3.967   6.759
27783WAT     H283592   5.373   3.890   6.863
27784WAT      O83593   5.246   4.385   1.112
27784WAT     H183594   5.180   4.380   1.037
27784WAT     H283595   5.325   4.326   1.091
27785WAT      O83596   5.427   6.071   6.632
27785WAT     H183597   5.363   6.106   6.564
27785WAT     H283598   5.378   6.012   6.697
27786WAT      O83599   2.577   0.566   0.332
27786WAT     H183600   2.603   0.518   0.248
27786WAT     H283601   2.480   0.548   0.352
27787WAT      O83602   7.532   2.175   7.231
27787WAT     H183603   7.500   2.120   7.154
27787WAT     H283604   7.457   2.230   7.267
27788WAT      O83605   3.290   6.916   2.078
27788WAT     H183606   3.315   7.013   2.087
27788WAT     H283607   3.192   6.909   2.060
27789WAT      O83608   8.067   4.942   4.943
27789WAT     H183609   8.159   4.973   4.967
27789WAT     H283610   8.015   5.019   4.907
27790WAT      O83611   3.219   3.371   6.625
27790WAT     H183612   3.254   3.288   6.670
27790WAT     H283613   3.125   3.388   6.656
27791WAT      O83614   1.755   6.680   5.958
27791WAT     H183615   1.791   6.605   5.903
27791WAT     H283616   1.655   6.673   5.963
27792WAT      O83617   7.095   9.377   1.966
27792WAT     H183618   7.058   9.454   2.017
27792WAT     H283619   7.160   9.328   2.024
27793WAT      O83620   5.304   9.425   3.543
27793WAT     H183621   5.282   9.461   3.634
27793WAT     H283622   5.403   9.424   3.530
27794WAT      O83623   9.576   9.417   5.323
27794WAT     H183624   9.588   9.492   5.389
27794WAT     H283625   9.531   9.340   5.368
27795WAT      O83626   4.714   6.569   2.274
27795WAT     H183627   4.656   6.629   2.219
27795WAT     H283628   4.709   6.596   2.370
27796WAT      O83629   8.399   0.136   3.006
27796WAT     H183630   8.361   0.217   2.961
27796WAT     H283631   8.401   0.060   2.941
27797WAT      O83632   1.137   3.691   0.814
27797WAT     H183633   1.233   3.676   0.788
27797WAT     H283634   1.132   3.717   0.911
27798WAT      O83635   3.864   7.946   3.017
27798WAT     H183636   3.918   7.955   2.934
27798WAT     H283637   3.774   7.908   2.995
27799WAT      O83638   8.379   0.702   9.252
27799WAT     H183639   8.451   0.688   9.185
27799WAT     H283640   8.352   0.614   9.291
27800WAT      O83641   2.696   4.548   9.731
27800WAT     H183642   2.613   4.555   9.675
27800WAT     H283643   2.697   4.621   9.799
27801WAT      O83644   2.578   1.857   4.860
27801WAT     H183645   2.632   1.772   4.860
27801WAT     H283646   2.482   1.835   4.877
27802WAT      O83647   7.388   3.478   3.937
27802WAT     H183648   7.336   3.563   3.927
27802WAT     H283649   7.464   3.477   3.871
27803WAT      O83650   2.033   8.873   0.008
27803WAT     H183651   2.004   8.951  -0.047
27803WAT     H283652   2.119   8.895   0.055
27804WAT      O83653   4.507   2.602   9.317
27804WAT     H183654   4.577   2.670   9.294
27804WAT     H283655   4.526   2.517   9.267
27805WAT      O83656   1.568   3.834   6.376
27805WAT     H183657   1.631   3.791   6.312
27805WAT     H283658   1.537   3.922   6.338
27806WAT      O83659   6.847   2.012   9.680
27806WAT     H183660   6.907   2.011   9.760
27806WAT     H283661   6.752   2.027   9.709
27807WAT      O83662   6.988   6.409   0.419
27807WAT     H183663   7.083   6.385   0.400
27807WAT     H283664   6.984   6.482   0.486
27808WAT      O83665   9.637   4.658   5.800
27808WAT     H183666   9.649   4.615   5.889
27808WAT     H283667   9.620   4.756   5.812
27809WAT      O83668   4.913   7.626   9.251
27809WAT     H183669   4.904   7.599   9.347
27809WAT     H283670   4.941   7.722   9.246
27810WAT      O83671   7.082   8.827   9.072
27810WAT     H183672   7.097   8.911   9.125
27810WAT     H283673   7.148   8.758   9.101
27811WAT      O83674   9.589   5.712   7.638
27811WAT     H183675   9.508   5.687   7.584
27811WAT     H283676   9.668   5.660   7.606
27812WAT      O83677   0.009   0.348   1.263
27812WAT     H183678   0.109   0.343   1.260
27812WAT     H283679  -0.029   0.288   1.193
27813WAT      O83680   8.776   6.302   6.502
27813WAT     H183681   8.769   6.339   6.595
27813WAT     H283682   8.868   6.266   6.487
27814WAT      O83683   1.357   8.138   4.242
27814WAT     H183684   1.381   8.084   4.162
27814WAT     H283685   1.264   8.118   4.270
27815WAT      O83686   5.937   2.526   7.638
27815WAT     H183687   5.950   2.543   7.735
27815WAT     H283688   6.004   2.579   7.586
27816WAT      O83689   3.844   9.742   9.515
27816WAT     H183690   3.852   9.660   9.458
27816WAT     H283691   3.775   9.728   9.585
27817WAT      O83692   2.319   5.462   9.088
27817WAT     H183693   2.351   5.555   9.106
27817WAT     H283694   2.230   5.466   9.041
27818WAT      O83695   2.163   3.046   1.990
27818WAT     H183696   2.104   3.104   2.046
27818WAT     H283697   2.250   3.032   2.038
27819WAT      O83698   5.786   6.254   3.765
27819WAT     H183699   5.760   6.295   3.853
27819WAT     H283700   5.750   6.161   3.760
27820WAT      O83701   0.415   0.794   1.245
27820WAT     H183702   0.508   0.809   1.213
27820WAT     H283703   0.409   0.706   1.293
27821WAT      O83704   5.143   0.393   8.645
27821WAT     H183705   5.106   0.441   8.566
27821WAT     H283706   5.221   0.336   8.617
27822WAT      O83707   9.077   1.986   4.030
27822WAT     H183708   9.161   1.938   4.005
27822WAT     H283709   9.038   1.946   4.113
27823WAT      O83710   3.572   8.367   1.375
27823WAT     H183711   3.545   8.462   1.388
27823WAT     H283712   3.652   8.363   1.315
27824WAT      O83713   1.269   4.783   6.939
27824WAT     H183714   1.237   4.711   7.000
27824WAT     H283715   1.234   4.767   6.846
27825WAT      O83716   9.700   0.342   9.604
27825WAT     H183717   9.792   0.370   9.578
27825WAT     H283718   9.702   0.304   9.697
27826WAT      O83719   8.155   0.809   7.522
27826WAT     H183720   8.203   0.877   7.467
27826WAT     H283721   8.151   0.839   7.617
27827WAT      O83722   3.948   0.798   8.933
27827WAT     H183723   3.867   0.752   8.972
27827WAT     H283724   3.921   0.888   8.899
27828WAT      O83725   6.110   2.233   2.829
27828WAT     H183726   6.062   2.205   2.746
27828WAT     H283727   6.090   2.168   2.902
27829WAT      O83728   0.851   4.079   5.265
27829WAT     H183729   0.890   3.988   5.254
27829WAT     H283730   0.891   4.141   5.197
27830WAT      O83731   6.221   0.377   3.307
27830WAT     H183732   6.220   0.425   3.395
27830WAT     H283733   6.234   0.442   3.233
27831WAT      O83734   1.921   1.222   2.638
27831WAT     H183735   1.932   1.125   2.614
27831WAT     H283736   1.992   1.248   2.703
27832WAT      O83737   8.135   7.726   3.365
27832WAT     H183738   8.199   7.700   3.293
27832WAT     H283739   8.102   7.819   3.348
27833WAT      O83740   2.318   1.818   4.912
27833WAT     H183741   2.297   1.905   4.958
27833WAT     H283742   2.264   1.745   4.954
27834WAT      O83743   5.719   8.943   1.868
27834WAT     H183744   5.761   8.853   1.857
27834WAT     H283745   5.688   8.954   1.962
27835WAT      O83746   9.558   3.169   0.494
27835WAT     H183747   9.519   3.174   0.402
27835WAT     H283748   9.548   3.257   0.539
27836WAT      O83749   2.488   2.626   9.534
27836WAT     H183750   2.579   2.585   9.544
27836WAT     H283751   2.430   2.565   9.480
27837WAT      O83752   8.513   5.434   7.907
27837WAT     H183753   8.529   5.522   7.862
27837WAT     H283754   8.585   5.417   7.974
27838WAT      O83755   0.158   2.628   3.054
27838WAT     H183756   0.197   2.664   2.969
27838WAT     H283757   0.231   2.621   3.122
27839WAT      O83758   2.363   8.616   3.267
27839WAT     H183759   2.335   8.521   3.282
27839WAT     H283760   2.456   8.618   3.232
27840WAT      O83761   8.018   2.624   4.566
27840WAT     H183762   8.071   2.587   4.489
27840WAT     H283763   8.051   2.715   4.588
27841WAT      O83764   0.682   8.886   7.871
27841WAT     H183765   0.658   8.976   7.907
27841WAT     H283766   0.741   8.896   7.790
27842WAT      O83767   4.132   4.066   0.510
27842WAT     H183768   4.132   3.990   0.446
27842WAT     H283769   4.180   4.040   0.594
27843WAT      O83770   9.829   9.551   5.694
27843WAT     H183771   9.895   9.622   5.720
27843WAT     H283772   9.871   9.492   5.625
27844WAT      O83773   3.469   1.753   2.034
27844WAT     H183774   3.513   1.767   2.123
27844WAT     H283775   3.428   1.839   2.003
27845WAT      O83776   2.858   4.239   7.706
27845WAT     H183777   2.900   4.193   7.628
27845WAT     H283778   2.799   4.313   7.674
27846WAT      O83779   2.389   5.777   5.794
27846WAT     H183780   2.354   5.849   5.733
27846WAT     H283781   2.340   5.692   5.777
27847WAT      O83782   2.783   0.785   7.468
27847WAT     H183783   2.727   0.782   7.385
27847WAT     H283784   2.739   0.730   7.540
27848WAT      O83785   4.429   0.539   8.372
27848WAT     H183786   4.528   0.524   8.372
27848WAT     H283787   4.398   0.558   8.280
27849WAT      O83788   5.144   9.441   4.331
27849WAT     H183789   5.065   9.410   4.384
27849WAT     H283790   5.221   9.457   4.393
27850WAT      O83791   4.359   3.676   4.465
27850WAT     H183792   4.268   3.684   4.507
27850WAT     H283793   4.385   3.580   4.460
27851WAT      O83794   9.738   5.630   0.354
27851WAT     H183795   9.763   5.551   0.411
27851WAT     H283796   9.766   5.714   0.400
27852WAT      O83797   3.014   6.978   0.345
27852WAT     H183798   3.073   7.051   0.380
27852WAT     H283799   2.960   7.013   0.268
27853WAT      O83800   7.402   9.372   0.496
27853WAT     H183801   7.334   9.369   0.570
27853WAT     H283802   7.494   9.362   0.534
27854WAT      O83803   9.399   9.098   2.450
27854WAT     H183804   9.313   9.145   2.465
27854WAT     H283805   9.398   9.010   2.497
27855WAT      O83806   2.633   6.092   8.135
27855WAT     H183807   2.622   6.142   8.049
27855WAT     H283808   2.545   6.052   8.162
27856WAT      O83809   3.144   7.628   6.275
27856WAT     H183810   3.242   7.629   6.294
27856WAT     H283811   3.094   7.657   6.356
27857WAT      O83812   3.611   1.346   9.571
27857WAT     H183813   3.522   1.323   9.611
27857WAT     H283814   3.679   1.352   9.643
27858WAT      O83815   2.094   7.570   8.860
27858WAT     H183816   2.121   7.637   8.929
27858WAT     H283817   2.168   7.504   8.848
27859WAT      O83818   0.668   1.363   4.402
27859WAT     H183819   0.681   1.424   4.325
27859WAT     H283820   0.719   1.398   4.481
27860WAT      O83821   5.187   2.112   1.837
27860WAT     H183822   5.114   2.089   1.901
27860WAT     H283823   5.268   2.057   1.859
27861WAT      O83824   9.122   1.024   7.749
27861WAT     H183825   9.105   1.109   7.699
27861WAT     H283826   9.204   1.034   7.805
27862WAT      O83827   4.928   8.430   0.378
27862WAT     H183828   4.912   8.506   0.315
27862WAT     H283829   4.843   8.378   0.389
27863WAT      O83830   1.706   9.457   4.932
27863WAT     H183831   1.715   9.365   4.894
27863WAT     H283832   1.766   9.465   5.013
27864WAT      O83833   5.643   1.536   7.711
27864WAT     H183834   5.674   1.501   7.799
27864WAT     H283835   5.560   1.487   7.683
27865WAT      O83836   5.737   7.738   7.391
27865WAT     H183837   5.808   7.746   7.461
27865WAT     H283838   5.744   7.649   7.347
27866WAT      O83839   5.365   9.334   1.502
27866WAT     H183840   5.387   9.266   1.432
27866WAT     H283841   5.409   9.308   1.588
27867WAT      O83842   2.771   6.424   3.892
27867WAT     H183843   2.739   6.411   3.799
27867WAT     H283844   2.743   6.515   3.925
27868WAT      O83845   7.936   6.882   2.609
27868WAT     H183846   7.969   6.975   2.593
27868WAT     H283847   7.907   6.873   2.705
27869WAT      O83848   0.742   0.284   5.494
27869WAT     H183849   0.747   0.383   5.480
27869WAT     H283850   0.825   0.253   5.540
27870WAT      O83851   5.317   8.246   5.922
27870WAT     H183852   5.231   8.204   5.952
27870WAT     H283853   5.320   8.248   5.822
27871WAT      O83854   9.389   2.453   4.035
27871WAT     H183855   9.432   2.541   4.053
27871WAT     H283856   9.438   2.381   4.082
27872WAT      O83857   0.044   7.451   9.784
27872WAT     H183858   0.021   7.454   9.686
27872WAT     H283859  -0.038   7.429   9.837
27873WAT      O83860   8.657   2.317   0.059
27873WAT     H183861   8.648   2.329   0.158
27873WAT     H283862   8.681   2.221   0.040
27874WAT      O83863   6.711   0.373   5.975
27874WAT     H183864   6.620   0.348   5.942
27874WAT     H283865   6.769   0.291   5.980
27875WAT      O83866   1.203   7.831   2.607
27875WAT     H183867   1.156   7.838   2.694
27875WAT     H283868   1.149   7.875   2.535
27876WAT      O83869   0.499   1.028   8.938
27876WAT     H183870   0.418   0.970   8.931
27876WAT     H283871   0.581   0.973   8.925
27877WAT      O83872   9.622   6.453   9.344
27877WAT     H183873   9.525   6.429   9.333
27877WAT     H283874   9.671   6.376   9.384
27878WAT      O83875   0.788   1.917   3.135
27878WAT     H183876   0.712   1.947   3.194
27878WAT     H283877   0.872   1.964   3.164
27879WAT      O83878   6.218   1.517   6.477
27879WAT     H183879   6.142   1.579   6.494
27879WAT     H283880   6.221   1.494   6.379
27880WAT      O83881   5.318   8.245   5.652
27880WAT     H183882   5.340   8.147   5.650
27880WAT     H283883   5.383   8.295   5.595
27881WAT      O83884   8.334   6.830   9.118
27881WAT     H183885   8.394   6.910   9.111
27881WAT     H283886   8.277   6.824   9.036
27882WAT      O83887   9.854   2.122   1.668
27882WAT     H183888   9.908   2.197   1.707
27882WAT     H283889   9.890   2.035   1.701
27883WAT      O83890   1.715   1.502   3.128
27883WAT     H183891   1.756   1.559   3.057
27883WAT     H283892   1.766   1.514   3.213
27884WAT      O83893   0.668   8.551   4.364
27884WAT     H183894   0.582   8.596   4.343
27884WAT     H283895   0.741   8.590   4.307
27885WAT      O83896   0.263   2.373   0.737
27885WAT     H183897   0.216   2.416   0.813
27885WAT     H283898   0.198   2.318   0.684
27886WAT      O83899   6.594   4.874   7.747
27886WAT     H183900   6.559   4.963   7.776
27886WAT     H283901   6.615   4.818   7.827
27887WAT      O83902   9.641   6.733   2.744
27887WAT     H183903   9.697   6.811   2.716
27887WAT     H283904   9.564   6.722   2.681
27888WAT      O83905   7.185   4.768   2.103
27888WAT     H183906   7.102   4.747   2.052
27888WAT     H283907   7.176   4.857   2.148
27889WAT      O83908   7.794   2.503   8.092
27889WAT     H183909   7.872   2.561   8.068
27889WAT     H283910   7.787   2.495   8.191
27890WAT      O83911   6.575   3.404   4.790
27890WAT     H183912   6.536   3.422   4.700
27890WAT     H283913   6.521   3.334   4.837
27891WAT      O83914   1.223   2.973   8.356
27891WAT     H183915   1.211   2.883   8.398
27891WAT     H283916   1.162   3.039   8.401
27892WAT      O83917   9.023   1.960   4.833
27892WAT     H183918   8.927   1.958   4.860
27892WAT     H283919   9.031   1.937   4.736
27893WAT      O83920   8.921   7.167   5.785
27893WAT     H183921   9.012   7.140   5.751
27893WAT     H283922   8.920   7.161   5.884
27894WAT      O83923   6.872   5.604   0.768
27894WAT     H183924   6.884   5.611   0.669
27894WAT     H283925   6.812   5.526   0.789
27895WAT      O83926   1.005   0.406   3.204
27895WAT     H183927   0.970   0.496   3.180
27895WAT     H283928   0.945   0.335   3.166
27896WAT      O83929   1.590   5.085   3.475
27896WAT     H183930   1.492   5.082   3.495
27896WAT     H283931   1.605   5.056   3.381
27897WAT      O83932   5.448   8.109   6.830
27897WAT     H183933   5.491   8.031   6.786
27897WAT     H283934   5.350   8.093   6.839
27898WAT      O83935   0.761   4.777   6.063
27898WAT     H183936   0.794   4.804   5.972
27898WAT     H283937   0.780   4.850   6.128
27899WAT      O83938   6.062   7.004   8.011
27899WAT     H183939   6.094   7.036   8.100
27899WAT     H283940   6.125   6.936   7.975
27900WAT      O83941   1.183   1.901   1.324
27900WAT     H183942   1.191   1.981   1.265
27900WAT     H283943   1.247   1.909   1.401
27901WAT      O83944   2.002   3.261   6.641
27901WAT     H183945   2.044   3.335   6.589
27901WAT     H283946   1.909   3.246   6.608
27902WAT      O83947   4.468   5.311   7.672
27902WAT     H183948   4.381   5.313   7.624
27902WAT     H283949   4.457   5.346   7.765
27903WAT      O83950   9.518   7.925   3.369
27903WAT     H183951   9.512   7.833   3.330
27903WAT     H283952   9.611   7.942   3.401
27904WAT      O83953   9.080   5.733   4.474
27904WAT     H183954   9.174   5.760   4.497
27904WAT     H283955   9.018   5.764   4.546
27905WAT      O83956   4.462   9.783   5.348
27905WAT     H183957   4.491   9.739   5.263
27905WAT     H283958   4.496   9.876   5.351
27906WAT      O83959   8.571   5.179   6.540
27906WAT     H183960   8.482   5.138   6.560
27906WAT     H283961   8.644   5.115   6.564
27907WAT      O83962   7.823   9.741   3.870
27907WAT     H183963   7.814   9.841   3.876
27907WAT     H283964   7.916   9.717   3.842
27908WAT      O83965   2.713   7.012   2.550
27908WAT     H183966   2.664   6.955   2.485
27908WAT     H283967   2.651   7.042   2.622
27909WAT      O83968   0.575   3.732   7.613
27909WAT     H183969   0.552   3.828   7.596
27909WAT     H283970   0.662   3.710   7.568
27910WAT      O83971   2.265   3.492   0.973
27910WAT     H183972   2.341   3.538   1.019
27910WAT     H283973   2.275   3.393   0.983
27911WAT      O83974   0.992   3.591   4.922
27911WAT     H183975   1.062   3.541   4.870
27911WAT     H283976   0.902   3.571   4.883
27912WAT      O83977   4.088   3.073   3.930
27912WAT     H183978   4.182   3.056   3.901
27912WAT     H283979   4.037   3.114   3.856
27913WAT      O83980   6.720   1.431   6.132
27913WAT     H183981   6.688   1.525   6.135
27913WAT     H283982   6.809   1.425   6.177
27914WAT      O83983   6.548   7.069   0.147
27914WAT     H183984   6.462   7.018   0.147
27914WAT     H283985   6.536   7.153   0.200
27915WAT      O83986   5.808   6.276   0.879
27915WAT     H183987   5.733   6.311   0.823
27915WAT     H283988   5.893   6.322   0.854
27916WAT      O83989   0.911   2.057   4.033
27916WAT     H183990   0.952   1.969   4.055
27916WAT     H283991   0.972   2.109   3.974
27917WAT      O83992   0.555   2.648   7.421
27917WAT     H183993   0.475   2.687   7.375
27917WAT     H283994   0.543   2.656   7.520
27918WAT      O83995   7.888   3.357   1.679
27918WAT     H183996   7.907   3.387   1.772
27918WAT     H283997   7.819   3.417   1.638
27919WAT      O83998   6.213   2.358   1.354
27919WAT     H183999   6.198   2.403   1.266
27919WAT     H284000   6.149   2.393   1.422
27920WAT      O84001   2.045   9.146   2.889
27920WAT     H184002   2.089   9.102   2.811
27920WAT     H284003   2.058   9.089   2.971
27921WAT      O84004   4.501   7.994   5.981
27921WAT     H184005   4.404   8.007   6.000
27921WAT     H284006   4.540   8.080   5.947
27922WAT      O84007   0.297   4.569   6.989
27922WAT     H184008   0.307   4.501   7.061
27922WAT     H284009   0.220   4.544   6.930
27923WAT      O84010   7.695   0.021   2.208
27923WAT     H184011   7.636   0.042   2.130
27923WAT     H284012   7.770   0.087   2.213
27924WAT      O84013   2.787   9.433   4.172
27924WAT     H184014   2.795   9.464   4.267
27924WAT     H284015   2.693   9.407   4.153
27925WAT      O84016   3.582   3.751   6.158
27925WAT     H184017   3.592   3.706   6.069
27925WAT     H284018   3.496   3.720   6.201
27926WAT      O84019   2.683   6.744   7.680
27926WAT     H184020   2.608   6.691   7.720
27926WAT     H284021   2.766   6.731   7.735
27927WAT      O84022   1.127   5.070   2.397
27927WAT     H184023   1.053   5.032   2.341
27927WAT     H284024   1.215   5.046   2.357
27928WAT      O84025   2.377   2.082   4.967
27928WAT     H184026   2.453   2.094   4.903
27928WAT     H284027   2.299   2.136   4.935
27929WAT      O84028   8.299   2.027   3.824
27929WAT     H184029   8.273   1.934   3.849
27929WAT     H284030   8.387   2.049   3.867
27930WAT      O84031   2.835   7.887   4.027
27930WAT     H184032   2.898   7.825   4.074
27930WAT     H284033   2.743   7.848   4.028
27931WAT      O84034   8.435   0.197   8.695
27931WAT     H184035   8.363   0.156   8.751
27931WAT     H284036   8.462   0.132   8.624
27932WAT      O84037   3.007   6.546   4.774
27932WAT     H184038   3.088   6.605   4.769
27932WAT     H284039   2.924   6.602   4.769
27933WAT      O84040   5.465   6.781   6.315
27933WAT     H184041   5.391   6.815   6.373
27933WAT     H284042   5.428   6.714   6.250
27934WAT      O84043   9.616   0.706   8.206
27934WAT     H184044   9.643   0.772   8.277
27934WAT     H284045   9.530   0.662   8.232
27935WAT      O84046   7.185   0.094   1.742
27935WAT     H184047   7.241   0.011   1.739
27935WAT     H284048   7.244   0.174   1.737
27936WAT      O84049   1.138   0.903   7.813
27936WAT     H184050   1.070   0.947   7.753
27936WAT     H284051   1.212   0.967   7.832
27937WAT      O84052   4.946   9.380   0.091
27937WAT     H184053   4.898   9.398   0.177
27937WAT     H284054   4.942   9.283   0.070
27938WAT      O84055   2.493   9.128   2.918
27938WAT     H184056   2.572   9.188   2.906
27938WAT     H284057   2.484   9.103   3.014
27939WAT      O84058   7.970   7.646   8.152
27939WAT     H184059   8.046   7.621   8.213
27939WAT     H284060   7.884   7.624   8.197
27940WAT      O84061   9.398   2.474   0.050
27940WAT     H184062   9.382   2.568   0.081
27940WAT     H284063   9.313   2.436   0.013
27941WAT      O84064   5.752   5.739   8.499
27941WAT     H184065   5.702   5.732   8.413
27941WAT     H284066   5.787   5.649   8.525
27942WAT      O84067   8.643   8.679   8.979
27942WAT     H184068   8.585   8.616   9.030
27942WAT     H284069   8.695   8.628   8.910
27943WAT      O84070   6.690   9.252   4.899
27943WAT     H184071   6.673   9.228   4.995
27943WAT     H284072   6.740   9.178   4.854
27944WAT      O84073   0.234   6.260   5.212
27944WAT     H184074   0.231   6.241   5.310
27944WAT     H284075   0.154   6.315   5.186
27945WAT      O84076   6.072   5.443   3.042
27945WAT     H184077   6.041   5.351   3.018
27945WAT     H284078   6.168   5.453   3.018
27946WAT      O84079   6.947   4.266   3.882
27946WAT     H184080   7.016   4.213   3.833
27946WAT     H284081   6.864   4.273   3.827
27947WAT      O84082   7.987   1.181   6.531
27947WAT     H184083   7.990   1.096   6.477
27947WAT     H284084   7.892   1.212   6.539
27948WAT      O84085   8.866   4.727   1.816
27948WAT     H184086   8.810   4.805   1.842
27948WAT     H284087   8.957   4.734   1.857
27949WAT      O84088   7.253   5.334   0.479
27949WAT     H184089   7.335   5.279   0.464
27949WAT     H284090   7.221   5.321   0.573
27950WAT      O84091   8.132   9.606   8.237
27950WAT     H184092   8.204   9.539   8.256
27950WAT     H284093   8.144   9.686   8.296
27951WAT      O84094   8.343   0.737   1.546
27951WAT     H184095   8.331   0.639   1.558
27951WAT     H284096   8.284   0.769   1.472
27952WAT      O84097   7.577   7.719   0.725
27952WAT     H184098   7.482   7.704   0.698
27952WAT     H284099   7.589   7.693   0.820
27953WAT      O84100   2.343   8.851   1.815
27953WAT     H184101   2.326   8.753   1.822
27953WAT     H284102   2.429   8.873   1.860
27954WAT      O84103   0.817   4.572   0.837
27954WAT     H184104   0.748   4.587   0.766
27954WAT     H284105   0.845   4.475   0.835
27955WAT      O84106   3.128   0.742   4.918
27955WAT     H184107   3.030   0.751   4.901
27955WAT     H284108   3.170   0.692   4.841
27956WAT      O84109   0.986   3.799   2.920
27956WAT     H184110   0.939   3.750   2.992
27956WAT     H284111   1.038   3.734   2.864
27957WAT      O84112   8.652   1.348   2.731
27957WAT     H184113   8.680   1.313   2.642
27957WAT     H284114   8.553   1.339   2.741
27958WAT      O84115   2.789   1.848   9.134
27958WAT     H184116   2.748   1.846   9.043
27958WAT     H284117   2.883   1.813   9.129
27959WAT      O84118   0.581   8.105   8.871
27959WAT     H184119   0.616   8.069   8.785
27959WAT     H284120   0.481   8.107   8.869
27960WAT      O84121   9.631   5.148   5.614
27960WAT     H184122   9.667   5.233   5.576
27960WAT     H284123   9.698   5.074   5.599
27961WAT      O84124   3.559   2.628   0.949
27961WAT     H184125   3.646   2.675   0.966
27961WAT     H284126   3.485   2.677   0.996
27962WAT      O84127   4.821   8.264   7.092
27962WAT     H184128   4.800   8.351   7.046
27962WAT     H284129   4.745   8.239   7.152
27963WAT      O84130   2.004   3.917   3.800
27963WAT     H184131   2.085   3.943   3.748
27963WAT     H284132   2.031   3.896   3.894
27964WAT      O84133   4.264   0.910   0.793
27964WAT     H184134   4.322   0.842   0.748
27964WAT     H284135   4.318   0.992   0.812
27965WAT      O84136   6.589   2.274   2.173
27965WAT     H184137   6.643   2.316   2.246
27965WAT     H284138   6.645   2.262   2.092
27966WAT      O84139   8.741   0.391   4.095
27966WAT     H184140   8.751   0.295   4.121
27966WAT     H284141   8.831   0.431   4.076
27967WAT      O84142   0.047   1.087   9.349
27967WAT     H184143   0.135   1.084   9.397
27967WAT     H284144   0.033   1.001   9.300
27968WAT      O84145   0.868   5.377   1.712
27968WAT     H184146   0.896   5.335   1.799
27968WAT     H284147   0.943   5.431   1.675
27969WAT      O84148   2.656   3.218   2.748
27969WAT     H184149   2.717   3.226   2.827
27969WAT     H284150   2.639   3.308   2.710
27970WAT      O84151   8.323   8.047   7.236
27970WAT     H184152   8.318   8.146   7.254
27970WAT     H284153   8.394   8.007   7.294
27971WAT      O84154   6.851   1.513   0.670
27971WAT     H184155   6.909   1.591   0.695
27971WAT     H284156   6.784   1.497   0.743
27972WAT      O84157   3.151   4.423   4.793
27972WAT     H184158   3.243   4.388   4.808
27972WAT     H284159   3.130   4.419   4.695
27973WAT      O84160   2.894   8.629   8.194
27973WAT     H184161   2.875   8.693   8.267
27973WAT     H284162   2.880   8.535   8.227
27974WAT      O84163   2.992   0.135   5.908
27974WAT     H184164   3.024   0.087   5.990
27974WAT     H284165   2.915   0.194   5.933
27975WAT      O84166   8.515   5.933   5.817
27975WAT     H184167   8.594   5.874   5.799
27975WAT     H284168   8.532   6.025   5.783
27976WAT      O84169   0.337   2.993   8.522
27976WAT     H184170   0.250   2.961   8.485
27976WAT     H284171   0.412   2.944   8.478
27977WAT      O84172   6.816   2.672   2.243
27977WAT     H184173   6.783   2.733   2.170
27977WAT     H284174   6.901   2.709   2.281
27978WAT      O84175   6.174   0.284   8.354
27978WAT     H184176   6.096   0.270   8.293
27978WAT     H284177   6.144   0.276   8.449
27979WAT      O84178   7.548   9.634   7.540
27979WAT     H184179   7.450   9.639   7.558
27979WAT     H284180   7.566   9.660   7.445
27980WAT      O84181   6.804   6.731   7.170
27980WAT     H184182   6.734   6.662   7.188
27980WAT     H284183   6.783   6.814   7.222
27981WAT      O84184   0.647   2.662   2.591
27981WAT     H184185   0.555   2.700   2.600
27981WAT     H284186   0.647   2.587   2.525
27982WAT      O84187   0.880   5.063   1.298
27982WAT     H184188   0.932   5.020   1.371
27982WAT     H284189   0.801   5.110   1.338
27983WAT      O84190   3.768   7.987   5.665
27983WAT     H184191   3.765   7.888   5.675
27983WAT     H284192   3.837   8.025   5.727
27984WAT      O84193   8.554   3.767   4.606
27984WAT     H184194   8.632   3.705   4.601
27984WAT     H284195   8.471   3.718   4.580
27985WAT      O84196   3.882   5.422   0.508
27985WAT     H184197   3.893   5.495   0.576
27985WAT     H284198   3.826   5.349   0.546
27986WAT      O84199   1.542   0.282   8.945
27986WAT     H184200   1.541   0.192   8.989
27986WAT     H284201   1.525   0.352   9.014
27987WAT      O84202   3.291   2.919   1.319
27987WAT     H184203   3.292   2.829   1.364
27987WAT     H284204   3.381   2.962   1.329
27988WAT      O84205   3.014   7.453   8.134
27988WAT     H184206   2.960   7.478   8.214
27988WAT     H284207   2.953   7.437   8.056
27989WAT      O84208   5.072   1.004   7.021
27989WAT     H184209   4.997   1.068   7.037
27989WAT     H284210   5.043   0.937   6.952
27990WAT      O84211   5.153   2.747   6.145
27990WAT     H184212   5.210   2.678   6.099
27990WAT     H284213   5.065   2.707   6.168
27991WAT      O84214   3.370   8.449   4.799
27991WAT     H184215   3.374   8.360   4.847
27991WAT     H284216   3.281   8.459   4.756
27992WAT      O84217   3.484   2.140   8.727
27992WAT     H184218   3.562   2.164   8.786
27992WAT     H284219   3.518   2.101   8.642
27993WAT      O84220   8.184   6.755   2.437
27993WAT     H184221   8.119   6.701   2.491
27993WAT     H284222   8.140   6.838   2.403
27994WAT      O84223   5.748   0.619   5.042
27994WAT     H184224   5.732   0.596   4.946
27994WAT     H284225   5.817   0.557   5.079
27995WAT      O84226   5.106   7.411   8.122
27995WAT     H184227   5.089   7.510   8.124
27995WAT     H284228   5.080   7.371   8.210
27996WAT      O84229   1.728   1.118   1.680
27996WAT     H184230   1.702   1.094   1.774
27996WAT     H284231   1.828   1.121   1.674
27997WAT      O84232   3.530   8.432   4.066
27997WAT     H184233   3.511   8.522   4.105
27997WAT     H284234   3.445   8.393   4.029
27998WAT      O84235   0.501   0.040   6.558
27998WAT     H184236   0.502   0.133   6.521
27998WAT     H284237   0.511  -0.026   6.483
27999WAT      O84238   2.064   0.542   8.656
27999WAT     H184239   1.996   0.469   8.661
27999WAT     H284240   2.033   0.621   8.710
28000WAT      O84241   7.654   7.776   7.058
28000WAT     H184242   7.753   7.778   7.072
28000WAT     H284243   7.624   7.681   7.049
28001WAT      O84244   2.748   0.268   6.143
28001WAT     H184245   2.671   0.292   6.084
28001WAT     H284246   2.811   0.346   6.149
28002WAT      O84247   6.602   1.760   7.795
28002WAT     H184248   6.697   1.756   7.825
28002WAT     H284249   6.541   1.762   7.875
28003WAT      O84250   5.362   3.534   5.083
28003WAT     H184251   5.334   3.578   5.168
28003WAT     H284252   5.284   3.528   5.021
28004WAT      O84253   1.106   4.049   6.609
28004WAT     H184254   1.107   4.058   6.510
28004WAT     H284255   1.043   4.116   6.648
28005WAT      O84256   2.231   6.498   0.378
28005WAT     H184257   2.190   6.586   0.353
28005WAT     H284258   2.321   6.490   0.336
28006WAT      O84259   3.019   6.280   2.123
28006WAT     H184260   3.094   6.232   2.169
28006WAT     H284261   3.009   6.372   2.163
28007WAT      O84262   4.918   3.125   6.254
28007WAT     H184263   4.988   3.101   6.187
28007WAT     H284264   4.837   3.068   6.241
28008WAT      O84265   3.270   8.766   7.320
28008WAT     H184266   3.282   8.740   7.224
28008WAT     H284267   3.332   8.713   7.377
28009WAT      O84268   1.759   2.260   6.064
28009WAT     H184269   1.815   2.187   6.103
28009WAT     H284270   1.696   2.222   5.997
28010WAT      O84271   7.087   8.806   6.488
28010WAT     H184272   7.048   8.837   6.574
28010WAT     H284273   7.023   8.743   6.443
28011WAT      O84274   7.736   1.447   9.858
28011WAT     H184275   7.765   1.462   9.763
28011WAT     H284276   7.770   1.358   9.889
28012WAT      O84277   4.042   0.573   2.939
28012WAT     H184278   3.985   0.494   2.960
28012WAT     H284279   4.065   0.573   2.842
28013WAT      O84280   4.821   0.955   7.401
28013WAT     H184281   4.914   0.925   7.384
28013WAT     H284282   4.801   0.950   7.499
28014WAT      O84283   8.256   4.438   0.888
28014WAT     H184284   8.247   4.342   0.915
28014WAT     H284285   8.352   4.465   0.890
28015WAT      O84286   0.262   4.908   8.660
28015WAT     H184287   0.360   4.894   8.646
28015WAT     H284288   0.224   4.955   8.580
28016WAT      O84289   6.467   0.218   5.018
28016WAT     H184290   6.557   0.212   5.062
28016WAT     H284291   6.397   0.233   5.088
28017WAT      O84292   1.347   9.046   3.438
28017WAT     H184293   1.282   9.039   3.363
28017WAT     H284294   1.368   9.143   3.454
28018WAT      O84295   3.957   1.808   3.714
28018WAT     H184296   3.979   1.714   3.688
28018WAT     H284297   3.889   1.808   3.787
28019WAT      O84298   4.573   7.163   5.203
28019WAT     H184299   4.663   7.200   5.228
28019WAT     H284300   4.502   7.214   5.251
28020WAT      O84301   0.511   3.204   9.386
28020WAT     H184302   0.441   3.139   9.413
28020WAT     H284303   0.474   3.297   9.392
28021WAT      O84304   9.409   8.544   6.903
28021WAT     H184305   9.323   8.593   6.890
28021WAT     H284306   9.470   8.597   6.962
28022WAT      O84307   0.680   4.822   7.175
28022WAT     H184308   0.664   4.766   7.093
28022WAT     H284309   0.599   4.877   7.193
28023WAT      O84310   6.942   5.485   2.228
28023WAT     H184311   7.028   5.459   2.271
28023WAT     H284312   6.903   5.406   2.180
28024WAT      O84313   4.619   1.800   0.947
28024WAT     H184314   4.675   1.883   0.940
28024WAT     H284315   4.676   1.720   0.928
28025WAT      O84316   2.099   1.961   2.285
28025WAT     H184317   2.111   1.927   2.192
28025WAT     H284318   2.083   2.060   2.283
28026WAT      O84319   4.016   4.632   5.337
28026WAT     H184320   3.919   4.609   5.345
28026WAT     H284321   4.051   4.602   5.248
28027WAT      O84322   9.004   3.139   7.829
28027WAT     H184323   9.096   3.157   7.793
28027WAT     H284324   8.957   3.074   7.769
28028WAT      O84325   5.877   7.082   6.301
28028WAT     H184326   5.887   7.073   6.400
28028WAT     H284327   5.828   7.166   6.279
28029WAT      O84328   1.170   8.688   7.008
28029WAT     H184329   1.231   8.765   7.025
28029WAT     H284330   1.190   8.649   6.918
28030WAT      O84331   9.237   8.542   0.294
28030WAT     H184332   9.321   8.496   0.266
28030WAT     H284333   9.252   8.586   0.383
28031WAT      O84334   6.276   4.085   2.049
28031WAT     H184335   6.274   4.104   1.951
28031WAT     H284336   6.260   3.988   2.065
28032WAT      O84337   4.753   9.828   9.738
28032WAT     H184338   4.837   9.838   9.791
28032WAT     H284339   4.674   9.847   9.797
28033WAT      O84340   1.453   1.592   8.896
28033WAT     H184341   1.511   1.671   8.915
28033WAT     H284342   1.463   1.566   8.800
28034WAT      O84343   9.227   2.895   8.374
28034WAT     H184344   9.257   2.969   8.314
28034WAT     H284345   9.135   2.916   8.409
28035WAT      O84346   8.274   1.219   8.043
28035WAT     H184347   8.248   1.265   7.958
28035WAT     H284348   8.358   1.260   8.079
28036WAT      O84349   2.461   8.307   1.351
28036WAT     H184350   2.413   8.372   1.291
28036WAT     H284351   2.460   8.342   1.445
28037WAT      O84352   7.196   6.315   7.211
28037WAT     H184353   7.187   6.400   7.262
28037WAT     H284354   7.106   6.274   7.197
28038WAT      O84355   6.725   5.250   9.366
28038WAT     H184356   6.717   5.301   9.452
28038WAT     H284357   6.793   5.177   9.377
28039WAT      O84358   1.278   8.558   8.691
28039WAT     H184359   1.257   8.656   8.694
28039WAT     H284360   1.377   8.546   8.700
28040WAT      O84361   3.461   0.963   9.103
28040WAT     H184362   3.491   0.920   9.189
28040WAT     H284363   3.522   1.038   9.080
28041WAT      O84364   9.043   4.915   6.627
28041WAT     H184365   9.058   4.970   6.709
28041WAT     H284366   9.055   4.818   6.650
28042WAT      O84367   8.764   2.030   4.125
28042WAT     H184368   8.678   1.990   4.157
28042WAT     H284369   8.748   2.123   4.094
28043WAT      O84370   6.131   4.421   0.873
28043WAT     H184371   6.095   4.503   0.916
28043WAT     H284372   6.225   4.436   0.845
28044WAT      O84373   5.024   9.648   1.007
28044WAT     H184374   4.983   9.653   1.098
28044WAT     H284375   4.959   9.607   0.943
28045WAT      O84376   7.956   5.855   3.976
28045WAT     H184377   7.923   5.796   4.049
28045WAT     H284378   8.056   5.866   3.984
28046WAT      O84379   5.420   7.393   1.763
28046WAT     H184380   5.483   7.338   1.818
28046WAT     H284381   5.464   7.479   1.739
28047WAT      O84382   5.184   3.527   9.432
28047WAT     H184383   5.097   3.486   9.404
28047WAT     H284384   5.184   3.624   9.409
28048WAT      O84385   2.352   1.440   0.252
28048WAT     H184386   2.394   1.521   0.211
28048WAT     H284387   2.270   1.416   0.200
28049WAT      O84388   7.778   5.933   7.188
28049WAT     H184389   7.854   5.967   7.243
28049WAT     H284390   7.706   6.002   7.183
28050WAT      O84391   5.544   7.633   1.670
28050WAT     H184392   5.603   7.691   1.725
28050WAT     H284393   5.556   7.655   1.573
28051WAT      O84394   3.670   1.796   1.370
28051WAT     H184395   3.666   1.893   1.345
28051WAT     H284396   3.765   1.773   1.394
28052WAT      O84397   7.126   1.486   7.997
28052WAT     H184398   7.121   1.538   7.912
28052WAT     H284399   7.033   1.460   8.025
28053WAT      O84400   2.814   6.560   5.148
28053WAT     H184401   2.832   6.616   5.229
28053WAT     H284402   2.898   6.514   5.120
28054WAT      O84403   7.205   0.261   6.147
28054WAT     H184404   7.119   0.237   6.101
28054WAT     H284405   7.192   0.257   6.246
28055WAT      O84406   4.872   3.066   7.644
28055WAT     H184407   4.899   2.991   7.704
28055WAT     H284408   4.909   3.152   7.680
28056WAT      O84409   4.424   0.755   7.344
28056WAT     H184410   4.394   0.849   7.329
28056WAT     H284411   4.453   0.715   7.257
28057WAT      O84412   8.164   5.947   9.110
28057WAT     H184413   8.225   5.922   9.035
28057WAT     H284414   8.090   6.005   9.076
28058WAT      O84415   5.173   2.534   1.361
28058WAT     H184416   5.168   2.569   1.454
28058WAT     H284417   5.176   2.434   1.363
28059WAT      O84418   1.324   4.158   2.018
28059WAT     H184419   1.253   4.227   2.023
28059WAT     H284420   1.290   4.079   1.967
28060WAT      O84421   2.413   5.172   7.267
28060WAT     H184422   2.319   5.161   7.236
28060WAT     H284423   2.452   5.254   7.224
28061WAT      O84424   0.111   5.741   1.343
28061WAT     H184425   0.182   5.682   1.384
28061WAT     H284426   0.022   5.698   1.354
28062WAT      O84427   8.252   7.915   3.802
28062WAT     H184428   8.273   7.900   3.705
28062WAT     H284429   8.261   8.012   3.823
28063WAT      O84430   8.699   4.845   9.405
28063WAT     H184431   8.651   4.888   9.328
28063WAT     H284432   8.790   4.886   9.414
28064WAT      O84433   2.002   1.867   2.537
28064WAT     H184434   2.026   1.945   2.594
28064WAT     H284435   2.034   1.882   2.443
28065WAT      O84436   6.168   1.906   9.423
28065WAT     H184437   6.128   1.815   9.434
28065WAT     H284438   6.111   1.960   9.361
28066WAT      O84439   7.900   2.913   4.083
28066WAT     H184440   7.980   2.899   4.142
28066WAT     H284441   7.923   2.885   3.989
28067WAT      O84442   2.070   3.507   6.524
28067WAT     H184443   2.154   3.499   6.471
28067WAT     H284444   2.092   3.538   6.617
28068WAT      O84445   5.700   7.700   2.712
28068WAT     H184446   5.759   7.778   2.736
28068WAT     H284447   5.679   7.648   2.795
28069WAT      O84448   0.891   2.173   4.724
28069WAT     H184449   0.976   2.200   4.769
28069WAT     H284450   0.880   2.224   4.639
28070WAT      O84451   9.129   6.371   3.844
28070WAT     H184452   9.173   6.300   3.790
28070WAT     H284453   9.030   6.365   3.832
28071WAT      O84454   3.578   0.565   3.025
28071WAT     H184455   3.636   0.626   2.970
28071WAT     H284456   3.493   0.546   2.975
28072WAT      O84457   5.720   5.110   1.129
28072WAT     H184458   5.747   5.160   1.211
28072WAT     H284459   5.628   5.136   1.102
28073WAT      O84460   2.457   0.523   7.197
28073WAT     H184461   2.431   0.473   7.280
28073WAT     H284462   2.518   0.599   7.222
28074WAT      O84463   6.593   0.064   3.830
28074WAT     H184464   6.504   0.047   3.872
28074WAT     H284465   6.580   0.098   3.737
28075WAT      O84466   9.715   2.009   0.790
28075WAT     H184467   9.694   1.917   0.820
28075WAT     H284468   9.814   2.025   0.794
28076WAT      O84469   0.612   7.573   4.575
28076WAT     H184470   0.607   7.624   4.661
28076WAT     H284471   0.572   7.627   4.501
28077WAT      O84472   8.945   4.677   4.290
28077WAT     H184473   8.948   4.587   4.247
28077WAT     H284474   9.008   4.678   4.368
28078WAT      O84475   3.820   2.848   1.295
28078WAT     H184476   3.743   2.871   1.236
28078WAT     H284477   3.874   2.775   1.254
28079WAT      O84478   1.435   7.448   6.036
28079WAT     H184479   1.399   7.457   5.943
28079WAT     H284480   1.472   7.536   6.066
28080WAT      O84481   7.643   2.559   9.463
28080WAT     H184482   7.627   2.638   9.523
28080WAT     H284483   7.648   2.476   9.519
28081WAT      O84484   9.136   8.809   8.768
28081WAT     H184485   9.202   8.864   8.819
28081WAT     H284486   9.043   8.841   8.789
28082WAT      O84487   6.263   6.580   6.545
28082WAT     H184488   6.253   6.671   6.584
28082WAT     H284489   6.359   6.557   6.536
28083WAT      O84490   0.389   8.158   4.878
28083WAT     H184491   0.458   8.163   4.950
28083WAT     H284492   0.300   8.187   4.914
28084WAT      O84493   3.102   0.134   9.550
28084WAT     H184494   3.094   0.232   9.565
28084WAT     H284495   3.197   0.110   9.530
28085WAT      O84496   5.191   9.211   3.223
28085WAT     H184497   5.258   9.276   3.186
28085WAT     H284498   5.152   9.247   3.308
28086WAT      O84499   2.693   0.043   7.602
28086WAT     H184500   2.690  -0.048   7.644
28086WAT     H284501   2.746   0.038   7.517
28087WAT      O84502   3.431   3.301   9.354
28087WAT     H184503   3.371   3.247   9.296
28087WAT     H284504   3.379   3.373   9.400
28088WAT      O84505   6.217   7.261   3.930
28088WAT     H184506   6.253   7.211   3.851
28088WAT     H284507   6.121   7.285   3.913
28089WAT      O84508   2.899   8.557   5.543
28089WAT     H184509   2.803   8.529   5.541
28089WAT     H284510   2.944   8.528   5.458
28090WAT      O84511   4.864   7.025   8.741
28090WAT     H184512   4.828   7.097   8.682
28090WAT     H284513   4.788   6.970   8.776
28091WAT      O84514   6.584   6.169   9.613
28091WAT     H184515   6.530   6.128   9.686
28091WAT     H284516   6.587   6.269   9.625
28092WAT      O84517   2.185   6.642   6.894
28092WAT     H184518   2.203   6.557   6.944
28092WAT     H284519   2.096   6.637   6.850
28093WAT      O84520   0.805   2.732   6.437
28093WAT     H184521   0.860   2.815   6.427
28093WAT     H284522   0.865   2.656   6.462
28094WAT      O84523   6.924   7.011   6.051
28094WAT     H184524   6.993   7.073   6.088
28094WAT     H284525   6.947   6.917   6.075
28095WAT      O84526   4.209   3.153   8.051
28095WAT     H184527   4.176   3.069   8.009
28095WAT     H284528   4.170   3.232   8.005
28096WAT      O84529   2.401   4.728   8.977
28096WAT     H184530   2.431   4.820   8.951
28096WAT     H284531   2.481   4.673   9.001
28097WAT      O84532   2.450   7.683   8.125
28097WAT     H184533   2.470   7.586   8.129
28097WAT     H284534   2.386   7.707   8.198
28098WAT      O84535   6.406   4.426   1.879
28098WAT     H184536   6.436   4.372   1.958
28098WAT     H284537   6.396   4.522   1.907
28099WAT      O84538   2.672   2.900   6.086
28099WAT     H184539   2.620   2.975   6.045
28099WAT     H284540   2.691   2.921   6.182
28100WAT      O84541   9.511   1.884   5.529
28100WAT     H184542   9.530   1.956   5.463
28100WAT     H284543   9.412   1.876   5.542
28101WAT      O84544   1.924   6.943   2.497
28101WAT     H184545   2.018   6.910   2.497
28101WAT     H284546   1.866   6.880   2.445
28102WAT      O84547   9.238   7.303   8.821
28102WAT     H184548   9.233   7.403   8.823
28102WAT     H284549   9.209   7.270   8.731
28103WAT      O84550   7.969   3.037   6.020
28103WAT     H184551   8.004   3.064   6.109
28103WAT     H284552   7.909   3.109   5.985
28104WAT      O84553   2.539   2.312   2.469
28104WAT     H184554   2.630   2.275   2.449
28104WAT     H284555   2.528   2.325   2.567
28105WAT      O84556   5.375   3.757   5.962
28105WAT     H184557   5.280   3.781   5.981
28105WAT     H284558   5.388   3.742   5.864
28106WAT      O84559   8.293   5.351   8.044
28106WAT     H184560   8.353   5.351   7.964
28106WAT     H284561   8.264   5.444   8.065
28107WAT      O84562   8.753   8.959   9.554
28107WAT     H184563   8.684   9.032   9.561
28107WAT     H284564   8.711   8.871   9.578
28108WAT      O84565   1.285   7.776   0.054
28108WAT     H184566   1.223   7.741  -0.015
28108WAT     H284567   1.376   7.738   0.040
28109WAT      O84568   5.617   8.602   5.348
28109WAT     H184569   5.572   8.619   5.435
28109WAT     H284570   5.704   8.651   5.345
28110WAT      O84571   5.350   1.103   1.997
28110WAT     H184572   5.362   1.177   1.930
28110WAT     H284573   5.434   1.049   2.003
28111WAT      O84574   0.693   4.247   9.744
28111WAT     H184575   0.659   4.326   9.694
28111WAT     H284576   0.785   4.225   9.712
28112WAT      O84577   7.470   7.253   6.145
28112WAT     H184578   7.495   7.218   6.055
28112WAT     H284579   7.552   7.263   6.201
28113WAT      O84580   8.102   8.842   2.260
28113WAT     H184581   8.147   8.931   2.258
28113WAT     H284582   8.109   8.803   2.352
28114WAT      O84583   7.124   5.138   8.443
28114WAT     H184584   7.187   5.160   8.517
28114WAT     H284585   7.137   5.202   8.367
28115WAT      O84586   8.460   5.342   3.470
28115WAT     H184587   8.423   5.416   3.526
28115WAT     H284588   8.552   5.318   3.503
28116WAT      O84589   9.628   8.876   6.716
28116WAT     H184590   9.701   8.899   6.652
28116WAT     H284591   9.540   8.877   6.668
28117WAT      O84592   8.206   6.431   7.410
28117WAT     H184593   8.275   6.504   7.415
28117WAT     H284594   8.193   6.404   7.315
28118WAT      O84595   7.607   8.327   7.694
28118WAT     H184596   7.643   8.274   7.770
28118WAT     H284597   7.593   8.267   7.615
28119WAT      O84598   0.223   1.798   0.404
28119WAT     H184599   0.190   1.720   0.351
28119WAT     H284600   0.305   1.836   0.361
28120WAT      O84601   2.226   3.177   9.781
28120WAT     H184602   2.317   3.217   9.787
28120WAT     H284603   2.222   3.115   9.702
28121WAT      O84604   5.627   8.304   6.104
28121WAT     H184605   5.556   8.318   6.173
28121WAT     H284606   5.611   8.217   6.057
28122WAT      O84607   9.428   3.719   7.463
28122WAT     H184608   9.410   3.666   7.380
28122WAT     H284609   9.520   3.698   7.496
28123WAT      O84610   2.779   8.539   8.613
28123WAT     H184611   2.785   8.593   8.697
28123WAT     H284612   2.801   8.597   8.535
28124WAT      O84613   1.351   1.976   1.528
28124WAT     H184614   1.314   1.999   1.618
28124WAT     H284615   1.419   2.044   1.502
28125WAT      O84616   3.854   6.771   8.844
28125WAT     H184617   3.827   6.717   8.924
28125WAT     H284618   3.911   6.848   8.874
28126WAT      O84619   3.951   3.314   4.841
28126WAT     H184620   3.886   3.262   4.896
28126WAT     H284621   3.917   3.408   4.830
28127WAT      O84622   3.485   6.909   8.795
28127WAT     H184623   3.404   6.880   8.744
28127WAT     H284624   3.485   7.008   8.805
28128WAT      O84625   2.773   3.384   6.507
28128WAT     H184626   2.688   3.336   6.485
28128WAT     H284627   2.773   3.474   6.463
28129WAT      O84628   8.395   1.039   8.699
28129WAT     H184629   8.353   0.950   8.716
28129WAT     H284630   8.442   1.038   8.611
28130WAT      O84631   9.022   3.209   2.442
28130WAT     H184632   9.035   3.266   2.360
28130WAT     H284633   9.008   3.114   2.414
28131WAT      O84634   3.813   5.350   4.402
28131WAT     H184635   3.751   5.326   4.476
28131WAT     H284636   3.880   5.277   4.389
28132WAT      O84637   8.059   5.065   7.764
28132WAT     H184638   8.093   5.059   7.858
28132WAT     H284639   8.050   4.972   7.726
28133WAT      O84640   3.828   4.290   6.184
28133WAT     H184641   3.924   4.262   6.193
28133WAT     H284642   3.817   4.382   6.223
28134WAT      O84643   4.607   3.244   0.131
28134WAT     H184644   4.665   3.168   0.160
28134WAT     H284645   4.615   3.319   0.196
28135WAT      O84646   7.809   3.380   3.427
28135WAT     H184647   7.795   3.338   3.337
28135WAT     H284648   7.899   3.424   3.430
28136WAT      O84649   7.864   2.149   2.828
28136WAT     H184650   7.776   2.104   2.808
28136WAT     H284651   7.938   2.090   2.797
28137WAT      O84652   7.773   7.592   0.516
28137WAT     H184653   7.689   7.605   0.568
28137WAT     H284654   7.785   7.495   0.495
28138WAT      O84655   6.485   3.794   3.573
28138WAT     H184656   6.561   3.829   3.629
28138WAT     H284657   6.520   3.767   3.483
28139WAT      O84658   6.826   5.557   9.492
28139WAT     H184659   6.864   5.631   9.436
28139WAT     H284660   6.875   5.472   9.472
28140WAT      O84661   4.094   1.114   9.081
28140WAT     H184662   4.060   1.206   9.099
28140WAT     H284663   4.018   1.049   9.087
28141WAT      O84664   8.481   7.612   8.193
28141WAT     H184665   8.544   7.616   8.271
28141WAT     H284666   8.434   7.699   8.185
28142WAT      O84667   6.640   7.806   8.376
28142WAT     H184668   6.586   7.850   8.305
28142WAT     H284669   6.712   7.751   8.334
28143WAT      O84670   2.677   4.227   1.593
28143WAT     H184671   2.622   4.177   1.527
28143WAT     H284672   2.624   4.302   1.632
28144WAT      O84673   2.369   9.191   9.702
28144WAT     H184674   2.354   9.093   9.717
28144WAT     H284675   2.332   9.243   9.778
28145WAT      O84676   5.938   3.024   1.258
28145WAT     H184677   5.985   3.038   1.171
28145WAT     H284678   5.894   3.109   1.287
28146WAT      O84679   7.829   5.334   2.500
28146WAT     H184680   7.833   5.235   2.487
28146WAT     H284681   7.918   5.375   2.482
28147WAT      O84682   5.340   0.368   6.777
28147WAT     H184683   5.246   0.358   6.809
28147WAT     H284684   5.351   0.318   6.691
28148WAT      O84685   6.605   5.454   1.982
28148WAT     H184686   6.676   5.518   1.954
28148WAT     H284687   6.557   5.491   2.062
28149WAT      O84688   0.331   5.750   9.454
28149WAT     H184689   0.332   5.651   9.449
28149WAT     H284690   0.314   5.788   9.362
28150WAT      O84691   1.551   3.406   3.629
28150WAT     H184692   1.492   3.342   3.578
28150WAT     H284693   1.505   3.494   3.637
28151WAT      O84694   3.073   4.090   6.699
28151WAT     H184695   3.085   4.143   6.783
28151WAT     H284696   3.125   4.132   6.625
28152WAT      O84697   3.225   1.486   6.026
28152WAT     H184698   3.172   1.472   5.942
28152WAT     H284699   3.243   1.397   6.068
28153WAT      O84700   7.760   1.783   2.713
28153WAT     H184701   7.810   1.805   2.630
28153WAT     H284702   7.666   1.756   2.690
28154WAT      O84703   3.903   1.117   1.978
28154WAT     H184704   3.822   1.156   1.934
28154WAT     H284705   3.984   1.139   1.924
28155WAT      O84706   9.374   3.141   0.982
28155WAT     H184707   9.391   3.161   0.885
28155WAT     H284708   9.320   3.214   1.022
28156WAT      O84709   6.427   8.811   1.697
28156WAT     H184710   6.439   8.803   1.598
28156WAT     H284711   6.355   8.749   1.727
28157WAT      O84712   7.080   0.903   1.096
28157WAT     H184713   7.076   0.809   1.129
28157WAT     H284714   7.012   0.958   1.144
28158WAT      O84715   0.904   2.597   4.218
28158WAT     H184716   0.958   2.571   4.137
28158WAT     H284717   0.809   2.568   4.204
28159WAT      O84718   5.549   3.641   7.484
28159WAT     H184719   5.497   3.690   7.414
28159WAT     H284720   5.609   3.704   7.532
28160WAT      O84721   8.533   6.580   7.723
28160WAT     H184722   8.575   6.587   7.633
28160WAT     H284723   8.591   6.626   7.791
28161WAT      O84724   3.050   6.271   6.439
28161WAT     H184725   3.019   6.226   6.523
28161WAT     H284726   2.973   6.280   6.376
28162WAT      O84727   5.555   7.315   1.054
28162WAT     H184728   5.650   7.286   1.065
28162WAT     H284729   5.552   7.413   1.034
28163WAT      O84730   8.847   6.442   5.193
28163WAT     H184731   8.910   6.470   5.265
28163WAT     H284732   8.821   6.521   5.138
28164WAT      O84733   9.272   0.403   8.715
28164WAT     H184734   9.264   0.304   8.727
28164WAT     H284735   9.365   0.432   8.740
28165WAT      O84736   1.359   1.555   0.507
28165WAT     H184737   1.307   1.594   0.430
28165WAT     H284738   1.401   1.470   0.478
28166WAT      O84739   6.396   3.343   0.670
28166WAT     H184740   6.356   3.307   0.586
28166WAT     H284741   6.390   3.443   0.670
28167WAT      O84742   3.445   2.204   3.157
28167WAT     H184743   3.483   2.292   3.129
28167WAT     H284744   3.347   2.213   3.171
28168WAT      O84745   8.331   5.638   2.739
28168WAT     H184746   8.392   5.709   2.702
28168WAT     H284747   8.268   5.679   2.805
28169WAT      O84748   1.748   6.962   7.689
28169WAT     H184749   1.795   6.899   7.750
28169WAT     H284750   1.695   7.028   7.742
28170WAT      O84751   7.536   2.867   3.704
28170WAT     H184752   7.632   2.842   3.711
28170WAT     H284753   7.503   2.845   3.612
28171WAT      O84754   6.530   0.789   4.716
28171WAT     H184755   6.530   0.770   4.618
28171WAT     H284756   6.441   0.825   4.743
28172WAT      O84757   5.018   5.380   3.735
28172WAT     H184758   4.968   5.462   3.763
28172WAT     H284759   5.006   5.365   3.637
28173WAT      O84760   2.188   8.042   3.816
28173WAT     H184761   2.216   8.101   3.892
28173WAT     H284762   2.262   8.036   3.749
28174WAT      O84763   3.903   4.304   9.617
28174WAT     H184764   3.973   4.234   9.601
28174WAT     H284765   3.902   4.329   9.714
28175WAT      O84766   8.076   2.023   9.567
28175WAT     H184767   8.125   1.936   9.559
28175WAT     H284768   7.998   2.011   9.629
28176WAT      O84769   0.304   2.755   0.028
28176WAT     H184770   0.255   2.671   0.004
28176WAT     H284771   0.264   2.794   0.112
28177WAT      O84772   2.330   3.045   8.868
28177WAT     H184773   2.393   2.972   8.841
28177WAT     H284774   2.320   3.110   8.793
28178WAT      O84775   8.917   3.864   2.361
28178WAT     H184776   9.009   3.833   2.385
28178WAT     H284777   8.914   3.964   2.364
28179WAT      O84778   3.325   3.851   3.697
28179WAT     H184779   3.307   3.754   3.683
28179WAT     H284780   3.322   3.898   3.609
28180WAT      O84781   8.761   5.158   4.931
28180WAT     H184782   8.854   5.188   4.908
28180WAT     H284783   8.765   5.067   4.972
28181WAT      O84784   1.101   4.676   2.918
28181WAT     H184785   1.048   4.633   2.845
28181WAT     H284786   1.088   4.624   3.003
28182WAT      O84787   3.484   8.655   1.399
28182WAT     H184788   3.577   8.684   1.420
28182WAT     H284789   3.452   8.702   1.317
28183WAT      O84790   0.391   5.473   4.898
28183WAT     H184791   0.376   5.380   4.864
28183WAT     H284792   0.434   5.528   4.826
28184WAT      O84793   2.114   1.389   1.731
28184WAT     H184794   2.055   1.345   1.798
28184WAT     H284795   2.152   1.320   1.670
28185WAT      O84796   3.087   8.681   0.309
28185WAT     H184797   3.008   8.663   0.250
28185WAT     H284798   3.162   8.620   0.284
28186WAT      O84799   6.135   8.565   9.769
28186WAT     H184800   6.049   8.515   9.757
28186WAT     H284801   6.126   8.630   9.844
28187WAT      O84802   4.911   0.092   4.734
28187WAT     H184803   4.958   0.178   4.715
28187WAT     H284804   4.837   0.079   4.668
28188WAT      O84805   5.646   6.589   6.923
28188WAT     H184806   5.574   6.621   6.861
28188WAT     H284807   5.727   6.647   6.912
28189WAT      O84808   0.076   8.354   9.318
28189WAT     H184809   0.167   8.342   9.359
28189WAT     H284810   0.035   8.438   9.352
28190WAT      O84811   0.970   9.010   3.046
28190WAT     H184812   0.966   9.051   2.955
28190WAT     H284813   0.897   8.942   3.055
28191WAT      O84814   2.586   4.397   7.080
28191WAT     H184815   2.662   4.336   7.058
28191WAT     H284816   2.562   4.387   7.177
28192WAT      O84817   0.246   6.203   2.311
28192WAT     H184818   0.210   6.252   2.391
28192WAT     H284819   0.173   6.189   2.245
28193WAT      O84820   8.317   0.741   3.427
28193WAT     H184821   8.397   0.802   3.423
28193WAT     H284822   8.335   0.660   3.372
28194WAT      O84823   3.560   9.609   0.503
28194WAT     H184824   3.489   9.619   0.573
28194WAT     H284825   3.648   9.640   0.540
28195WAT      O84826   3.810   2.487   7.361
28195WAT     H184827   3.821   2.451   7.268
28195WAT     H284828   3.713   2.484   7.386
28196WAT      O84829   7.133   0.484   5.912
28196WAT     H184830   7.176   0.569   5.941
28196WAT     H284831   7.135   0.418   5.987
28197WAT      O84832   9.857   0.302   3.318
28197WAT     H184833   9.831   0.229   3.381
28197WAT     H284834   9.946   0.339   3.344
28198WAT      O84835   1.480   1.884   2.815
28198WAT     H184836   1.435   1.796   2.828
28198WAT     H284837   1.554   1.873   2.749
28199WAT      O84838   3.306   7.211   0.764
28199WAT     H184839   3.280   7.223   0.860
28199WAT     H284840   3.368   7.133   0.756
28200WAT      O84841   4.421   0.887   2.039
28200WAT     H184842   4.331   0.925   2.062
28200WAT     H284843   4.443   0.908   1.944
28201WAT      O84844   8.729   3.423   8.494
28201WAT     H184845   8.698   3.438   8.400
28201WAT     H284846   8.816   3.471   8.508
28202WAT      O84847   4.864   7.735   1.367
28202WAT     H184848   4.821   7.698   1.450
28202WAT     H284849   4.950   7.687   1.351
28203WAT      O84850   4.698   5.953   0.459
28203WAT     H184851   4.783   5.954   0.511
28203WAT     H284852   4.647   5.870   0.481
28204WAT      O84853   9.431   7.088   9.153
28204WAT     H184854   9.366   7.087   9.077
28204WAT     H284855   9.466   7.180   9.167
28205WAT      O84856   7.826   7.762   4.453
28205WAT     H184857   7.910   7.793   4.496
28205WAT     H284858   7.833   7.665   4.432
28206WAT      O84859   4.128   1.472   5.789
28206WAT     H184860   4.134   1.562   5.832
28206WAT     H284861   4.193   1.410   5.833
28207WAT      O84862   4.296   8.079   5.261
28207WAT     H184863   4.371   8.062   5.324
28207WAT     H284864   4.209   8.064   5.307
28208WAT      O84865   5.114   2.100   7.474
28208WAT     H184866   5.024   2.058   7.469
28208WAT     H284867   5.144   2.102   7.570
28209WAT      O84868   0.696   3.218   7.360
28209WAT     H184869   0.650   3.303   7.335
28209WAT     H284870   0.691   3.154   7.283
28210WAT      O84871   9.611   8.952   5.091
28210WAT     H184872   9.646   8.996   5.174
28210WAT     H284873   9.610   8.853   5.104
28211WAT      O84874   4.565   3.198   1.471
28211WAT     H184875   4.656   3.160   1.484
28211WAT     H284876   4.567   3.263   1.394
28212WAT      O84877   9.765   8.120   5.009
28212WAT     H184878   9.759   8.171   5.095
28212WAT     H284879   9.777   8.183   4.933
28213WAT      O84880   0.167   5.087   8.463
28213WAT     H184881   0.087   5.143   8.482
28213WAT     H284882   0.245   5.147   8.443
28214WAT      O84883   7.126   1.626   4.734
28214WAT     H184884   7.104   1.689   4.660
28214WAT     H284885   7.089   1.535   4.712
28215WAT      O84886   7.396   8.676   1.440
28215WAT     H184887   7.446   8.729   1.372
28215WAT     H284888   7.302   8.662   1.409
28216WAT      O84889   6.223   9.508   8.581
28216WAT     H184890   6.266   9.504   8.491
28216WAT     H284891   6.170   9.424   8.596
28217WAT      O84892   2.173   5.688   8.862
28217WAT     H184893   2.125   5.775   8.872
28217WAT     H284894   2.114   5.613   8.893
28218WAT      O84895   4.634   7.827   0.420
28218WAT     H184896   4.719   7.871   0.446
28218WAT     H284897   4.573   7.822   0.500
28219WAT      O84898   7.707   2.268   9.572
28219WAT     H184899   7.644   2.282   9.495
28219WAT     H284900   7.669   2.200   9.635
28220WAT      O84901   0.936   6.819   3.754
28220WAT     H184902   0.901   6.898   3.804
28220WAT     H284903   0.916   6.829   3.656
28221WAT      O84904   1.915   7.719   1.326
28221WAT     H184905   1.887   7.697   1.233
28221WAT     H284906   1.987   7.788   1.324
28222WAT      O84907   3.204   1.927   3.929
28222WAT     H184908   3.171   2.010   3.975
28222WAT     H284909   3.141   1.851   3.949
28223WAT      O84910   8.434   8.160   5.387
28223WAT     H184911   8.425   8.258   5.405
28223WAT     H284912   8.344   8.122   5.364
28224WAT      O84913   8.225   3.740   0.000
28224WAT     H184914   8.277   3.707   0.079
28224WAT     H284915   8.189   3.831   0.020
28225WAT      O84916   9.798   9.476   8.387
28225WAT     H184917   9.830   9.555   8.336
28225WAT     H284918   9.771   9.503   8.480
28226WAT      O84919   3.890   2.239   2.618
28226WAT     H184920   3.920   2.313   2.678
28226WAT     H284921   3.942   2.156   2.639
28227WAT      O84922   9.786   8.217   3.841
28227WAT     H184923   9.845   8.278   3.893
28227WAT     H284924   9.697   8.210   3.887
28228WAT      O84925   9.108   3.291   9.032
28228WAT     H184926   9.049   3.247   9.099
28228WAT     H284927   9.126   3.386   9.059
28229WAT      O84928   7.741   4.888   4.399
28229WAT     H184929   7.825   4.912   4.352
28229WAT     H284930   7.717   4.793   4.379
28230WAT      O84931   2.310   8.551   5.207
28230WAT     H184932   2.351   8.601   5.283
28230WAT     H284933   2.311   8.609   5.125
28231WAT      O84934   6.491   3.839   3.085
28231WAT     H184935   6.452   3.756   3.046
28231WAT     H284936   6.418   3.905   3.103
28232WAT      O84937   7.080   2.361   4.403
28232WAT     H184938   7.122   2.421   4.335
28232WAT     H284939   6.990   2.395   4.428
28233WAT      O84940   8.004   5.576   2.740
28233WAT     H184941   8.020   5.607   2.647
28233WAT     H284942   8.064   5.627   2.803
28234WAT      O84943   9.166   5.623   5.535
28234WAT     H184944   9.235   5.557   5.506
28234WAT     H284945   9.209   5.694   5.591
28235WAT      O84946   9.340   5.442   5.421
28235WAT     H184947   9.281   5.439   5.341
28235WAT     H284948   9.436   5.439   5.392
28236WAT      O84949   3.197   2.539   5.338
28236WAT     H184950   3.158   2.451   5.310
28236WAT     H284951   3.286   2.551   5.295
28237WAT      O84952   5.198   2.988   7.157
28237WAT     H184953   5.248   3.068   7.190
28237WAT     H284954   5.262   2.918   7.128
28238WAT      O84955   5.585   0.526   6.571
28238WAT     H184956   5.586   0.429   6.596
28238WAT     H284957   5.677   0.555   6.545
28239WAT      O84958   3.200   7.672   6.828
28239WAT     H184959   3.204   7.640   6.734
28239WAT     H284960   3.270   7.742   6.843
28240WAT      O84961   4.774   5.383   2.312
28240WAT     H184962   4.686   5.421   2.341
28240WAT     H284963   4.798   5.421   2.223
28241WAT      O84964   1.824   7.513   2.816
28241WAT     H184965   1.767   7.478   2.741
28241WAT     H284966   1.765   7.546   2.890
28242WAT      O84967   8.824   1.318   5.426
28242WAT     H184968   8.828   1.256   5.347
28242WAT     H284969   8.791   1.268   5.506
28243WAT      O84970   1.141   5.180   6.230
28243WAT     H184971   1.154   5.130   6.315
28243WAT     H284972   1.200   5.260   6.229
28244WAT      O84973   9.889   3.024   2.245
28244WAT     H184974   9.793   3.033   2.270
28244WAT     H284975   9.934   2.959   2.306
28245WAT      O84976   9.442   1.657   7.793
28245WAT     H184977   9.478   1.565   7.778
28245WAT     H284978   9.382   1.658   7.873
28246WAT      O84979   2.507   1.302   1.963
28246WAT     H184980   2.440   1.230   1.976
28246WAT     H284981   2.468   1.390   1.991
28247WAT      O84982   3.871   1.458   6.114
28247WAT     H184983   3.865   1.507   6.201
28247WAT     H284984   3.855   1.522   6.039
28248WAT      O84985   4.749   8.865   8.930
28248WAT     H184986   4.793   8.906   9.010
28248WAT     H284987   4.650   8.871   8.939
28249WAT      O84988   4.600   0.258   7.855
28249WAT     H184989   4.597   0.298   7.763
28249WAT     H284990   4.540   0.310   7.916
28250WAT      O84991   4.292   9.009   0.183
28250WAT     H184992   4.295   9.109   0.173
28250WAT     H284993   4.221   8.984   0.249
28251WAT      O84994   6.581   1.032   1.678
28251WAT     H184995   6.521   0.953   1.667
28251WAT     H284996   6.567   1.096   1.602
28252WAT      O84997   1.643   3.027   1.331
28252WAT     H184998   1.728   2.981   1.305
28252WAT     H284999   1.579   2.961   1.369
28253WAT      O85000   0.825   4.549   1.548
28253WAT     H185001   0.798   4.617   1.479
28253WAT     H285002   0.879   4.477   1.505
28254WAT      O85003   5.884   6.639   2.878
28254WAT     H185004   5.791   6.606   2.865
28254WAT     H285005   5.906   6.706   2.808
28255WAT      O85006   7.033   2.529   4.738
28255WAT     H185007   7.040   2.429   4.739
28255WAT     H285008   6.940   2.556   4.712
28256WAT      O85009   1.497   4.504   1.331
28256WAT     H185010   1.519   4.474   1.424
28256WAT     H285011   1.517   4.431   1.266
28257WAT      O85012   5.341   9.488   2.804
28257WAT     H185013   5.335   9.586   2.825
28257WAT     H285014   5.360   9.476   2.707
28258WAT      O85015   5.061   1.370   8.212
28258WAT     H185016   5.125   1.310   8.261
28258WAT     H285017   4.979   1.317   8.187
28259WAT      O85018   8.096   2.905   4.580
28259WAT     H185019   8.073   2.926   4.675
28259WAT     H285020   8.195   2.913   4.567
28260WAT      O85021   0.581   4.940   9.645
28260WAT     H185022   0.531   5.005   9.588
28260WAT     H285023   0.627   4.988   9.720
28261WAT      O85024   1.446   3.383   8.984
28261WAT     H185025   1.380   3.447   9.023
28261WAT     H285026   1.531   3.431   8.962
28262WAT      O85027   1.863   9.707   0.177
28262WAT     H185028   1.848   9.706   0.276
28262WAT     H285029   1.903   9.620   0.148
28263WAT      O85030   2.773   3.107   0.717
28263WAT     H185031   2.687   3.159   0.714
28263WAT     H285032   2.769   3.040   0.791
28264WAT      O85033   0.550   9.309   0.030
28264WAT     H185034   0.581   9.386  -0.026
28264WAT     H285035   0.605   9.228   0.009
28265WAT      O85036   6.340   9.739   3.135
28265WAT     H185037   6.305   9.828   3.164
28265WAT     H285038   6.280   9.667   3.169
28266WAT      O85039   2.997   0.151   4.284
28266WAT     H185040   2.933   0.091   4.237
28266WAT     H285041   3.012   0.234   4.230
28267WAT      O85042   8.378   3.523   4.575
28267WAT     H185043   8.369   3.510   4.673
28267WAT     H285044   8.301   3.480   4.528
28268WAT      O85045   3.938   2.356   9.282
28268WAT     H185046   3.903   2.289   9.216
28268WAT     H285047   3.969   2.309   9.364
28269WAT      O85048   1.491   5.663   1.610
28269WAT     H185049   1.441   5.656   1.524
28269WAT     H285050   1.428   5.645   1.686
28270WAT      O85051   8.597   0.661   7.477
28270WAT     H185052   8.636   0.580   7.433
28270WAT     H285053   8.506   0.640   7.513
28271WAT      O85054   2.294   3.689   4.742
28271WAT     H185055   2.206   3.708   4.698
28271WAT     H285056   2.357   3.650   4.676
28272WAT      O85057   5.670   4.587   3.090
28272WAT     H185058   5.581   4.550   3.064
28272WAT     H285059   5.685   4.573   3.188
28273WAT      O85060   6.468   7.601   0.037
28273WAT     H185061   6.454   7.540  -0.040
28273WAT     H285062   6.385   7.656   0.052
28274WAT      O85063   4.873   8.815   7.919
28274WAT     H185064   4.822   8.901   7.920
28274WAT     H285065   4.833   8.753   7.851
28275WAT      O85066   5.823   5.976   3.910
28275WAT     H185067   5.903   6.034   3.926
28275WAT     H285068   5.752   5.998   3.978
28276WAT      O85069   9.881   1.523   5.322
28276WAT     H185070   9.915   1.473   5.401
28276WAT     H285071   9.818   1.595   5.351
28277WAT      O85072   5.689   3.577   9.874
28277WAT     H185073   5.681   3.660   9.929
28277WAT     H285074   5.768   3.523   9.905
28278WAT      O85075   2.807   9.027   9.437
28278WAT     H185076   2.726   9.079   9.465
28278WAT     H285077   2.838   9.059   9.348
28279WAT      O85078   7.390   5.087   5.877
28279WAT     H185079   7.485   5.061   5.896
28279WAT     H285080   7.334   5.004   5.871
28280WAT      O85081   1.593   1.667   3.632
28280WAT     H185082   1.518   1.649   3.568
28280WAT     H285083   1.657   1.590   3.631
28281WAT      O85084   3.010   5.691   7.216
28281WAT     H185085   2.965   5.620   7.162
28281WAT     H285086   3.081   5.735   7.161
28282WAT      O85087   4.447   6.425   3.010
28282WAT     H185088   4.439   6.351   2.943
28282WAT     H285089   4.525   6.483   2.986
28283WAT      O85090   9.345   0.525   7.402
28283WAT     H185091   9.248   0.526   7.426
28283WAT     H285092   9.380   0.431   7.410
28284WAT      O85093   2.541   1.608   8.667
28284WAT     H185094   2.572   1.702   8.679
28284WAT     H285095   2.515   1.569   8.755
28285WAT      O85096   8.837   7.075   7.865
28285WAT     H185097   8.871   7.167   7.847
28285WAT     H285098   8.740   7.078   7.887
28286WAT      O85099   2.167   6.346   4.683
28286WAT     H185100   2.259   6.308   4.693
28286WAT     H285101   2.132   6.372   4.773
28287WAT      O85102   9.282   2.617   6.177
28287WAT     H185103   9.374   2.644   6.148
28287WAT     H285104   9.247   2.685   6.243
28288WAT      O85105   9.450   8.862   2.260
28288WAT     H185106   9.503   8.794   2.310
28288WAT     H285107   9.412   8.928   2.324
28289WAT      O85108   1.335   1.515   7.489
28289WAT     H185109   1.341   1.431   7.436
28289WAT     H285110   1.415   1.572   7.470
28290WAT      O85111   0.161   2.868   6.648
28290WAT     H185112   0.083   2.886   6.588
28290WAT     H285113   0.128   2.830   6.734
28291WAT      O85114   1.393   2.160   9.386
28291WAT     H185115   1.471   2.106   9.354
28291WAT     H285116   1.322   2.099   9.420
28292WAT      O85117   9.086   7.629   2.295
28292WAT     H185118   9.086   7.664   2.389
28292WAT     H285119   9.060   7.703   2.232
28293WAT      O85120   1.865   4.700   6.865
28293WAT     H185121   1.776   4.745   6.859
28293WAT     H285122   1.878   4.641   6.785
28294WAT      O85123   9.111   2.837   5.336
28294WAT     H185124   9.152   2.888   5.412
28294WAT     H285125   9.051   2.766   5.372
28295WAT      O85126   0.483   0.609   5.620
28295WAT     H185127   0.437   0.697   5.606
28295WAT     H285128   0.415   0.539   5.644
28296WAT      O85129   7.542   6.464   1.979
28296WAT     H185130   7.445   6.444   1.971
28296WAT     H285131   7.563   6.549   1.930
28297WAT      O85132   1.201   0.892   7.055
28297WAT     H185133   1.274   0.824   7.056
28297WAT     H285134   1.184   0.925   7.148
28298WAT      O85135   2.941   2.167   7.363
28298WAT     H185136   2.842   2.179   7.377
28298WAT     H285137   2.990   2.239   7.412
28299WAT      O85138   7.791   4.089   8.065
28299WAT     H185139   7.785   4.071   7.967
28299WAT     H285140   7.724   4.033   8.114
28300WAT      O85141   7.533   8.947   6.520
28300WAT     H185142   7.455   8.897   6.560
28300WAT     H285143   7.527   9.043   6.546
28301WAT      O85144   3.320   1.783   7.447
28301WAT     H185145   3.415   1.807   7.427
28301WAT     H285146   3.272   1.864   7.483
28302WAT      O85147   1.791   7.074   5.993
28302WAT     H185148   1.715   7.132   6.022
28302WAT     H285149   1.820   7.017   6.070
28303WAT      O85150   5.115   9.032   1.326
28303WAT     H185151   5.021   9.040   1.292
28303WAT     H285152   5.122   9.074   1.416
28304WAT      O85153   7.436   1.269   0.520
28304WAT     H185154   7.516   1.329   0.517
28304WAT     H285155   7.358   1.320   0.557
28305WAT      O85156   7.395   0.789   3.395
28305WAT     H185157   7.345   0.876   3.392
28305WAT     H285158   7.391   0.746   3.305
28306WAT      O85159   3.276   8.821   1.536
28306WAT     H185160   3.360   8.788   1.493
28306WAT     H285161   3.204   8.831   1.467
28307WAT      O85162   7.375   5.085   4.341
28307WAT     H185163   7.400   5.012   4.278
28307WAT     H285164   7.385   5.173   4.295
28308WAT      O85165   7.024   3.146   0.410
28308WAT     H185166   7.036   3.219   0.478
28308WAT     H285167   7.080   3.165   0.330
28309WAT      O85168   7.501   5.070   3.470
28309WAT     H185169   7.471   5.161   3.441
28309WAT     H285170   7.594   5.053   3.437
28310WAT      O85171   4.917   3.743   2.071
28310WAT     H185172   4.927   3.727   2.169
28310WAT     H285173   4.823   3.774   2.052
28311WAT      O85174   3.233   8.881   0.869
28311WAT     H185175   3.295   8.907   0.943
28311WAT     H285176   3.211   8.784   0.875
28312WAT      O85177   6.635   7.666   9.208
28312WAT     H185178   6.681   7.723   9.140
28312WAT     H285179   6.540   7.696   9.218
28313WAT      O85180   1.622   4.332   3.523
28313WAT     H185181   1.684   4.345   3.599
28313WAT     H285182   1.600   4.421   3.481
28314WAT      O85183   3.151   8.858   9.657
28314WAT     H185184   3.241   8.834   9.692
28314WAT     H285185   3.140   8.822   9.564
28315WAT      O85186   9.020   4.715   3.415
28315WAT     H185187   9.032   4.616   3.411
28315WAT     H285188   8.926   4.737   3.440
28316WAT      O85189   9.603   8.211   0.659
28316WAT     H185190   9.555   8.289   0.698
28316WAT     H285191   9.583   8.204   0.561
28317WAT      O85192   1.502   8.202   0.123
28317WAT     H185193   1.415   8.227   0.164
28317WAT     H285194   1.527   8.110   0.151
28318WAT      O85195   7.579   3.610   2.706
28318WAT     H185196   7.490   3.640   2.741
28318WAT     H285197   7.633   3.690   2.680
28319WAT      O85198   5.532   4.433   8.183
28319WAT     H185199   5.484   4.402   8.101
28319WAT     H285200   5.500   4.380   8.262
28320WAT      O85201   3.345   5.438   0.755
28320WAT     H185202   3.398   5.449   0.671
28320WAT     H285203   3.389   5.488   0.829
28321WAT      O85204   9.160   7.522   0.513
28321WAT     H185205   9.132   7.615   0.489
28321WAT     H285206   9.078   7.465   0.525
28322WAT      O85207   1.121   8.409   8.513
28322WAT     H185208   1.187   8.450   8.576
28322WAT     H285209   1.169   8.351   8.447
28323WAT      O85210   4.154   7.526   8.678
28323WAT     H185211   4.119   7.473   8.601
28323WAT     H285212   4.080   7.549   8.740
28324WAT      O85213   8.513   6.902   8.483
28324WAT     H185214   8.576   6.894   8.560
28324WAT     H285215   8.425   6.939   8.515
28325WAT      O85216   1.924   7.305   0.261
28325WAT     H185217   2.019   7.296   0.232
28325WAT     H285218   1.905   7.401   0.283
28326WAT      O85219   0.500   5.759   6.427
28326WAT     H185220   0.405   5.790   6.422
28326WAT     H285221   0.559   5.836   6.451
28327WAT      O85222   0.890   3.275   2.766
28327WAT     H185223   0.816   3.212   2.740
28327WAT     H285224   0.978   3.232   2.748
28328WAT      O85225   0.895   7.350   0.667
28328WAT     H185226   0.845   7.330   0.751
28328WAT     H285227   0.967   7.417   0.685
28329WAT      O85228   6.463   8.257   4.957
28329WAT     H185229   6.434   8.196   4.883
28329WAT     H285230   6.539   8.215   5.007
28330WAT      O85231   7.089   2.639   1.138
28330WAT     H185232   7.152   2.612   1.065
28330WAT     H285233   7.139   2.693   1.207
28331WAT      O85234   6.296   0.357   8.118
28331WAT     H185235   6.276   0.298   8.196
28331WAT     H285236   6.225   0.427   8.111
28332WAT      O85237   5.454   5.789   1.576
28332WAT     H185238   5.377   5.745   1.621
28332WAT     H285239   5.506   5.721   1.524
28333WAT      O85240   0.447   0.172   3.072
28333WAT     H185241   0.535   0.134   3.102
28333WAT     H285242   0.428   0.143   2.979
28334WAT      O85243   8.406   4.148   9.836
28334WAT     H185244   8.461   4.190   9.765
28334WAT     H285245   8.340   4.214   9.871
28335WAT      O85246   0.174   5.190   1.671
28335WAT     H185247   0.164   5.243   1.756
28335WAT     H285248   0.100   5.215   1.608
28336WAT      O85249   2.491   2.260   2.121
28336WAT     H185250   2.446   2.301   2.041
28336WAT     H285251   2.443   2.287   2.204
28337WAT      O85252   2.519   6.808   9.023
28337WAT     H185253   2.509   6.781   8.928
28337WAT     H285254   2.584   6.884   9.030
28338WAT      O85255   7.343   6.047   2.443
28338WAT     H185256   7.438   6.034   2.474
28338WAT     H285257   7.343   6.084   2.350
28339WAT      O85258   4.444   0.967   4.201
28339WAT     H185259   4.525   0.987   4.145
28339WAT     H285260   4.407   1.052   4.239
28340WAT      O85261   8.975   6.850   7.921
28340WAT     H185262   8.992   6.834   8.018
28340WAT     H285263   8.936   6.941   7.909
28341WAT      O85264   1.704   0.251   7.284
28341WAT     H185265   1.754   0.329   7.321
28341WAT     H285266   1.757   0.210   7.209
28342WAT      O85267   9.706   8.547   7.160
28342WAT     H185268   9.770   8.616   7.126
28342WAT     H285269   9.698   8.473   7.093
28343WAT      O85270   0.896   9.695   2.582
28343WAT     H185271   0.846   9.771   2.624
28343WAT     H285272   0.940   9.726   2.497
28344WAT      O85273   5.781   6.375   9.596
28344WAT     H185274   5.791   6.436   9.675
28344WAT     H285275   5.838   6.408   9.521
28345WAT      O85276   7.912   3.650   9.094
28345WAT     H185277   7.813   3.645   9.083
28345WAT     H285278   7.937   3.637   9.190
28346WAT      O85279   9.594   0.973   6.729
28346WAT     H185280   9.557   1.007   6.815
28346WAT     H285281   9.693   0.987   6.729
28347WAT      O85282   2.873   8.761   2.481
28347WAT     H185283   2.879   8.718   2.391
28347WAT     H285284   2.791   8.728   2.529
28348WAT      O85285   4.493   6.264   0.217
28348WAT     H185286   4.526   6.358   0.218
28348WAT     H285287   4.415   6.256   0.279
28349WAT      O85288   8.423   4.460   9.434
28349WAT     H185289   8.515   4.491   9.460
28349WAT     H285290   8.390   4.514   9.356
28350WAT      O85291   1.574   1.089   8.447
28350WAT     H185292   1.536   1.137   8.368
28350WAT     H285293   1.619   1.005   8.415
28351WAT      O85294   3.172   8.238   9.197
28351WAT     H185295   3.141   8.179   9.271
28351WAT     H285296   3.101   8.245   9.127
28352WAT      O85297   6.330   9.290   7.198
28352WAT     H185298   6.340   9.209   7.139
28352WAT     H285299   6.397   9.359   7.171
28353WAT      O85300   0.726   0.401   7.771
28353WAT     H185301   0.710   0.304   7.792
28353WAT     H285302   0.770   0.445   7.849
28354WAT      O85303   8.438   9.388   4.579
28354WAT     H185304   8.536   9.390   4.599
28354WAT     H285305   8.413   9.298   4.545
28355WAT      O85306   9.161   9.239   3.861
28355WAT     H185307   9.095   9.300   3.817
28355WAT     H285308   9.117   9.196   3.940
28356WAT      O85309   5.799   4.474   6.813
28356WAT     H185310   5.709   4.440   6.783
28356WAT     H285311   5.859   4.483   6.733
28357WAT      O85312   8.382   2.355   4.172
28357WAT     H185313   8.402   2.411   4.091
28357WAT     H285314   8.299   2.302   4.155
28358WAT      O85315   8.504   3.504   1.104
28358WAT     H185316   8.556   3.588   1.090
28358WAT     H285317   8.407   3.526   1.111
28359WAT      O85318   2.515   6.579   0.557
28359WAT     H185319   2.461   6.506   0.600
28359WAT     H285320   2.601   6.591   0.607
28360WAT      O85321   6.306   8.882   3.685
28360WAT     H185322   6.241   8.806   3.673
28360WAT     H285323   6.260   8.957   3.733
28361WAT      O85324   4.066   9.440   4.664
28361WAT     H185325   4.091   9.375   4.592
28361WAT     H285326   3.969   9.430   4.685
28362WAT      O85327   8.074   2.908   5.216
28362WAT     H185328   7.994   2.848   5.220
28362WAT     H285329   8.144   2.873   5.277
28363WAT      O85330   2.525   6.794   2.095
28363WAT     H185331   2.589   6.772   2.168
28363WAT     H285332   2.559   6.872   2.043
28364WAT      O85333   2.662   3.412   8.302
28364WAT     H185334   2.696   3.452   8.387
28364WAT     H285335   2.586   3.351   8.322
28365WAT      O85336   8.289   8.429   6.935
28365WAT     H185337   8.360   8.485   6.977
28365WAT     H285338   8.207   8.485   6.920
28366WAT      O85339   1.206   4.955   7.392
28366WAT     H185340   1.283   4.986   7.337
28366WAT     H285341   1.222   4.861   7.423
28367WAT      O85342   0.956   7.244   3.120
28367WAT     H185343   0.949   7.284   3.212
28367WAT     H285344   0.890   7.287   3.060
28368WAT      O85345   1.569   5.622   2.450
28368WAT     H185346   1.529   5.619   2.358
28368WAT     H285347   1.568   5.716   2.484
28369WAT      O85348   1.741   0.574   5.758
28369WAT     H185349   1.801   0.550   5.834
28369WAT     H285350   1.716   0.671   5.765
28370WAT      O85351   6.523   3.789   5.816
28370WAT     H185352   6.433   3.830   5.803
28370WAT     H285353   6.587   3.859   5.848
28371WAT      O85354   8.297   8.748   3.631
28371WAT     H185355   8.359   8.742   3.709
28371WAT     H285356   8.229   8.675   3.637
28372WAT      O85357   6.094   5.088   5.226
28372WAT     H185358   6.181   5.110   5.270
28372WAT     H285359   6.110   5.062   5.131
28373WAT      O85360   6.807   8.785   4.683
28373WAT     H185361   6.872   8.741   4.621
28373WAT     H285362   6.714   8.777   4.646
28374WAT      O85363   3.628   7.126   2.181
28374WAT     H185364   3.677   7.213   2.192
28374WAT     H285365   3.535   7.144   2.150
28375WAT      O85366   4.462   8.375   6.586
28375WAT     H185367   4.366   8.348   6.584
28375WAT     H285368   4.519   8.294   6.598
28376WAT      O85369   9.159   5.132   3.663
28376WAT     H185370   9.148   5.101   3.569
28376WAT     H285371   9.141   5.057   3.726
28377WAT      O85372   6.603   3.777   5.529
28377WAT     H185373   6.524   3.836   5.545
28377WAT     H285374   6.580   3.707   5.462
28378WAT      O85375   2.192   0.770   1.205
28378WAT     H185376   2.189   0.694   1.270
28378WAT     H285377   2.099   0.803   1.186
28379WAT      O85378   8.925   7.043   2.136
28379WAT     H185379   8.920   6.969   2.069
28379WAT     H285380   8.836   7.053   2.181
28380WAT      O85381   3.462   5.595   3.742
28380WAT     H185382   3.535   5.601   3.810
28380WAT     H285383   3.374   5.593   3.788
28381WAT      O85384   5.849   5.640   1.243
28381WAT     H185385   5.903   5.693   1.309
28381WAT     H285386   5.777   5.699   1.205
28382WAT      O85387   0.239   3.687   1.327
28382WAT     H185388   0.226   3.599   1.281
28382WAT     H285389   0.306   3.741   1.277
28383WAT      O85390   8.101   3.044   1.709
28383WAT     H185391   8.015   3.081   1.673
28383WAT     H285392   8.083   2.997   1.795
28384WAT      O85393   8.462   4.567   4.142
28384WAT     H185394   8.407   4.634   4.192
28384WAT     H285395   8.457   4.478   4.188
28385WAT      O85396   3.598   0.342   6.805
28385WAT     H185397   3.673   0.403   6.778
28385WAT     H285398   3.636   0.261   6.850
28386WAT      O85399   8.480   8.236   3.647
28386WAT     H185400   8.519   8.158   3.696
28386WAT     H285401   8.444   8.206   3.559
28387WAT      O85402   0.431   8.778   4.058
28387WAT     H185403   0.370   8.843   4.014
28387WAT     H285404   0.517   8.773   4.006
28388WAT      O85405   8.285   0.106   0.720
28388WAT     H185406   8.312   0.033   0.656
28388WAT     H285407   8.314   0.194   0.683
28389WAT      O85408   4.228   9.700   9.488
28389WAT     H185409   4.154   9.754   9.529
28389WAT     H285410   4.208   9.685   9.391
28390WAT      O85411   6.773   6.989   0.406
28390WAT     H185412   6.798   7.016   0.313
28390WAT     H285413   6.676   7.008   0.421
28391WAT      O85414   8.491   5.593   9.045
28391WAT     H185415   8.569   5.589   8.982
28391WAT     H285416   8.406   5.592   8.993
28392WAT      O85417   9.767   6.180   2.270
28392WAT     H185418   9.790   6.181   2.367
28392WAT     H285419   9.778   6.272   2.232
28393WAT      O85420   1.944   1.602   9.658
28393WAT     H185421   1.980   1.586   9.566
28393WAT     H285422   2.019   1.630   9.719
28394WAT      O85423   8.472   3.691   2.184
28394WAT     H185424   8.404   3.744   2.133
28394WAT     H285425   8.562   3.734   2.175
28395WAT      O85426   0.491   1.897   8.031
28395WAT     H185427   0.585   1.922   8.007
28395WAT     H285428   0.487   1.800   8.054
28396WAT      O85429   4.867   0.166   6.842
28396WAT     H185430   4.939   0.106   6.878
28396WAT     H285431   4.801   0.186   6.915
28397WAT      O85432   1.480   4.510   2.878
28397WAT     H185433   1.398   4.459   2.851
28397WAT     H285434   1.463   4.608   2.873
28398WAT      O85435   5.184   0.681   9.096
28398WAT     H185436   5.229   0.617   9.157
28398WAT     H285437   5.148   0.633   9.016
28399WAT      O85438   0.267   5.008   8.100
28399WAT     H185439   0.293   4.982   8.008
28399WAT     H285440   0.268   5.108   8.108
28400WAT      O85441   1.177   3.918   0.663
28400WAT     H185442   1.172   3.828   0.706
28400WAT     H285443   1.273   3.943   0.650
28401WAT      O85444   4.875   1.423   7.876
28401WAT     H185445   4.871   1.510   7.827
28401WAT     H285446   4.838   1.435   7.968
28402WAT      O85447   3.347   2.846   4.854
28402WAT     H185448   3.289   2.808   4.782
28402WAT     H285449   3.379   2.936   4.827
28403WAT      O85450   1.797   3.892   2.403
28403WAT     H185451   1.729   3.949   2.356
28403WAT     H285452   1.857   3.849   2.335
28404WAT      O85453   9.344   0.648   8.247
28404WAT     H185454   9.314   0.728   8.193
28404WAT     H285455   9.275   0.627   8.316
28405WAT      O85456   5.422   4.757   7.801
28405WAT     H185457   5.354   4.701   7.753
28405WAT     H285458   5.417   4.738   7.899
28406WAT      O85459   9.777   5.923   5.461
28406WAT     H185460   9.806   5.978   5.382
28406WAT     H285461   9.767   5.828   5.433
28407WAT      O85462   2.067   6.521   9.734
28407WAT     H185463   2.157   6.560   9.750
28407WAT     H285464   2.048   6.451   9.803
28408WAT      O85465   4.294   3.898   8.673
28408WAT     H185466   4.294   3.993   8.641
28408WAT     H285467   4.272   3.896   8.771
28409WAT      O85468   3.273   7.143   7.726
28409WAT     H185469   3.347   7.206   7.702
28409WAT     H285470   3.186   7.191   7.723
28410WAT      O85471   6.751   0.454   9.792
28410WAT     H185472   6.824   0.429   9.856
28410WAT     H285473   6.681   0.507   9.840
28411WAT      O85474   2.841   7.906   8.286
28411WAT     H185475   2.821   7.840   8.213
28411WAT     H285476   2.765   7.907   8.351
28412WAT      O85477   7.837   7.936   1.176
28412WAT     H185478   7.835   7.898   1.268
28412WAT     H285479   7.853   7.863   1.110
28413WAT      O85480   4.495   5.040   3.324
28413WAT     H185481   4.396   5.052   3.331
28413WAT     H285482   4.524   5.056   3.229
28414WAT      O85483   1.228   8.485   5.330
28414WAT     H185484   1.226   8.387   5.316
28414WAT     H285485   1.205   8.532   5.245
28415WAT      O85486   6.768   7.038   3.425
28415WAT     H185487   6.823   6.980   3.364
28415WAT     H285488   6.671   7.025   3.405
28416WAT      O85489   3.069   2.297   4.864
28416WAT     H185490   2.976   2.269   4.887
28416WAT     H285491   3.080   2.395   4.885
28417WAT      O85492   0.507   9.123   5.652
28417WAT     H185493   0.469   9.212   5.626
28417WAT     H285494   0.443   9.077   5.713
28418WAT      O85495   0.288   0.659   6.690
28418WAT     H185496   0.321   0.617   6.775
28418WAT     H285497   0.333   0.615   6.612
28419WAT      O85498   5.109   6.649   9.479
28419WAT     H185499   5.032   6.587   9.466
28419WAT     H285500   5.078   6.732   9.524
28420WAT      O85501   5.178   0.920   5.348
28420WAT     H185502   5.104   0.958   5.403
28420WAT     H285503   5.160   0.938   5.251
28421WAT      O85504   8.435   1.893   9.338
28421WAT     H185505   8.389   1.868   9.252
28421WAT     H285506   8.431   1.992   9.350
28422WAT      O85507   5.024   6.951   1.906
28422WAT     H185508   5.067   6.882   1.849
28422WAT     H285509   5.094   7.013   1.943
28423WAT      O85510   1.953   4.803   2.391
28423WAT     H185511   1.972   4.778   2.296
28423WAT     H285512   1.992   4.893   2.411
28424WAT      O85513   7.410   5.970   1.702
28424WAT     H185514   7.463   6.050   1.673
28424WAT     H285515   7.346   5.945   1.630
28425WAT      O85516   4.625   4.022   8.539
28425WAT     H185517   4.598   3.982   8.451
28425WAT     H285518   4.620   3.953   8.610
28426WAT      O85519   8.709   0.722   8.273
28426WAT     H185520   8.771   0.659   8.227
28426WAT     H285521   8.747   0.748   8.361
28427WAT      O85522   0.174   5.583   5.243
28427WAT     H185523   0.088   5.571   5.194
28427WAT     H285524   0.158   5.582   5.341
28428WAT      O85525   7.438   0.128   2.883
28428WAT     H185526   7.536   0.108   2.879
28428WAT     H285527   7.404   0.147   2.791
28429WAT      O85528   3.044   0.100   0.625
28429WAT     H185529   3.106   0.066   0.554
28429WAT     H285530   2.953   0.061   0.612
28430WAT      O85531   5.363   7.983   5.624
28430WAT     H185532   5.436   7.926   5.661
28430WAT     H285533   5.276   7.937   5.635
28431WAT      O85534   3.510   3.220   5.257
28431WAT     H185535   3.436   3.201   5.193
28431WAT     H285536   3.591   3.167   5.231
28432WAT      O85537   7.733   0.330   2.043
28432WAT     H185538   7.737   0.255   1.976
28432WAT     H285539   7.788   0.306   2.123
28433WAT      O85540   8.794   1.418   0.334
28433WAT     H185541   8.805   1.497   0.274
28433WAT     H285542   8.883   1.394   0.373
28434WAT      O85543   9.569   7.708   3.695
28434WAT     H185544   9.625   7.790   3.683
28434WAT     H285545   9.472   7.734   3.694
28435WAT      O85546   5.107   7.745   3.338
28435WAT     H185547   5.067   7.816   3.281
28435WAT     H285548   5.081   7.655   3.303
28436WAT      O85549   5.028   6.932   1.598
28436WAT     H185550   5.062   6.893   1.513
28436WAT     H285551   5.100   6.984   1.642
28437WAT      O85552   4.575   8.140   4.170
28437WAT     H185553   4.661   8.115   4.125
28437WAT     H285554   4.541   8.061   4.222
28438WAT      O85555   5.037   5.093   7.052
28438WAT     H185556   5.105   5.138   7.110
28438WAT     H285557   5.078   5.074   6.962
28439WAT      O85558   6.196   9.666   0.221
28439WAT     H185559   6.141   9.705   0.295
28439WAT     H285560   6.205   9.567   0.235
28440WAT      O85561   5.621   9.285   4.177
28440WAT     H185562   5.632   9.187   4.195
28440WAT     H285563   5.661   9.337   4.252
28441WAT      O85564   6.751   1.213   2.153
28441WAT     H185565   6.707   1.192   2.240
28441WAT     H285566   6.843   1.173   2.152
28442WAT      O85567   3.188   1.144   1.148
28442WAT     H185568   3.099   1.189   1.154
28442WAT     H285569   3.247   1.177   1.221
28443WAT      O85570   8.393   6.282   7.059
28443WAT     H185571   8.330   6.207   7.039
28443WAT     H285572   8.366   6.363   7.008
28444WAT      O85573   9.527   2.851   6.401
28444WAT     H185574   9.454   2.888   6.344
28444WAT     H285575   9.615   2.864   6.355
28445WAT      O85576   0.822   5.347   7.862
28445WAT     H185577   0.730   5.381   7.838
28445WAT     H285578   0.889   5.420   7.846
28446WAT      O85579   7.582   2.713   5.663
28446WAT     H185580   7.604   2.782   5.731
28446WAT     H285581   7.547   2.631   5.708
28447WAT      O85582   8.138   2.909   2.942
28447WAT     H185583   8.092   2.963   2.871
28447WAT     H285584   8.230   2.946   2.957
28448WAT      O85585   5.453   1.485   1.543
28448WAT     H185586   5.398   1.524   1.469
28448WAT     H285587   5.512   1.556   1.582
28449WAT      O85588   4.895   5.289   8.079
28449WAT     H185589   4.936   5.377   8.055
28449WAT     H285590   4.941   5.252   8.160
28450WAT      O85591   7.288   7.926   0.045
28450WAT     H185592   7.191   7.941   0.068
28450WAT     H285593   7.308   7.967  -0.044
28451WAT      O85594   5.633   8.973   5.051
28451WAT     H185595   5.549   9.025   5.068
28451WAT     H285596   5.713   9.031   5.072
28452WAT      O85597   4.899   5.966   0.174
28452WAT     H185598   4.943   5.880   0.201
28452WAT     H285599   4.814   5.945   0.126
28453WAT      O85600   0.499   7.869   1.680
28453WAT     H185601   0.508   7.794   1.615
28453WAT     H285602   0.527   7.838   1.771
28454WAT      O85603   5.106   1.231   2.360
28454WAT     H185604   5.106   1.249   2.458
28454WAT     H285605   5.032   1.166   2.338
28455WAT      O85606   3.438   4.728   4.598
28455WAT     H185607   3.497   4.649   4.611
28455WAT     H285608   3.479   4.790   4.531
28456WAT      O85609   6.539   4.334   8.325
28456WAT     H185610   6.460   4.350   8.383
28456WAT     H285611   6.534   4.242   8.287
28457WAT      O85612   4.179   0.287   1.281
28457WAT     H185613   4.232   0.348   1.221
28457WAT     H285614   4.169   0.330   1.371
28458WAT      O85615   0.993   4.546   7.036
28458WAT     H185616   0.895   4.568   7.032
28458WAT     H285617   1.031   4.545   6.944
28459WAT      O85618   5.530   1.088   5.776
28459WAT     H185619   5.517   1.079   5.677
28459WAT     H285620   5.450   1.051   5.823
28460WAT      O85621   8.188   0.832   0.710
28460WAT     H185622   8.162   0.735   0.709
28460WAT     H285623   8.190   0.866   0.616
28461WAT      O85624   7.217   6.997   0.058
28461WAT     H185625   7.180   7.085   0.088
28461WAT     H285626   7.153   6.924   0.081
28462WAT      O85627   5.883   1.523   0.876
28462WAT     H185628   5.813   1.591   0.857
28462WAT     H285629   5.914   1.531   0.971
28463WAT      O85630   5.902   5.906   2.529
28463WAT     H185631   5.904   5.915   2.430
28463WAT     H285632   5.808   5.892   2.560
28464WAT      O85633   0.307   0.567   3.201
28464WAT     H185634   0.209   0.576   3.218
28464WAT     H285635   0.349   0.658   3.199
28465WAT      O85636   0.226   1.297   2.423
28465WAT     H185637   0.212   1.327   2.518
28465WAT     H285638   0.324   1.290   2.405
28466WAT      O85639   6.359   5.585   1.060
28466WAT     H185640   6.304   5.627   0.988
28466WAT     H285641   6.368   5.648   1.137
28467WAT      O85642   3.220   0.483   8.325
28467WAT     H185643   3.246   0.405   8.382
28467WAT     H285644   3.135   0.523   8.360
28468WAT      O85645   2.628   9.336   0.281
28468WAT     H185646   2.609   9.248   0.325
28468WAT     H285647   2.546   9.393   0.284
28469WAT      O85648   9.483   2.931   1.097
28469WAT     H185649   9.509   2.878   1.016
28469WAT     H285650   9.426   3.009   1.068
28470WAT      O85651   4.932   9.683   6.736
28470WAT     H185652   4.993   9.688   6.657
28470WAT     H285653   4.850   9.736   6.719
28471WAT      O85654   8.018   2.645   1.433
28471WAT     H185655   8.076   2.726   1.436
28471WAT     H285656   8.071   2.564   1.458
28472WAT      O85657   9.002   9.641   2.993
28472WAT     H185658   8.969   9.669   3.084
28472WAT     H285659   8.943   9.568   2.958
28473WAT      O85660   3.448   3.274   8.925
28473WAT     H185661   3.449   3.202   8.995
28473WAT     H285662   3.356   3.281   8.886
28474WAT      O85663   0.762   7.922   3.003
28474WAT     H185664   0.745   7.843   3.062
28474WAT     H285665   0.800   7.997   3.056
28475WAT      O85666   5.094   2.257   1.352
28475WAT     H185667   5.129   2.175   1.308
28475WAT     H285668   5.018   2.294   1.298
28476WAT      O85669   3.887   7.700   7.190
28476WAT     H185670   3.834   7.671   7.110
28476WAT     H285671   3.887   7.626   7.258
28477WAT      O85672   7.962   4.385   2.428
28477WAT     H185673   7.930   4.349   2.515
28477WAT     H285674   8.009   4.472   2.443
28478WAT      O85675   1.201   2.446   5.929
28478WAT     H185676   1.279   2.488   5.975
28478WAT     H285677   1.227   2.356   5.894
28479WAT      O85678   8.000   2.974   0.779
28479WAT     H185679   8.069   3.038   0.745
28479WAT     H285680   7.920   2.975   0.719
28480WAT      O85681   2.588   6.746   6.290
28480WAT     H185682   2.512   6.680   6.287
28480WAT     H285683   2.590   6.789   6.380
28481WAT      O85684   3.613   8.019   1.379
28481WAT     H185685   3.690   8.035   1.317
28481WAT     H285686   3.535   8.073   1.349
28482WAT      O85687   9.355   2.212   6.574
28482WAT     H185688   9.364   2.245   6.668
28482WAT     H285689   9.332   2.288   6.513
28483WAT      O85690   6.889   8.803   6.024
28483WAT     H185691   6.918   8.712   6.054
28483WAT     H285692   6.916   8.871   6.092
28484WAT      O85693   0.496   1.055   5.803
28484WAT     H185694   0.471   1.072   5.899
28484WAT     H285695   0.447   0.975   5.770
28485WAT      O85696   1.097   2.805   4.272
28485WAT     H185697   1.043   2.722   4.258
28485WAT     H285698   1.127   2.840   4.183
28486WAT      O85699   8.239   8.008   2.263
28486WAT     H185700   8.158   7.956   2.289
28486WAT     H285701   8.256   7.996   2.165
28487WAT      O85702   8.838   0.475   5.299
28487WAT     H185703   8.812   0.527   5.380
28487WAT     H285704   8.938   0.471   5.294
28488WAT      O85705   3.862   0.125   5.212
28488WAT     H185706   3.847   0.211   5.164
28488WAT     H285707   3.807   0.053   5.170
28489WAT      O85708   2.232   6.897   9.739
28489WAT     H185709   2.237   6.817   9.798
28489WAT     H285710   2.311   6.899   9.678
28490WAT      O85711   8.290   4.747   1.197
28490WAT     H185712   8.252   4.737   1.290
28490WAT     H285713   8.389   4.739   1.201
28491WAT      O85714   0.465   9.713   1.985
28491WAT     H185715   0.369   9.722   1.960
28491WAT     H285716   0.509   9.803   1.983
28492WAT      O85717   9.209   5.372   7.838
28492WAT     H185718   9.226   5.440   7.909
28492WAT     H285719   9.111   5.372   7.815
28493WAT      O85720   9.095   7.612   1.880
28493WAT     H185721   9.158   7.539   1.852
28493WAT     H285722   9.006   7.573   1.902
28494WAT      O85723   9.809   1.277   6.077
28494WAT     H185724   9.830   1.180   6.091
28494WAT     H285725   9.745   1.286   6.001
28495WAT      O85726   8.784   4.655   5.662
28495WAT     H185727   8.849   4.694   5.596
28495WAT     H285728   8.734   4.728   5.708
28496WAT      O85729   8.548   4.808   8.268
28496WAT     H185730   8.612   4.805   8.345
28496WAT     H285731   8.501   4.720   8.260
28497WAT      O85732   2.933   2.438   1.869
28497WAT     H185733   2.901   2.443   1.964
28497WAT     H285734   3.030   2.462   1.865
28498WAT      O85735   2.786   0.316   3.314
28498WAT     H185736   2.697   0.361   3.315
28498WAT     H285737   2.854   0.376   3.354
28499WAT      O85738   6.393   6.316   1.202
28499WAT     H185739   6.450   6.325   1.284
28499WAT     H285740   6.369   6.407   1.168
28500WAT      O85741   7.112   8.385   0.213
28500WAT     H185742   7.111   8.287   0.235
28500WAT     H285743   7.069   8.436   0.288
28501WAT      O85744   5.679   3.201   7.959
28501WAT     H185745   5.657   3.271   7.891
28501WAT     H285746   5.693   3.245   8.048
28502WAT      O85747   0.383   3.109   0.618
28502WAT     H185748   0.305   3.129   0.559
28502WAT     H285749   0.352   3.095   0.712
28503WAT      O85750   8.471   2.630   6.708
28503WAT     H185751   8.387   2.583   6.735
28503WAT     H285752   8.545   2.604   6.771
28504WAT      O85753   0.002   9.142   9.688
28504WAT     H185754   0.021   9.060   9.634
28504WAT     H285755   0.081   9.204   9.683
28505WAT      O85756   2.547   6.037   2.886
28505WAT     H185757   2.513   6.130   2.901
28505WAT     H285758   2.610   6.013   2.959
28506WAT      O85759   3.051   9.816   1.957
28506WAT     H185760   2.996   9.872   2.019
28506WAT     H285761   3.002   9.802   1.872
28507WAT      O85762   1.192   8.748   6.543
28507WAT     H185763   1.235   8.667   6.501
28507WAT     H285764   1.161   8.810   6.472
28508WAT      O85765   9.826   9.379   7.668
28508WAT     H185766   9.747   9.433   7.695
28508WAT     H285767   9.859   9.410   7.579
28509WAT      O85768   4.503   8.221   7.069
28509WAT     H185769   4.522   8.150   7.000
28509WAT     H285770   4.421   8.270   7.044
28510WAT      O85771   5.618   3.052   2.742
28510WAT     H185772   5.547   2.980   2.744
28510WAT     H285773   5.576   3.140   2.762
28511WAT      O85774   1.775   4.424   3.796
28511WAT     H185775   1.865   4.390   3.767
28511WAT     H285776   1.746   4.376   3.878
28512WAT      O85777   0.806   7.165   1.944
28512WAT     H185778   0.782   7.176   2.041
28512WAT     H285779   0.722   7.163   1.889
28513WAT      O85780   0.166   5.576   6.151
28513WAT     H185781   0.264   5.580   6.132
28513WAT     H285782   0.152   5.555   6.248
28514WAT      O85783   6.126   3.543   5.066
28514WAT     H185784   6.178   3.608   5.011
28514WAT     H285785   6.149   3.450   5.037
28515WAT      O85786   6.125   6.484   3.635
28515WAT     H185787   6.186   6.491   3.556
28515WAT     H285788   6.163   6.537   3.711
28516WAT      O85789   6.913   4.051   3.009
28516WAT     H185790   6.977   3.975   3.021
28516WAT     H285791   6.830   4.017   2.964
28517WAT      O85792   6.042   4.190   0.822
28517WAT     H185793   6.084   4.281   0.819
28517WAT     H285794   5.954   4.193   0.775
28518WAT      O85795   5.690   3.922   7.094
28518WAT     H185796   5.757   3.923   7.168
28518WAT     H285797   5.663   4.016   7.073
28519WAT      O85798   8.151   3.737   7.511
28519WAT     H185799   8.206   3.743   7.594
28519WAT     H285800   8.162   3.820   7.457
28520WAT      O85801   2.759   6.157   5.656
28520WAT     H185802   2.787   6.223   5.586
28520WAT     H285803   2.687   6.098   5.619
28521WAT      O85804   0.301   3.345   2.894
28521WAT     H185805   0.225   3.410   2.882
28521WAT     H285806   0.267   3.252   2.878
28522WAT      O85807   2.862   6.886   8.088
28522WAT     H185808   2.961   6.901   8.099
28522WAT     H285809   2.816   6.902   8.175
28523WAT      O85810   1.378   2.337   3.401
28523WAT     H185811   1.399   2.239   3.411
28523WAT     H285812   1.450   2.390   3.446
28524WAT      O85813   6.055   1.544   8.567
28524WAT     H185814   6.093   1.611   8.504
28524WAT     H285815   6.030   1.461   8.516
28525WAT      O85816   1.052   0.914   0.239
28525WAT     H185817   1.005   0.890   0.324
28525WAT     H285818   1.111   0.839   0.211
28526WAT      O85819   5.236   7.601   7.822
28526WAT     H185820   5.138   7.580   7.814
28526WAT     H285821   5.281   7.529   7.875
28527WAT      O85822   0.756   9.119   7.330
28527WAT     H185823   0.788   9.065   7.252
28527WAT     H285824   0.752   9.215   7.305
28528WAT      O85825   3.339   3.673   5.459
28528WAT     H185826   3.396   3.744   5.502
28528WAT     H285827   3.291   3.622   5.530
28529WAT      O85828   7.753   3.589   4.697
28529WAT     H185829   7.684   3.591   4.624
28529WAT     H285830   7.780   3.495   4.715
28530WAT      O85831   8.720   9.225   0.577
28530WAT     H185832   8.802   9.277   0.550
28530WAT     H285833   8.728   9.131   0.542
28531WAT      O85834   6.592   2.263   6.261
28531WAT     H185835   6.581   2.182   6.202
28531WAT     H285836   6.671   2.316   6.230
28532WAT      O85837   4.180   5.157   0.638
28532WAT     H185838   4.145   5.160   0.545
28532WAT     H285839   4.255   5.092   0.644
28533WAT      O85840   7.491   4.799   6.696
28533WAT     H185841   7.480   4.819   6.793
28533WAT     H285842   7.470   4.881   6.643
28534WAT      O85843   1.988   5.755   7.452
28534WAT     H185844   1.913   5.798   7.403
28534WAT     H285845   2.044   5.703   7.388
28535WAT      O85846   9.631   1.142   1.586
28535WAT     H185847   9.621   1.094   1.499
28535WAT     H285848   9.720   1.185   1.591
28536WAT      O85849   6.065   0.923   1.805
28536WAT     H185850   5.987   0.959   1.856
28536WAT     H285851   6.032   0.866   1.729
28537WAT      O85852   3.180   1.480   7.250
28537WAT     H185853   3.148   1.547   7.183
28537WAT     H285854   3.145   1.504   7.340
28538WAT      O85855   3.173   5.381   3.427
28538WAT     H185856   3.174   5.312   3.355
28538WAT     H285857   3.265   5.389   3.467
28539WAT      O85858   5.248   1.924   6.769
28539WAT     H185859   5.341   1.904   6.802
28539WAT     H285860   5.188   1.939   6.847
28540WAT      O85861   0.856   5.455   3.200
28540WAT     H185862   0.811   5.384   3.146
28540WAT     H285863   0.789   5.524   3.226
28541WAT      O85864   9.757   0.655   9.278
28541WAT     H185865   9.805   0.570   9.297
28541WAT     H285866   9.731   0.698   9.365
28542WAT      O85867   2.820   8.460   1.093
28542WAT     H185868   2.797   8.390   1.161
28542WAT     H285869   2.748   8.464   1.024
28543WAT      O85870   8.684   0.908   7.870
28543WAT     H185871   8.628   0.906   7.953
28543WAT     H285872   8.769   0.957   7.888
28544WAT      O85873   0.083   3.430   2.457
28544WAT     H185874   0.023   3.384   2.523
28544WAT     H285875   0.115   3.364   2.389
28545WAT      O85876   1.232   1.944   5.013
28545WAT     H185877   1.252   1.929   5.109
28545WAT     H285878   1.300   1.898   4.956
28546WAT      O85879   7.193   6.143   4.281
28546WAT     H185880   7.227   6.204   4.353
28546WAT     H285881   7.233   6.170   4.194
28547WAT      O85882   5.820   9.381   2.017
28547WAT     H185883   5.776   9.363   1.929
28547WAT     H285884   5.865   9.470   2.014
28548WAT      O85885   4.600   6.125   2.536
28548WAT     H185886   4.575   6.070   2.616
28548WAT     H285887   4.517   6.159   2.492
28549WAT      O85888   4.096   3.339   5.926
28549WAT     H185889   4.069   3.420   5.977
28549WAT     H285890   4.024   3.314   5.861
28550WAT      O85891   1.746   6.689   5.113
28550WAT     H185892   1.838   6.658   5.090
28550WAT     H285893   1.750   6.754   5.189
28551WAT      O85894   0.432   9.733   8.003
28551WAT     H185895   0.425   9.745   8.102
28551WAT     H285896   0.432   9.635   7.981
28552WAT      O85897   3.647   8.148   3.357
28552WAT     H185898   3.646   8.235   3.407
28552WAT     H285899   3.731   8.098   3.378
28553WAT      O85900   4.798   5.874   4.771
28553WAT     H185901   4.892   5.902   4.790
28553WAT     H285902   4.735   5.937   4.815
28554WAT      O85903   1.442   5.076   8.899
28554WAT     H185904   1.507   5.130   8.845
28554WAT     H285905   1.449   4.980   8.872
28555WAT      O85906   8.870   0.372   7.202
28555WAT     H185907   8.849   0.376   7.104
28555WAT     H285908   8.856   0.279   7.236
28556WAT      O85909   7.808   7.780   6.601
28556WAT     H185910   7.771   7.863   6.642
28556WAT     H285911   7.876   7.804   6.531
28557WAT      O85912   1.559   9.033   9.125
28557WAT     H185913   1.503   9.083   9.191
28557WAT     H285914   1.616   8.967   9.172
28558WAT      O85915   7.042   6.868   4.900
28558WAT     H185916   6.942   6.867   4.912
28558WAT     H285917   7.063   6.888   4.804
28559WAT      O85918   9.110   9.225   0.998
28559WAT     H185919   9.187   9.272   1.041
28559WAT     H285920   9.025   9.273   1.019
28560WAT      O85921   3.699   4.860   4.050
28560WAT     H185922   3.714   4.875   4.147
28560WAT     H285923   3.787   4.852   4.003
28561WAT      O85924   3.065   8.282   3.306
28561WAT     H185925   3.017   8.349   3.363
28561WAT     H285926   3.055   8.307   3.209
28562WAT      O85927   3.559   3.624   5.901
28562WAT     H185928   3.556   3.700   5.837
28562WAT     H285929   3.559   3.538   5.851
28563WAT      O85930   2.503   7.327   7.685
28563WAT     H185931   2.420   7.307   7.633
28563WAT     H285932   2.484   7.400   7.750
28564WAT      O85933   1.683   0.267   2.090
28564WAT     H185934   1.658   0.249   2.185
28564WAT     H285935   1.721   0.359   2.082
28565WAT      O85936   7.061   6.886   3.576
28565WAT     H185937   7.058   6.982   3.547
28565WAT     H285938   6.982   6.837   3.537
28566WAT      O85939   1.804   3.419   3.549
28566WAT     H185940   1.836   3.513   3.536
28566WAT     H285941   1.705   3.417   3.537
28567WAT      O85942   7.991   5.995   2.354
28567WAT     H185943   7.902   5.962   2.386
28567WAT     H285944   8.028   6.062   2.418
28568WAT      O85945   2.686   2.924   5.091
28568WAT     H185946   2.657   2.861   5.162
28568WAT     H285947   2.607   2.947   5.033
28569WAT      O85948   8.891   2.968   4.979
28569WAT     H185949   8.808   2.938   5.026
28569WAT     H285950   8.901   3.067   4.990
28570WAT      O85951   8.401   7.856   9.413
28570WAT     H185952   8.301   7.860   9.422
28570WAT     H285953   8.425   7.848   9.316
28571WAT      O85954   5.764   6.636   4.734
28571WAT     H185955   5.749   6.636   4.635
28571WAT     H285956   5.691   6.585   4.779
28572WAT      O85957   5.831   8.775   5.364
28572WAT     H185958   5.810   8.871   5.385
28572WAT     H285959   5.903   8.772   5.294
28573WAT      O85960   0.976   5.445   4.342
28573WAT     H185961   1.016   5.445   4.251
28573WAT     H285962   0.876   5.453   4.335
28574WAT      O85963   4.654   3.551   6.870
28574WAT     H185964   4.708   3.517   6.793
28574WAT     H285965   4.636   3.649   6.857
28575WAT      O85966   9.150   8.547   2.879
28575WAT     H185967   9.074   8.585   2.826
28575WAT     H285968   9.129   8.552   2.976
28576WAT      O85969   4.956   8.473   0.693
28576WAT     H185970   5.043   8.431   0.719
28576WAT     H285971   4.952   8.481   0.593
28577WAT      O85972   2.720   3.636   4.457
28577WAT     H185973   2.804   3.661   4.408
28577WAT     H285974   2.744   3.601   4.548
28578WAT      O85975   8.218   6.875   9.836
28578WAT     H185976   8.126   6.907   9.858
28578WAT     H285977   8.254   6.819   9.911
28579WAT      O85978   0.958   4.321   1.459
28579WAT     H185979   1.045   4.297   1.414
28579WAT     H285980   0.916   4.238   1.496
28580WAT      O85981   5.241   3.614   7.600
28580WAT     H185982   5.271   3.696   7.650
28580WAT     H285983   5.297   3.536   7.628
28581WAT      O85984   2.703   9.381   1.937
28581WAT     H185985   2.771   9.379   1.863
28581WAT     H285986   2.672   9.288   1.955
28582WAT      O85987   0.458   8.200   8.434
28582WAT     H185988   0.396   8.266   8.476
28582WAT     H285989   0.457   8.115   8.486
28583WAT      O85990   5.863   2.112   7.223
28583WAT     H185991   5.882   2.016   7.205
28583WAT     H285992   5.875   2.165   7.138
28584WAT      O85993   0.115   2.348   6.268
28584WAT     H185994   0.104   2.274   6.334
28584WAT     H285995   0.074   2.432   6.305
28585WAT      O85996   8.625   3.831   9.535
28585WAT     H185997   8.675   3.747   9.555
28585WAT     H285998   8.548   3.840   9.599
28586WAT      O85999   4.633   8.571   7.204
28586WAT     H186000   4.655   8.474   7.205
28586WAT     H286001   4.601   8.598   7.114
28587WAT      O86002   5.297   6.124   2.753
28587WAT     H186003   5.295   6.073   2.667
28587WAT     H286004   5.213   6.107   2.804
28588WAT      O86005   1.532   7.014   0.517
28588WAT     H186006   1.582   6.927   0.525
28588WAT     H286007   1.512   7.048   0.608
28589WAT      O86008   4.345   5.530   5.240
28589WAT     H186009   4.439   5.501   5.218
28589WAT     H286010   4.300   5.562   5.157
28590WAT      O86011   0.391   6.049   0.497
28590WAT     H186012   0.336   5.985   0.443
28590WAT     H286013   0.358   6.049   0.592
28591WAT      O86014   2.958   1.185   0.442
28591WAT     H186015   2.954   1.280   0.474
28591WAT     H286016   3.035   1.175   0.379
28592WAT      O86017   9.794   2.847   9.347
28592WAT     H186018   9.781   2.755   9.309
28592WAT     H286019   9.828   2.840   9.441
28593WAT      O86020   3.831   7.130   5.256
28593WAT     H186021   3.826   7.060   5.328
28593WAT     H286022   3.767   7.204   5.277
28594WAT      O86023   1.127   8.452   2.879
28594WAT     H186024   1.157   8.362   2.850
28594WAT     H286025   1.118   8.512   2.800
28595WAT      O86026   9.330   4.659   8.645
28595WAT     H186027   9.248   4.696   8.688
28595WAT     H286028   9.318   4.561   8.630
28596WAT      O86029   1.807   3.006   7.820
28596WAT     H186030   1.840   2.912   7.814
28596WAT     H286031   1.859   3.064   7.759
28597WAT      O86032   6.184   8.400   8.877
28597WAT     H186033   6.098   8.450   8.867
28597WAT     H286034   6.223   8.382   8.786
28598WAT      O86035   5.368   4.665   2.632
28598WAT     H186036   5.378   4.567   2.648
28598WAT     H286037   5.445   4.699   2.578
28599WAT      O86038   5.269   8.993   4.594
28599WAT     H186039   5.272   9.035   4.504
28599WAT     H286040   5.360   8.960   4.619
28600WAT      O86041   1.574   3.131   5.115
28600WAT     H186042   1.650   3.070   5.139
28600WAT     H286043   1.541   3.177   5.198
28601WAT      O86044   4.728   6.920   8.377
28601WAT     H186045   4.813   6.874   8.400
28601WAT     H286046   4.658   6.897   8.445
28602WAT      O86047   6.195   9.761   6.614
28602WAT     H186048   6.216   9.701   6.537
28602WAT     H286049   6.186   9.855   6.582
28603WAT      O86050   8.996   8.438   0.164
28603WAT     H186051   9.027   8.371   0.096
28603WAT     H286052   9.075   8.477   0.211
28604WAT      O86053   2.839   6.552   6.523
28604WAT     H186054   2.892   6.637   6.528
28604WAT     H286055   2.858   6.507   6.435
28605WAT      O86056   3.604   9.738   9.656
28605WAT     H186057   3.615   9.746   9.755
28605WAT     H286058   3.536   9.667   9.636
28606WAT      O86059   5.820   4.422   2.822
28606WAT     H186060   5.894   4.488   2.816
28606WAT     H286061   5.765   4.425   2.739
28607WAT      O86062   4.980   3.263   8.970
28607WAT     H186063   4.889   3.230   8.994
28607WAT     H286064   5.047   3.190   8.982
28608WAT      O86065   6.174   9.625   9.214
28608WAT     H186066   6.130   9.713   9.197
28608WAT     H286067   6.133   9.582   9.294
28609WAT      O86068   3.151   2.323   0.643
28609WAT     H186069   3.051   2.314   0.636
28609WAT     H286070   3.174   2.376   0.724
28610WAT      O86071   7.770   0.197   4.121
28610WAT     H186072   7.671   0.179   4.125
28610WAT     H286073   7.808   0.196   4.213
28611WAT      O86074   5.836   0.561   6.487
28611WAT     H186075   5.875   0.537   6.398
28611WAT     H286076   5.903   0.541   6.559
28612WAT      O86077   7.154   4.519   4.529
28612WAT     H186078   7.167   4.577   4.609
28612WAT     H286079   7.057   4.512   4.508
28613WAT      O86080   2.416   8.046   4.036
28613WAT     H186081   2.379   7.973   3.978
28613WAT     H286082   2.343   8.111   4.057
28614WAT      O86083   8.107   8.884   9.832
28614WAT     H186084   8.171   8.833   9.775
28614WAT     H286085   8.137   8.979   9.840
28615WAT      O86086   2.656   5.479   3.961
28615WAT     H186087   2.623   5.533   3.883
28615WAT     H286088   2.754   5.464   3.951
28616WAT      O86089   0.720   0.881   7.285
28616WAT     H186090   0.722   0.937   7.202
28616WAT     H286091   0.683   0.935   7.361
28617WAT      O86092   3.437   0.930   0.807
28617WAT     H186093   3.440   1.015   0.754
28617WAT     H286094   3.517   0.925   0.867
28618WAT      O86095   9.473   1.893   5.203
28618WAT     H186096   9.421   1.810   5.220
28618WAT     H286097   9.571   1.875   5.217
28619WAT      O86098   2.660   4.634   0.705
28619WAT     H186099   2.568   4.671   0.690
28619WAT     H286100   2.654   4.537   0.727
28620WAT      O86101   1.201   3.212   6.386
28620WAT     H186102   1.128   3.144   6.392
28620WAT     H286103   1.226   3.226   6.291
28621WAT      O86104   0.850   8.599   0.966
28621WAT     H186105   0.787   8.567   0.894
28621WAT     H286106   0.943   8.573   0.942
28622WAT      O86107   6.385   6.584   0.827
28622WAT     H186108   6.393   6.511   0.760
28622WAT     H286109   6.470   6.636   0.831
28623WAT      O86110   1.052   0.654   8.986
28623WAT     H186111   1.024   0.717   8.914
28623WAT     H286112   1.006   0.679   9.072
28624WAT      O86113   6.368   6.746   4.839
28624WAT     H186114   6.360   6.807   4.760
28624WAT     H286115   6.277   6.722   4.872
28625WAT      O86116   3.444   7.049   0.472
28625WAT     H186117   3.359   7.100   0.480
28625WAT     H286118   3.469   7.009   0.560
28626WAT      O86119   2.889   6.251   9.746
28626WAT     H186120   2.889   6.154   9.722
28626WAT     H286121   2.879   6.306   9.664
28627WAT      O86122   3.420   9.712   5.571
28627WAT     H186123   3.368   9.660   5.504
28627WAT     H286124   3.515   9.719   5.542
28628WAT      O86125   7.503   5.031   8.805
28628WAT     H186126   7.596   5.065   8.816
28628WAT     H286127   7.500   4.965   8.730
28629WAT      O86128   5.464   0.948   1.246
28629WAT     H186129   5.388   1.008   1.269
28629WAT     H286130   5.431   0.855   1.231
28630WAT      O86131   4.204   8.641   4.801
28630WAT     H186132   4.250   8.583   4.734
28630WAT     H286133   4.267   8.712   4.831
28631WAT      O86134   2.452   3.092   6.397
28631WAT     H186135   2.498   3.178   6.375
28631WAT     H286136   2.516   3.016   6.384
28632WAT      O86137   6.220   0.918   1.412
28632WAT     H186138   6.131   0.953   1.444
28632WAT     H286139   6.215   0.819   1.403
28633WAT      O86140   4.800   5.790   8.422
28633WAT     H186141   4.804   5.880   8.378
28633WAT     H286142   4.883   5.739   8.400
28634WAT      O86143   0.435   6.469   1.993
28634WAT     H186144   0.466   6.544   2.052
28634WAT     H286145   0.451   6.382   2.039
28635WAT      O86146   1.741   8.418   4.531
28635WAT     H186147   1.794   8.457   4.455
28635WAT     H286148   1.668   8.360   4.494
28636WAT      O86149   0.823   4.556   2.511
28636WAT     H186150   0.775   4.594   2.590
28636WAT     H286151   0.765   4.562   2.430
28637WAT      O86152   2.400   1.952   0.046
28637WAT     H186153   2.416   2.051   0.049
28637WAT     H286154   2.441   1.915  -0.038
28638WAT      O86155   4.306   1.044   9.220
28638WAT     H186156   4.225   1.047   9.162
28638WAT     H286157   4.285   1.083   9.309
28639WAT      O86158   9.156   0.227   6.817
28639WAT     H186159   9.243   0.184   6.841
28639WAT     H286160   9.161   0.264   6.724
28640WAT      O86161   7.524   2.065   3.453
28640WAT     H186162   7.598   2.029   3.397
28640WAT     H286163   7.488   1.993   3.512
28641WAT      O86164   1.929   5.032   4.735
28641WAT     H186165   1.918   4.933   4.728
28641WAT     H286166   1.969   5.054   4.824
28642WAT      O86167   3.737   0.427   9.595
28642WAT     H186168   3.723   0.329   9.613
28642WAT     H286169   3.820   0.458   9.642
28643WAT      O86170   0.447   1.288   8.545
28643WAT     H186171   0.517   1.324   8.483
28643WAT     H286172   0.391   1.221   8.495
28644WAT      O86173   1.265   7.387   0.973
28644WAT     H186174   1.344   7.425   0.925
28644WAT     H286175   1.258   7.428   1.064
28645WAT      O86176   2.954   8.278   8.982
28645WAT     H186177   2.977   8.280   8.885
28645WAT     H286178   2.865   8.235   8.995
28646WAT      O86179   1.965   3.109   7.631
28646WAT     H186180   2.007   3.032   7.582
28646WAT     H286181   2.032   3.182   7.642
28647WAT      O86182   0.912   5.016   7.867
28647WAT     H186183   0.957   5.056   7.788
28647WAT     H286184   0.822   4.982   7.840
28648WAT      O86185   2.052   4.412   7.626
28648WAT     H186186   1.965   4.459   7.617
28648WAT     H286187   2.048   4.347   7.702
28649WAT      O86188   0.976   3.146   1.407
28649WAT     H186189   0.996   3.098   1.492
28649WAT     H286190   0.924   3.086   1.346
28650WAT      O86191   5.485   8.635   5.109
28650WAT     H186192   5.503   8.647   5.207
28650WAT     H286193   5.549   8.567   5.072
28651WAT      O86194   8.296   9.764   6.124
28651WAT     H186195   8.298   9.826   6.202
28651WAT     H286196   8.349   9.682   6.146
28652WAT      O86197   6.340   1.531   7.797
28652WAT     H186198   6.280   1.603   7.832
28652WAT     H286199   6.388   1.487   7.873
28653WAT      O86200   3.524   5.376   3.099
28653WAT     H186201   3.521   5.411   3.005
28653WAT     H286202   3.484   5.443   3.161
28654WAT      O86203   5.464   0.638   5.707
28654WAT     H186204   5.403   0.660   5.630
28654WAT     H286205   5.553   0.682   5.692
28655WAT      O86206   8.714   3.291   0.607
28655WAT     H186207   8.722   3.329   0.699
28655WAT     H286208   8.619   3.291   0.579
28656WAT      O86209   8.315   0.150   6.361
28656WAT     H186210   8.222   0.151   6.397
28656WAT     H286211   8.364   0.232   6.392
28657WAT      O86212   3.041   8.133   9.432
28657WAT     H186213   3.116   8.123   9.498
28657WAT     H286214   2.998   8.223   9.445
28658WAT      O86215   1.838   5.248   0.727
28658WAT     H186216   1.899   5.320   0.760
28658WAT     H286217   1.743   5.274   0.744
28659WAT      O86218   5.532   4.281   8.671
28659WAT     H186219   5.441   4.247   8.696
28659WAT     H286220   5.555   4.359   8.729
28660WAT      O86221   8.265   8.273   3.172
28660WAT     H186222   8.364   8.266   3.160
28660WAT     H286223   8.234   8.362   3.141
28661WAT      O86224   8.433   2.220   2.301
28661WAT     H186225   8.341   2.181   2.307
28661WAT     H286226   8.488   2.187   2.378
28662WAT      O86227   3.209   6.126   6.973
28662WAT     H186228   3.202   6.086   6.882
28662WAT     H286229   3.124   6.108   7.024
28663WAT      O86230   6.597   1.650   4.124
28663WAT     H186231   6.506   1.680   4.096
28663WAT     H286232   6.659   1.729   4.125
28664WAT      O86233   8.081   1.777   7.297
28664WAT     H186234   8.031   1.742   7.217
28664WAT     H286235   8.166   1.725   7.308
28665WAT      O86236   0.346   5.928   7.970
28665WAT     H186237   0.402   5.866   7.915
28665WAT     H286238   0.306   5.877   8.046
28666WAT      O86239   8.662   4.045   7.497
28666WAT     H186240   8.625   3.984   7.427
28666WAT     H286241   8.619   4.135   7.488
28667WAT      O86242   9.833   9.174   7.136
28667WAT     H186243   9.917   9.168   7.082
28667WAT     H286244   9.809   9.083   7.170
28668WAT      O86245   5.703   3.163   6.029
28668WAT     H186246   5.662   3.104   5.959
28668WAT     H286247   5.741   3.245   5.985
28669WAT      O86248   7.710   1.974   5.087
28669WAT     H186249   7.683   1.952   4.993
28669WAT     H286250   7.753   2.065   5.088
28670WAT      O86251   4.417   6.018   3.743
28670WAT     H186252   4.484   6.092   3.739
28670WAT     H286253   4.330   6.054   3.777
28671WAT      O86254   9.196   8.848   3.265
28671WAT     H186255   9.144   8.768   3.237
28671WAT     H286256   9.167   8.876   3.357
28672WAT      O86257   2.909   9.826   5.696
28672WAT     H186258   2.822   9.855   5.657
28672WAT     H286259   2.933   9.886   5.773
28673WAT      O86260   3.244   3.009   8.750
28673WAT     H186261   3.271   3.007   8.846
28673WAT     H286262   3.209   2.919   8.723
28674WAT      O86263   7.781   3.746   3.158
28674WAT     H186264   7.709   3.690   3.117
28674WAT     H286265   7.763   3.756   3.256
28675WAT      O86266   9.573   3.662   4.649
28675WAT     H186267   9.635   3.678   4.572
28675WAT     H286268   9.486   3.626   4.616
28676WAT      O86269   7.377   9.106   3.088
28676WAT     H186270   7.471   9.142   3.095
28676WAT     H286271   7.373   9.016   3.130
28677WAT      O86272   9.241   0.719   4.859
28677WAT     H186273   9.227   0.741   4.956
28677WAT     H286274   9.214   0.625   4.841
28678WAT      O86275   1.666   7.675   2.983
28678WAT     H186276   1.590   7.715   3.035
28678WAT     H286277   1.677   7.724   2.897
28679WAT      O86278   6.515   5.442   8.440
28679WAT     H186279   6.557   5.460   8.351
28679WAT     H286280   6.501   5.528   8.489
28680WAT      O86281   9.751   2.562   8.184
28680WAT     H186282   9.682   2.489   8.185
28680WAT     H286283   9.840   2.523   8.207
28681WAT      O86284   2.543   7.600   5.843
28681WAT     H186285   2.503   7.513   5.873
28681WAT     H286286   2.600   7.585   5.763
28682WAT      O86287   2.159   6.801   3.205
28682WAT     H186288   2.128   6.836   3.293
28682WAT     H286289   2.206   6.874   3.155
28683WAT      O86290   2.973   3.740   0.219
28683WAT     H186291   2.919   3.808   0.170
28683WAT     H286292   3.034   3.786   0.284
28684WAT      O86293   9.123   8.076   6.640
28684WAT     H186294   9.116   8.129   6.725
28684WAT     H286295   9.062   8.116   6.572
28685WAT      O86296   0.096   6.462   6.792
28685WAT     H186297   0.163   6.462   6.717
28685WAT     H286298   0.041   6.379   6.788
28686WAT      O86299   7.460   3.417   9.037
28686WAT     H186300   7.370   3.456   9.018
28686WAT     H286301   7.478   3.421   9.136
28687WAT      O86302   8.105   5.726   3.660
28687WAT     H186303   8.141   5.768   3.743
28687WAT     H286304   8.119   5.627   3.664
28688WAT      O86305   2.289   7.144   0.979
28688WAT     H186306   2.355   7.072   1.002
28688WAT     H286307   2.331   7.208   0.914
28689WAT      O86308   8.906   5.522   6.079
28689WAT     H186309   8.954   5.470   6.150
28689WAT     H286310   8.817   5.551   6.112
28690WAT      O86311   4.766   5.398   3.057
28690WAT     H186312   4.683   5.442   3.091
28690WAT     H286313   4.817   5.359   3.134
28691WAT      O86314   5.693   3.511   6.348
28691WAT     H186315   5.649   3.569   6.279
28691WAT     H286316   5.623   3.460   6.398
28692WAT      O86317   2.184   2.292   4.503
28692WAT     H186318   2.246   2.226   4.461
28692WAT     H286319   2.237   2.359   4.555
28693WAT      O86320   2.133   7.605   5.753
28693WAT     H186321   2.065   7.538   5.784
28693WAT     H286322   2.115   7.693   5.798
28694WAT      O86323   3.156   6.979   9.789
28694WAT     H186324   3.188   6.925   9.712
28694WAT     H286325   3.064   6.949   9.815
28695WAT      O86326   4.830   7.901   2.156
28695WAT     H186327   4.753   7.909   2.220
28695WAT     H286328   4.806   7.946   2.070
28696WAT      O86329   5.982   2.235   5.672
28696WAT     H186330   6.010   2.183   5.753
28696WAT     H286331   5.928   2.176   5.612
28697WAT      O86332   4.587   1.480   9.731
28697WAT     H186333   4.659   1.548   9.712
28697WAT     H286334   4.498   1.520   9.711
28698WAT      O86335   7.348   4.409   1.003
28698WAT     H186336   7.295   4.484   0.963
28698WAT     H286337   7.330   4.404   1.101
28699WAT      O86338   3.982   4.512   9.833
28699WAT     H186339   4.029   4.446   9.892
28699WAT     H286340   3.883   4.498   9.840
28700WAT      O86341   5.009   1.072   3.158
28700WAT     H186342   4.995   1.114   3.248
28700WAT     H286343   4.931   1.092   3.099
28701WAT      O86344   9.886   3.566   0.912
28701WAT     H186345   9.840   3.588   0.998
28701WAT     H286346   9.984   3.582   0.922
28702WAT      O86347   0.073   8.744   5.123
28702WAT     H186348   0.060   8.823   5.182
28702WAT     H286349   0.072   8.660   5.177
28703WAT      O86350   8.918   6.058   5.085
28703WAT     H186351   8.875   5.969   5.102
28703WAT     H286352   9.014   6.044   5.062
28704WAT      O86353   1.096   5.203   7.187
28704WAT     H186354   1.191   5.180   7.209
28704WAT     H286355   1.037   5.124   7.207
28705WAT      O86356   2.951   3.854   5.966
28705WAT     H186357   3.039   3.843   5.921
28705WAT     H286358   2.958   3.925   6.037
28706WAT      O86359   9.781   9.115   8.356
28706WAT     H186360   9.868   9.163   8.350
28706WAT     H286361   9.723   9.159   8.424
28707WAT      O86362   4.764   8.693   3.743
28707WAT     H186363   4.768   8.791   3.726
28707WAT     H286364   4.816   8.644   3.673
28708WAT      O86365   7.175   9.005   8.599
28708WAT     H186366   7.226   9.039   8.678
28708WAT     H286367   7.221   8.924   8.562
28709WAT      O86368   2.466   9.585   6.908
28709WAT     H186369   2.386   9.644   6.921
28709WAT     H286370   2.520   9.584   6.993
28710WAT      O86371   8.485   9.380   2.919
28710WAT     H186372   8.467   9.391   3.017
28710WAT     H286373   8.504   9.284   2.899
28711WAT      O86374   0.962   3.906   5.506
28711WAT     H186375   0.988   4.001   5.487
28711WAT     H286376   0.918   3.901   5.596
28712WAT      O86377   5.555   9.293   3.125
28712WAT     H186378   5.560   9.241   3.040
28712WAT     H286379   5.469   9.343   3.129
28713WAT      O86380   0.243   6.132   3.721
28713WAT     H186381   0.336   6.100   3.735
28713WAT     H286382   0.237   6.229   3.744
28714WAT      O86383   2.524   0.837   9.144
28714WAT     H186384   2.513   0.924   9.192
28714WAT     H286385   2.439   0.814   9.097
28715WAT      O86386   9.289   3.116   3.678
28715WAT     H186387   9.377   3.120   3.631
28715WAT     H286388   9.215   3.140   3.615
28716WAT      O86389   9.651   3.614   7.556
28716WAT     H186390   9.746   3.634   7.530
28716WAT     H286391   9.644   3.518   7.583
28717WAT      O86392   7.449   9.476   8.242
28717WAT     H186393   7.495   9.449   8.157
28717WAT     H286394   7.445   9.397   8.304
28718WAT      O86395   4.074   2.619   7.112
28718WAT     H186396   4.092   2.650   7.018
28718WAT     H286397   4.149   2.649   7.171
28719WAT      O86398   6.095   6.542   1.465
28719WAT     H186399   6.143   6.616   1.512
28719WAT     H286400   6.099   6.558   1.366
28720WAT      O86401   4.508   8.857   0.105
28720WAT     H186402   4.430   8.910   0.138
28720WAT     H286403   4.593   8.902   0.134
28721WAT      O86404   0.935   9.802   0.831
28721WAT     H186405   0.922   9.709   0.798
28721WAT     H286406   0.971   9.799   0.925
28722WAT      O86407   9.699   5.698   5.309
28722WAT     H186408   9.769   5.647   5.259
28722WAT     H286409   9.649   5.757   5.246
28723WAT      O86410   1.690   7.656   7.043
28723WAT     H186411   1.592   7.675   7.040
28723WAT     H286412   1.705   7.558   7.032
28724WAT      O86413   7.549   7.961   9.748
28724WAT     H186414   7.591   8.018   9.677
28724WAT     H286415   7.563   8.004   9.837
28725WAT      O86416   1.408   7.874   3.736
28725WAT     H186417   1.498   7.842   3.706
28725WAT     H286418   1.366   7.928   3.663
28726WAT      O86419   9.421   2.647   7.550
28726WAT     H186420   9.370   2.650   7.637
28726WAT     H286421   9.516   2.625   7.568
28727WAT      O86422   4.365   7.452   8.283
28727WAT     H186423   4.339   7.357   8.304
28727WAT     H286424   4.380   7.502   8.368
28728WAT      O86425   0.744   1.921   5.414
28728WAT     H186426   0.650   1.956   5.414
28728WAT     H286427   0.753   1.851   5.484
28729WAT      O86428   0.920   8.164   3.373
28729WAT     H186429   0.824   8.154   3.350
28729WAT     H286430   0.930   8.176   3.472
28730WAT      O86431   3.475   0.706   9.789
28730WAT     H186432   3.522   0.721   9.875
28730WAT     H286433   3.477   0.609   9.765
28731WAT      O86434   6.711   7.382   9.713
28731WAT     H186435   6.613   7.403   9.711
28731WAT     H286436   6.726   7.289   9.679
28732WAT      O86437   9.466   1.246   2.971
28732WAT     H186438   9.512   1.158   2.981
28732WAT     H286439   9.413   1.265   3.054
28733WAT      O86440   3.138   9.589   4.028
28733WAT     H186441   3.043   9.607   4.052
28733WAT     H286442   3.192   9.579   4.112
28734WAT      O86443   8.582   5.544   5.027
28734WAT     H186444   8.640   5.476   5.073
28734WAT     H286445   8.597   5.538   4.928
28735WAT      O86446   1.617   3.930   0.932
28735WAT     H186447   1.697   3.957   0.986
28735WAT     H286448   1.545   3.897   0.993
28736WAT      O86449   8.681   3.581   0.788
28736WAT     H186450   8.608   3.639   0.823
28736WAT     H286451   8.679   3.492   0.834
28737WAT      O86452   5.560   3.780   0.394
28737WAT     H186453   5.571   3.738   0.484
28737WAT     H286454   5.494   3.855   0.401
28738WAT      O86455   9.736   0.839   1.539
28738WAT     H186456   9.753   0.850   1.637
28738WAT     H286457   9.759   0.746   1.511
28739WAT      O86458   3.845   1.830   9.025
28739WAT     H186459   3.886   1.783   8.946
28739WAT     H286460   3.762   1.878   8.996
28740WAT      O86461   7.973   8.141   9.537
28740WAT     H186462   7.876   8.123   9.552
28740WAT     H286463   8.010   8.071   9.475
28741WAT      O86464   5.681   4.373   0.994
28741WAT     H186465   5.660   4.468   1.014
28741WAT     H286466   5.778   4.355   1.012
28742WAT      O86467   1.525   9.068   5.320
28742WAT     H186468   1.617   9.044   5.289
28742WAT     H286469   1.517   9.048   5.418
28743WAT      O86470   8.420   6.448   0.207
28743WAT     H186471   8.415   6.358   0.251
28743WAT     H286472   8.471   6.440   0.121
28744WAT      O86473   9.591   0.212   0.432
28744WAT     H186474   9.683   0.190   0.462
28744WAT     H286475   9.548   0.130   0.394
28745WAT      O86476   3.084   1.024   1.521
28745WAT     H186477   3.010   1.042   1.455
28745WAT     H286478   3.066   0.939   1.569
28746WAT      O86479   6.759   4.973   9.492
28746WAT     H186480   6.848   4.935   9.467
28746WAT     H286481   6.713   4.912   9.556
28747WAT      O86482   5.961   7.217   3.562
28747WAT     H186483   5.952   7.189   3.658
28747WAT     H286484   5.928   7.311   3.551
28748WAT      O86485   8.275   9.453   8.920
28748WAT     H186486   8.192   9.396   8.921
28748WAT     H286487   8.352   9.400   8.956
28749WAT      O86488   5.332   8.782   5.358
28749WAT     H186489   5.294   8.761   5.448
28749WAT     H286490   5.276   8.739   5.287
28750WAT      O86491   0.282   0.503   9.305
28750WAT     H186492   0.316   0.411   9.285
28750WAT     H286493   0.232   0.502   9.391
28751WAT      O86494   9.882   3.466   8.945
28751WAT     H186495   9.927   3.440   9.031
28751WAT     H286496   9.886   3.565   8.935
28752WAT      O86497   9.340   8.188   2.390
28752WAT     H186498   9.347   8.100   2.438
28752WAT     H286499   9.406   8.190   2.315
28753WAT      O86500   0.146   4.451   3.739
28753WAT     H186501   0.213   4.474   3.810
28753WAT     H286502   0.192   4.445   3.651
28754WAT      O86503   3.621   5.792   1.890
28754WAT     H186504   3.521   5.786   1.894
28754WAT     H286505   3.660   5.746   1.969
28755WAT      O86506   7.515   5.891   6.229
28755WAT     H186507   7.447   5.904   6.301
28755WAT     H286508   7.493   5.808   6.177
28756WAT      O86509   9.570   8.249   1.521
28756WAT     H186510   9.560   8.343   1.489
28756WAT     H286511   9.485   8.199   1.504
28757WAT      O86512   9.174   1.644   2.828
28757WAT     H186513   9.137   1.587   2.755
28757WAT     H286514   9.148   1.606   2.917
28758WAT      O86515   5.930   4.049   7.723
28758WAT     H186516   5.960   3.961   7.762
28758WAT     H286517   5.942   4.121   7.791
28759WAT      O86518   9.214   3.370   5.531
28759WAT     H186519   9.118   3.377   5.557
28759WAT     H286520   9.227   3.411   5.440
28760WAT      O86521   9.089   5.834   6.425
28760WAT     H186522   9.080   5.873   6.517
28760WAT     H286523   9.008   5.855   6.372
28761WAT      O86524   4.706   3.664   2.458
28761WAT     H186525   4.703   3.740   2.522
28761WAT     H286526   4.622   3.663   2.404
28762WAT      O86527   8.065   9.070   1.445
28762WAT     H186528   8.080   8.976   1.477
28762WAT     H286529   8.052   9.069   1.346
28763WAT      O86530   2.142   5.888   1.452
28763WAT     H186531   2.182   5.809   1.407
28763WAT     H286532   2.070   5.858   1.515
28764WAT      O86533   6.937   2.657   9.663
28764WAT     H186534   6.879   2.575   9.670
28764WAT     H286535   7.032   2.630   9.647
28765WAT      O86536   6.528   2.927   0.068
28765WAT     H186537   6.613   2.883   0.097
28765WAT     H286538   6.510   3.006   0.127
28766WAT      O86539   6.239   7.534   3.077
28766WAT     H186540   6.281   7.495   2.995
28766WAT     H286541   6.160   7.590   3.050
28767WAT      O86542   6.281   8.725   4.853
28767WAT     H186543   6.234   8.692   4.771
28767WAT     H286544   6.349   8.657   4.881
28768WAT      O86545   8.610   9.652   3.005
28768WAT     H186546   8.579   9.630   3.098
28768WAT     H286547   8.593   9.575   2.944
28769WAT      O86548   5.714   2.899   6.372
28769WAT     H186549   5.769   2.860   6.299
28769WAT     H286550   5.772   2.923   6.450
28770WAT      O86551   9.109   9.646   6.173
28770WAT     H186552   9.085   9.549   6.177
28770WAT     H286553   9.081   9.684   6.085
28771WAT      O86554   8.549   0.058   5.337
28771WAT     H186555   8.487  -0.020   5.343
28771WAT     H286556   8.640   0.025   5.310
28772WAT      O86557   9.824   8.624   3.787
28772WAT     H186558   9.800   8.707   3.737
28772WAT     H286559   9.923   8.622   3.803
28773WAT      O86560   5.894   0.019   3.843
28773WAT     H186561   5.797  -0.007   3.839
28773WAT     H286562   5.904   0.113   3.810
28774WAT      O86563   3.520   2.583   6.007
28774WAT     H186564   3.520   2.615   6.102
28774WAT     H286565   3.590   2.632   5.955
28775WAT      O86566   3.255   3.390   2.609
28775WAT     H186567   3.310   3.306   2.610
28775WAT     H286568   3.288   3.450   2.537
28776WAT      O86569   9.439   4.568   2.468
28776WAT     H186570   9.388   4.650   2.497
28776WAT     H286571   9.374   4.497   2.441
28777WAT      O86572   8.640   2.537   3.871
28777WAT     H186573   8.695   2.533   3.955
28777WAT     H286574   8.647   2.628   3.831
28778WAT      O86575   6.055   6.477   6.652
28778WAT     H186576   6.141   6.521   6.627
28778WAT     H286577   6.049   6.469   6.752
28779WAT      O86578   9.659   8.766   0.519
28779WAT     H186579   9.751   8.727   0.521
28779WAT     H286580   9.644   8.811   0.431
28780WAT      O86581   0.417   2.786   2.588
28780WAT     H186582   0.459   2.876   2.586
28780WAT     H286583   0.392   2.759   2.495
28781WAT      O86584   7.962   8.820   5.036
28781WAT     H186585   7.867   8.847   5.024
28781WAT     H286586   8.022   8.890   4.999
28782WAT      O86587   4.202   0.230   0.757
28782WAT     H186588   4.219   0.328   0.747
28782WAT     H286589   4.104   0.215   0.770
28783WAT      O86590   0.574   2.530   3.399
28783WAT     H186591   0.578   2.432   3.419
28783WAT     H286592   0.663   2.560   3.362
28784WAT      O86593   3.343   1.355   4.585
28784WAT     H186594   3.359   1.259   4.607
28784WAT     H286595   3.429   1.398   4.559
28785WAT      O86596   7.465   7.319   8.438
28785WAT     H186597   7.376   7.309   8.394
28785WAT     H286598   7.492   7.415   8.438
28786WAT      O86599   5.166   2.598   2.575
28786WAT     H186600   5.231   2.632   2.506
28786WAT     H286601   5.161   2.664   2.651
28787WAT      O86602   5.496   8.991   2.487
28787WAT     H186603   5.422   8.930   2.517
28787WAT     H286604   5.584   8.948   2.506
28788WAT      O86605   5.611   0.262   1.845
28788WAT     H186606   5.516   0.251   1.815
28788WAT     H286607   5.656   0.332   1.791
28789WAT      O86608   3.414   0.673   0.181
28789WAT     H186609   3.399   0.580   0.147
28789WAT     H286610   3.364   0.686   0.267
28790WAT      O86611   9.839   1.998   6.753
28790WAT     H186612   9.782   2.066   6.705
28790WAT     H286613   9.782   1.939   6.808
28791WAT      O86614   2.331   7.583   1.949
28791WAT     H186615   2.244   7.608   1.991
28791WAT     H286616   2.406   7.604   2.011
28792WAT      O86617   9.740   3.829   3.861
28792WAT     H186618   9.722   3.855   3.766
28792WAT     H286619   9.761   3.731   3.865
28793WAT      O86620   6.511   6.080   6.459
28793WAT     H186621   6.484   6.037   6.545
28793WAT     H286622   6.611   6.090   6.456
28794WAT      O86623   5.027   8.806   3.531
28794WAT     H186624   5.064   8.851   3.612
28794WAT     H286625   5.014   8.709   3.550
28795WAT      O86626   5.896   5.582   2.436
28795WAT     H186627   5.966   5.625   2.377
28795WAT     H286628   5.810   5.630   2.425
28796WAT      O86629   0.320   4.648   8.670
28796WAT     H186630   0.300   4.742   8.698
28796WAT     H286631   0.394   4.648   8.603
28797WAT      O86632   5.938   2.154   4.876
28797WAT     H186633   6.025   2.198   4.854
28797WAT     H286634   5.875   2.164   4.799
28798WAT      O86635   7.396   8.768   6.946
28798WAT     H186636   7.314   8.819   6.920
28798WAT     H286637   7.437   8.810   7.027
28799WAT      O86638   1.799   4.016   1.623
28799WAT     H186639   1.886   4.028   1.671
28799WAT     H286640   1.751   3.937   1.660
28800WAT      O86641   4.493   5.021   1.837
28800WAT     H186642   4.538   5.109   1.819
28800WAT     H286643   4.401   5.022   1.797
28801WAT      O86644   4.660   0.675   7.542
28801WAT     H186645   4.719   0.646   7.466
28801WAT     H286646   4.577   0.716   7.505
28802WAT      O86647   8.269   4.782   8.444
28802WAT     H186648   8.267   4.804   8.346
28802WAT     H286649   8.234   4.689   8.457
28803WAT      O86650   1.911   9.436   5.394
28803WAT     H186651   1.921   9.336   5.401
28803WAT     H286652   1.824   9.457   5.349
28804WAT      O86653   6.041   9.553   7.913
28804WAT     H186654   6.094   9.574   7.995
28804WAT     H286655   6.089   9.486   7.857
28805WAT      O86656   3.212   5.562   3.826
28805WAT     H186657   3.154   5.631   3.870
28805WAT     H286658   3.156   5.505   3.766
28806WAT      O86659   0.870   2.668   9.203
28806WAT     H186660   0.825   2.579   9.197
28806WAT     H286661   0.957   2.657   9.251
28807WAT      O86662   7.919   7.551   3.692
28807WAT     H186663   7.979   7.525   3.768
28807WAT     H286664   7.897   7.648   3.698
28808WAT      O86665   6.998   5.550   9.789
28808WAT     H186666   7.012   5.456   9.757
28808WAT     H286667   7.014   5.613   9.713
28809WAT      O86668   6.186   9.088   2.612
28809WAT     H186669   6.273   9.044   2.590
28809WAT     H286670   6.142   9.118   2.527
28810WAT      O86671   3.086   8.860   2.203
28810WAT     H186672   3.103   8.781   2.144
28810WAT     H286673   3.173   8.906   2.223
28811WAT      O86674   5.161   0.890   3.538
28811WAT     H186675   5.204   0.842   3.614
28811WAT     H286676   5.229   0.907   3.466
28812WAT      O86677   5.044   9.421   5.338
28812WAT     H186678   5.081   9.482   5.268
28812WAT     H286679   4.945   9.414   5.328
28813WAT      O86680   2.793   8.101   5.852
28813WAT     H186681   2.822   8.191   5.822
28813WAT     H286682   2.868   8.036   5.842
28814WAT      O86683   7.581   1.709   0.344
28814WAT     H186684   7.493   1.703   0.297
28814WAT     H286685   7.643   1.767   0.291
28815WAT      O86686   7.390   4.854   4.193
28815WAT     H186687   7.474   4.862   4.140
28815WAT     H286688   7.336   4.777   4.159
28816WAT      O86689   4.969   3.884   6.746
28816WAT     H186690   4.955   3.874   6.845
28816WAT     H286691   5.015   3.803   6.710
28817WAT      O86692   8.523   1.952   0.507
28817WAT     H186693   8.483   1.920   0.593
28817WAT     H286694   8.564   2.042   0.521
28818WAT      O86695   3.981   0.447   8.467
28818WAT     H186696   3.911   0.498   8.418
28818WAT     H286697   4.020   0.378   8.405
28819WAT      O86698   5.077   1.877   9.480
28819WAT     H186699   4.983   1.905   9.499
28819WAT     H286700   5.121   1.846   9.565
28820WAT      O86701   5.625   2.314   8.862
28820WAT     H186702   5.605   2.282   8.769
28820WAT     H286703   5.640   2.413   8.860
28821WAT      O86704   9.351   9.683   1.376
28821WAT     H186705   9.366   9.768   1.427
28821WAT     H286706   9.261   9.686   1.332
28822WAT      O86707   7.836   8.503   6.919
28822WAT     H186708   7.747   8.541   6.944
28822WAT     H286709   7.852   8.419   6.972
28823WAT      O86710   8.528   1.368   9.567
28823WAT     H186711   8.506   1.376   9.665
28823WAT     H286712   8.507   1.455   9.522
28824WAT      O86713   6.701   9.524   7.754
28824WAT     H186714   6.725   9.613   7.794
28824WAT     H286715   6.671   9.538   7.660
28825WAT      O86716   1.574   4.052   1.324
28825WAT     H186717   1.665   4.093   1.330
28825WAT     H286718   1.518   4.085   1.401
28826WAT      O86719   8.140   0.449   5.683
28826WAT     H186720   8.233   0.486   5.680
28826WAT     H286721   8.115   0.415   5.593
28827WAT      O86722   8.859   8.968   2.298
28827WAT     H186723   8.796   9.044   2.287
28827WAT     H286724   8.949   8.993   2.263
28828WAT      O86725   9.156   8.407   4.445
28828WAT     H186726   9.121   8.354   4.522
28828WAT     H286727   9.146   8.504   4.464
28829WAT      O86728   7.327   3.191   2.482
28829WAT     H186729   7.234   3.156   2.498
28829WAT     H286730   7.324   3.291   2.482
28830WAT      O86731   6.834   5.131   3.133
28830WAT     H186732   6.849   5.033   3.125
28830WAT     H286733   6.884   5.179   3.061
28831WAT      O86734   8.632   6.251   9.418
28831WAT     H186735   8.723   6.289   9.402
28831WAT     H286736   8.580   6.312   9.478
28832WAT      O86737   7.222   8.092   5.090
28832WAT     H186738   7.190   8.080   4.996
28832WAT     H286739   7.322   8.087   5.093
28833WAT      O86740   0.925   7.612   9.661
28833WAT     H186741   0.848   7.598   9.724
28833WAT     H286742   0.915   7.550   9.583
28834WAT      O86743   8.378   9.019   1.226
28834WAT     H186744   8.365   9.100   1.170
28834WAT     H286745   8.455   9.033   1.288
28835WAT      O86746   3.422   7.428   7.560
28835WAT     H186747   3.519   7.405   7.555
28835WAT     H286748   3.410   7.527   7.555
28836WAT      O86749   3.028   8.364   4.838
28836WAT     H186750   3.105   8.345   4.899
28836WAT     H286751   2.966   8.286   4.837
28837WAT      O86752   3.872   1.351   8.922
28837WAT     H186753   3.907   1.348   9.016
28837WAT     H286754   3.876   1.260   8.882
28838WAT      O86755   5.228   9.171   3.767
28838WAT     H186756   5.216   9.270   3.776
28838WAT     H286757   5.318   9.152   3.728
28839WAT      O86758   6.302   4.480   6.697
28839WAT     H186759   6.240   4.445   6.767
28839WAT     H286760   6.314   4.411   6.625
28840WAT      O86761   9.585   5.459   6.200
28840WAT     H186762   9.485   5.456   6.191
28840WAT     H286763   9.619   5.547   6.166
28841WAT      O86764   4.111   9.669   2.142
28841WAT     H186765   4.174   9.606   2.188
28841WAT     H286766   4.077   9.735   2.209
28842WAT      O86767   1.779   0.091   9.099
28842WAT     H186768   1.693   0.040   9.108
28842WAT     H286769   1.855   0.027   9.092
28843WAT      O86770   7.745   7.486   4.425
28843WAT     H186771   7.663   7.537   4.399
28843WAT     H286772   7.738   7.392   4.392
28844WAT      O86773   4.651   3.470   8.651
28844WAT     H186774   4.741   3.451   8.688
28844WAT     H286775   4.592   3.391   8.663
28845WAT      O86776   8.880   6.797   2.008
28845WAT     H186777   8.949   6.727   1.991
28845WAT     H286778   8.790   6.763   1.980
28846WAT      O86779   3.937   3.855   8.817
28846WAT     H186780   3.975   3.777   8.766
28846WAT     H286781   3.883   3.821   8.894
28847WAT      O86782   2.911   5.431   5.777
28847WAT     H186783   2.903   5.440   5.677
28847WAT     H286784   2.830   5.383   5.812
28848WAT      O86785   0.359   6.041   9.831
28848WAT     H186786   0.353   5.956   9.883
28848WAT     H286787   0.441   6.040   9.774
28849WAT      O86788   8.578   0.722   2.157
28849WAT     H186789   8.607   0.816   2.141
28849WAT     H286790   8.659   0.663   2.161
28850WAT      O86791   6.572   2.623   4.229
28850WAT     H186792   6.651   2.568   4.203
28850WAT     H286793   6.591   2.719   4.211
28851WAT      O86794   1.110   9.642   5.523
28851WAT     H186795   1.161   9.643   5.609
28851WAT     H286796   1.174   9.660   5.447
28852WAT      O86797   9.544   7.429   7.779
28852WAT     H186798   9.636   7.448   7.813
28852WAT     H286799   9.544   7.435   7.679
28853WAT      O86800   4.909   2.611   3.917
28853WAT     H186801   4.973   2.686   3.901
28853WAT     H286802   4.834   2.616   3.851
28854WAT      O86803   0.174   6.374   3.838
28854WAT     H186804   0.096   6.435   3.854
28854WAT     H286805   0.238   6.418   3.776
28855WAT      O86806   2.851   5.025   8.989
28855WAT     H186807   2.911   4.958   8.945
28855WAT     H286808   2.802   5.077   8.919
28856WAT      O86809   7.654   9.493   6.817
28856WAT     H186810   7.560   9.463   6.831
28856WAT     H286811   7.717   9.423   6.851
28857WAT      O86812   1.251   3.371   5.798
28857WAT     H186813   1.205   3.457   5.773
28857WAT     H286814   1.223   3.299   5.735
28858WAT      O86815   1.917   7.084   3.482
28858WAT     H186816   1.833   7.046   3.521
28858WAT     H286817   1.895   7.145   3.407
28859WAT      O86818   1.235   7.652   2.394
28859WAT     H186819   1.245   7.714   2.472
28859WAT     H286820   1.141   7.617   2.391
28860WAT      O86821   9.461   2.978   7.793
28860WAT     H186822   9.413   2.892   7.811
28860WAT     H286823   9.394   3.049   7.772
28861WAT      O86824   3.115   8.888   4.512
28861WAT     H186825   3.143   8.944   4.434
28861WAT     H286826   3.196   8.862   4.566
28862WAT      O86827   3.466   4.295   5.864
28862WAT     H186828   3.376   4.336   5.854
28862WAT     H286829   3.460   4.214   5.922
28863WAT      O86830   3.046   0.101   6.430
28863WAT     H186831   3.087   0.191   6.442
28863WAT     H286832   3.056   0.047   6.513
28864WAT      O86833   6.770   3.362   2.958
28864WAT     H186834   6.699   3.428   2.932
28864WAT     H286835   6.753   3.330   3.051
28865WAT      O86836   1.126   9.677   4.170
28865WAT     H186837   1.139   9.605   4.239
28865WAT     H286838   1.125   9.766   4.215
28866WAT      O86839   9.563   1.409   2.789
28866WAT     H186840   9.568   1.496   2.839
28866WAT     H286841   9.521   1.340   2.847
28867WAT      O86842   4.647   8.697   6.922
28867WAT     H186843   4.659   8.722   6.826
28867WAT     H286844   4.637   8.780   6.977
28868WAT      O86845   0.964   2.766   0.947
28868WAT     H186846   1.002   2.816   0.869
28868WAT     H286847   0.864   2.770   0.943
28869WAT      O86848   7.181   5.268   1.193
28869WAT     H186849   7.173   5.193   1.259
28869WAT     H286850   7.112   5.337   1.213
28870WAT      O86851   0.272   6.571   7.418
28870WAT     H186852   0.298   6.654   7.368
28870WAT     H286853   0.333   6.559   7.495
28871WAT      O86854   0.848   3.179   9.844
28871WAT     H186855   0.827   3.263   9.894
28871WAT     H286856   0.764   3.127   9.829
28872WAT      O86857   3.824   5.354   9.757
28872WAT     H186858   3.869   5.389   9.839
28872WAT     H286859   3.759   5.282   9.782
28873WAT      O86860   0.318   7.852   2.909
28873WAT     H186861   0.256   7.896   2.844
28873WAT     H286862   0.378   7.921   2.949
28874WAT      O86863   6.876   2.405   2.185
28874WAT     H186864   6.875   2.345   2.265
28874WAT     H286865   6.852   2.498   2.212
28875WAT      O86866   2.576   1.062   2.495
28875WAT     H186867   2.546   1.157   2.489
28875WAT     H286868   2.640   1.052   2.571
28876WAT      O86869   0.302   4.968   9.167
28876WAT     H186870   0.285   5.062   9.194
28876WAT     H286871   0.257   4.949   9.080
28877WAT      O86872   8.425   6.446   4.604
28877WAT     H186873   8.463   6.409   4.519
28877WAT     H286874   8.325   6.437   4.602
28878WAT      O86875   7.789   0.533   4.013
28878WAT     H186876   7.781   0.632   4.007
28878WAT     H286877   7.883   0.505   3.989
28879WAT      O86878   6.905   2.325   3.495
28879WAT     H186879   6.977   2.339   3.563
28879WAT     H286880   6.946   2.295   3.409
28880WAT      O86881   9.738   2.678   0.747
28880WAT     H186882   9.716   2.631   0.833
28880WAT     H286883   9.835   2.665   0.725
28881WAT      O86884   0.717   1.900   9.547
28881WAT     H186885   0.782   1.856   9.609
28881WAT     H286886   0.673   1.830   9.490
28882WAT      O86887   5.724   8.551   7.651
28882WAT     H186888   5.646   8.519   7.598
28882WAT     H286889   5.783   8.474   7.674
28883WAT      O86890   0.354   0.046   3.685
28883WAT     H186891   0.439   0.012   3.725
28883WAT     H286892   0.375   0.124   3.625
28884WAT      O86893   4.977   7.210   4.008
28884WAT     H186894   4.967   7.260   3.922
28884WAT     H286895   4.969   7.112   3.991
28885WAT      O86896   8.077   1.378   8.985
28885WAT     H186897   8.098   1.359   9.081
28885WAT     H286898   8.126   1.313   8.927
28886WAT      O86899   0.032   8.416   0.728
28886WAT     H186900   0.029   8.333   0.782
28886WAT     H286901   0.013   8.495   0.786
28887WAT      O86902   8.247   1.849   0.123
28887WAT     H186903   8.272   1.790   0.199
28887WAT     H286904   8.299   1.823   0.042
28888WAT      O86905   9.229   7.413   4.534
28888WAT     H186906   9.201   7.382   4.625
28888WAT     H286907   9.293   7.346   4.495
28889WAT      O86908   5.117   8.611   8.135
28889WAT     H186909   5.120   8.700   8.090
28889WAT     H286910   5.155   8.541   8.074
28890WAT      O86911   0.062   3.337   4.836
28890WAT     H186912  -0.002   3.377   4.902
28890WAT     H286913   0.013   3.315   4.752
28891WAT      O86914   5.732   1.001   9.797
28891WAT     H186915   5.820   1.000   9.843
28891WAT     H286916   5.734   1.068   9.722
28892WAT      O86917   2.411   1.532   4.754
28892WAT     H186918   2.480   1.592   4.795
28892WAT     H286919   2.415   1.540   4.655
28893WAT      O86920   8.061   1.878   6.345
28893WAT     H186921   8.000   1.941   6.393
28893WAT     H286922   8.052   1.890   6.247
28894WAT      O86923   4.587   2.527   3.461
28894WAT     H186924   4.563   2.533   3.364
28894WAT     H286925   4.670   2.580   3.478
28895WAT      O86926   1.270   6.569   7.474
28895WAT     H186927   1.301   6.475   7.463
28895WAT     H286928   1.349   6.629   7.490
28896WAT      O86929   4.503   2.772   6.494
28896WAT     H186930   4.548   2.832   6.560
28896WAT     H286931   4.449   2.704   6.542
28897WAT      O86932   8.498   0.462   8.256
28897WAT     H186933   8.595   0.461   8.283
28897WAT     H286934   8.453   0.379   8.289
28898WAT      O86935   0.308   7.787   8.342
28898WAT     H186936   0.266   7.878   8.336
28898WAT     H286937   0.401   7.791   8.308
28899WAT      O86938   0.780   1.480   4.614
28899WAT     H186939   0.708   1.538   4.650
28899WAT     H286940   0.815   1.421   4.687
28900WAT      O86941   2.617   6.901   1.204
28900WAT     H186942   2.529   6.886   1.158
28900WAT     H286943   2.616   6.856   1.293
28901WAT      O86944   1.773   1.550   6.325
28901WAT     H186945   1.812   1.490   6.395
28901WAT     H286946   1.737   1.632   6.368
28902WAT      O86947   2.094   9.257   0.500
28902WAT     H186948   2.072   9.286   0.593
28902WAT     H286949   2.175   9.199   0.501
28903WAT      O86950   1.202   4.070   4.818
28903WAT     H186951   1.158   3.985   4.792
28903WAT     H286952   1.174   4.143   4.755
28904WAT      O86953   0.017   4.441   3.316
28904WAT     H186954   0.047   4.487   3.233
28904WAT     H286955  -0.026   4.354   3.292
28905WAT      O86956   1.591   2.203   6.875
28905WAT     H186957   1.637   2.128   6.922
28905WAT     H286958   1.535   2.166   6.800
28906WAT      O86959   5.148   1.493   6.795
28906WAT     H186960   5.107   1.444   6.872
28906WAT     H286961   5.202   1.429   6.740
28907WAT      O86962   5.112   6.245   9.216
28907WAT     H186963   5.178   6.184   9.260
28907WAT     H286964   5.160   6.318   9.168
28908WAT      O86965   1.698   1.585   2.447
28908WAT     H186966   1.613   1.555   2.491
28908WAT     H286967   1.759   1.506   2.436
28909WAT      O86968   5.073   1.867   8.975
28909WAT     H186969   5.095   1.814   9.057
28909WAT     H286970   4.973   1.874   8.966
28910WAT      O86971   1.030   4.926   4.426
28910WAT     H186972   1.017   5.026   4.425
28910WAT     H286973   1.120   4.905   4.464
28911WAT      O86974   1.866   5.641   8.727
28911WAT     H186975   1.782   5.596   8.695
28911WAT     H286976   1.932   5.645   8.653
28912WAT      O86977   3.308   6.056   8.438
28912WAT     H186978   3.263   6.144   8.421
28912WAT     H286979   3.403   6.072   8.466
28913WAT      O86980   2.198   0.953   1.917
28913WAT     H186981   2.243   1.029   1.964
28913WAT     H286982   2.218   0.958   1.819
28914WAT      O86983   2.026   5.581   5.899
28914WAT     H186984   1.957   5.537   5.842
28914WAT     H286985   2.117   5.566   5.858
28915WAT      O86986   6.253   8.590   1.726
28915WAT     H186987   6.194   8.567   1.649
28915WAT     H286988   6.330   8.525   1.728
28916WAT      O86989   9.652   0.569   7.181
28916WAT     H186990   9.749   0.549   7.176
28916WAT     H286991   9.599   0.488   7.158
28917WAT      O86992   3.699   7.177   0.540
28917WAT     H186993   3.640   7.203   0.462
28917WAT     H286994   3.647   7.120   0.603
28918WAT      O86995   7.187   1.048   4.166
28918WAT     H186996   7.123   1.008   4.233
28918WAT     H286997   7.252   1.107   4.214
28919WAT      O86998   5.435   2.699   2.426
28919WAT     H186999   5.515   2.709   2.367
28919WAT     H287000   5.441   2.613   2.477
28920WAT      O87001   4.697   9.227   8.527
28920WAT     H187002   4.631   9.288   8.571
28920WAT     H287003   4.678   9.133   8.554
28921WAT      O87004   4.666   6.519   3.459
28921WAT     H187005   4.641   6.588   3.391
28921WAT     H287006   4.583   6.484   3.503
28922WAT      O87007   1.593   2.560   0.538
28922WAT     H187008   1.551   2.565   0.629
28922WAT     H287009   1.648   2.642   0.522
28923WAT      O87010   4.541   4.354   1.029
28923WAT     H187011   4.473   4.400   0.972
28923WAT     H287012   4.622   4.412   1.037
28924WAT      O87013   4.665   8.501   3.175
28924WAT     H187014   4.747   8.545   3.139
28924WAT     H287015   4.613   8.461   3.100
28925WAT      O87016   7.263   1.034   6.440
28925WAT     H187017   7.281   1.052   6.343
28925WAT     H287018   7.194   0.962   6.448
28926WAT      O87019   3.511   5.393   4.391
28926WAT     H187020   3.512   5.337   4.308
28926WAT     H287021   3.445   5.354   4.456
28927WAT      O87022   4.798   6.154   3.391
28927WAT     H187023   4.833   6.244   3.365
28927WAT     H287024   4.787   6.097   3.309
28928WAT      O87025   4.696   9.149   1.582
28928WAT     H187026   4.744   9.237   1.582
28928WAT     H287027   4.604   9.161   1.545
28929WAT      O87028   6.157   4.683   7.905
28929WAT     H187029   6.205   4.640   7.829
28929WAT     H287030   6.058   4.676   7.891
28930WAT      O87031   4.458   0.470   3.146
28930WAT     H187032   4.418   0.527   3.074
28930WAT     H287033   4.452   0.518   3.233
28931WAT      O87034   5.660   7.039   0.724
28931WAT     H187035   5.697   7.082   0.641
28931WAT     H287036   5.725   7.050   0.799
28932WAT      O87037   5.681   9.714   3.573
28932WAT     H187038   5.621   9.734   3.496
28932WAT     H287039   5.769   9.680   3.539
28933WAT      O87040   4.186   2.336   0.626
28933WAT     H187041   4.252   2.389   0.680
28933WAT     H287042   4.128   2.283   0.688
28934WAT      O87043   5.479   4.989   4.771
28934WAT     H187044   5.455   5.086   4.777
28934WAT     H287045   5.409   4.934   4.817
28935WAT      O87046   7.993   5.607   6.972
28935WAT     H187047   7.975   5.621   7.069
28935WAT     H287048   7.925   5.658   6.918
28936WAT      O87049   4.640   3.176   7.233
28936WAT     H187050   4.666   3.263   7.275
28936WAT     H287051   4.673   3.174   7.139
28937WAT      O87052   4.924   6.246   0.101
28937WAT     H187053   5.010   6.220   0.059
28937WAT     H287054   4.885   6.168   0.149
28938WAT      O87055   7.492   6.510   9.142
28938WAT     H187056   7.530   6.452   9.070
28938WAT     H287057   7.557   6.583   9.164
28939WAT      O87058   7.682   7.185   6.302
28939WAT     H187059   7.747   7.149   6.235
28939WAT     H287060   7.674   7.120   6.378
28940WAT      O87061   3.577   0.154   2.112
28940WAT     H187062   3.567   0.193   2.204
28940WAT     H287063   3.487   0.135   2.074
28941WAT      O87064   3.889   5.623   1.692
28941WAT     H187065   3.848   5.584   1.610
28941WAT     H287066   3.954   5.558   1.731
28942WAT      O87067   4.732   0.669   7.845
28942WAT     H187068   4.798   0.595   7.833
28942WAT     H287069   4.700   0.700   7.755
28943WAT      O87070   3.800   2.996   9.284
28943WAT     H187071   3.801   3.080   9.339
28943WAT     H287072   3.717   2.944   9.305
28944WAT      O87073   3.114   7.837   9.408
28944WAT     H187074   3.199   7.826   9.460
28944WAT     H287075   3.053   7.900   9.457
28945WAT      O87076   1.443   9.539   4.250
28945WAT     H187077   1.465   9.636   4.263
28945WAT     H287078   1.343   9.528   4.251
28946WAT      O87079   6.137   6.142   2.503
28946WAT     H187080   6.143   6.044   2.522
28946WAT     H287081   6.192   6.192   2.570
28947WAT      O87082   6.135   9.257   6.807
28947WAT     H187083   6.164   9.163   6.829
28947WAT     H287084   6.119   9.308   6.892
28948WAT      O87085   9.683   3.283   3.407
28948WAT     H187086   9.620   3.343   3.358
28948WAT     H287087   9.765   3.334   3.434
28949WAT      O87088   5.686   9.290   0.920
28949WAT     H187089   5.612   9.231   0.888
28949WAT     H287090   5.704   9.361   0.853
28950WAT      O87091   8.997   2.785   9.426
28950WAT     H187092   9.042   2.696   9.435
28950WAT     H287093   8.984   2.805   9.329
28951WAT      O87094   4.500   9.193   1.117
28951WAT     H187095   4.504   9.184   1.017
28951WAT     H287096   4.584   9.234   1.150
28952WAT      O87097   4.981   1.077   5.488
28952WAT     H187098   4.924   1.029   5.554
28952WAT     H287099   4.951   1.172   5.481
28953WAT      O87100   1.818   3.387   5.091
28953WAT     H187101   1.839   3.482   5.068
28953WAT     H287102   1.826   3.330   5.009
28954WAT      O87103   9.168   8.141   5.294
28954WAT     H187104   9.172   8.113   5.390
28954WAT     H287105   9.131   8.066   5.239
28955WAT      O87106   8.266   2.328   4.668
28955WAT     H187107   8.320   2.316   4.584
28955WAT     H287108   8.226   2.419   4.670
28956WAT      O87109   1.798   6.163   5.526
28956WAT     H187110   1.815   6.100   5.450
28956WAT     H287111   1.788   6.110   5.611
28957WAT      O87112   9.425   6.120   8.800
28957WAT     H187113   9.491   6.056   8.761
28957WAT     H287114   9.353   6.068   8.847
28958WAT      O87115   7.815   1.726   9.530
28958WAT     H187116   7.822   1.737   9.431
28958WAT     H287117   7.800   1.629   9.552
28959WAT      O87118   0.549   4.970   3.619
28959WAT     H187119   0.613   4.989   3.545
28959WAT     H287120   0.476   5.038   3.618
28960WAT      O87121   3.097   5.847   1.981
28960WAT     H187122   3.038   5.777   1.940
28960WAT     H287123   3.185   5.848   1.934
28961WAT      O87124   4.168   7.632   0.837
28961WAT     H187125   4.169   7.542   0.881
28961WAT     H287126   4.202   7.700   0.901
28962WAT      O87127   0.893   6.566   7.862
28962WAT     H187128   0.981   6.569   7.813
28962WAT     H287129   0.886   6.481   7.914
28963WAT      O87130   6.633   3.543   3.900
28963WAT     H187131   6.629   3.482   3.820
28963WAT     H287132   6.721   3.590   3.901
28964WAT      O87133   3.246   0.534   1.529
28964WAT     H187134   3.214   0.502   1.618
28964WAT     H287135   3.329   0.484   1.504
28965WAT      O87136   3.934   9.336   8.933
28965WAT     H187137   3.886   9.423   8.942
28965WAT     H287138   3.952   9.298   9.024
28966WAT      O87139   4.802   1.997   0.863
28966WAT     H187140   4.848   1.987   0.952
28966WAT     H287141   4.871   1.999   0.790
28967WAT      O87142   8.306   4.785   7.579
28967WAT     H187143   8.370   4.824   7.646
28967WAT     H287144   8.214   4.820   7.597
28968WAT      O87145   8.771   2.788   8.433
28968WAT     H187146   8.673   2.770   8.420
28968WAT     H287147   8.810   2.825   8.350
28969WAT      O87148   0.987   5.025   3.443
28969WAT     H187149   0.981   5.040   3.542
28969WAT     H287150   1.000   5.113   3.397
28970WAT      O87151   5.668   6.904   2.604
28970WAT     H187152   5.613   6.949   2.674
28970WAT     H287153   5.626   6.817   2.579
28971WAT      O87154   1.660   1.041   7.459
28971WAT     H187155   1.595   1.000   7.396
28971WAT     H287156   1.745   0.989   7.459
28972WAT      O87157   9.755   1.556   0.478
28972WAT     H187158   9.764   1.656   0.475
28972WAT     H287159   9.821   1.519   0.544
28973WAT      O87160   7.419   3.303   9.879
28973WAT     H187161   7.393   3.305   9.782
28973WAT     H287162   7.365   3.370   9.930
28974WAT      O87163   7.889   2.810   9.896
28974WAT     H187164   7.805   2.865   9.902
28974WAT     H287165   7.886   2.754   9.814
28975WAT      O87166   4.203   0.038   4.170
28975WAT     H187167   4.200   0.096   4.090
28975WAT     H287168   4.111   0.006   4.193
28976WAT      O87169   7.566   2.965   4.517
28976WAT     H187170   7.664   2.943   4.523
28976WAT     H287171   7.550   3.019   4.435
28977WAT      O87172   7.006   6.298   5.962
28977WAT     H187173   6.923   6.300   5.905
28977WAT     H287174   7.079   6.251   5.912
28978WAT      O87175   3.141   3.372   5.870
28978WAT     H187176   3.075   3.370   5.945
28978WAT     H287177   3.098   3.336   5.787
28979WAT      O87178   5.584   4.210   5.170
28979WAT     H187179   5.672   4.173   5.202
28979WAT     H287180   5.545   4.148   5.102
28980WAT      O87181   5.458   4.228   1.025
28980WAT     H187182   5.407   4.214   0.940
28980WAT     H287183   5.549   4.265   1.004
28981WAT      O87184   4.316   7.268   6.547
28981WAT     H187185   4.318   7.181   6.497
28981WAT     H287186   4.321   7.250   6.645
28982WAT      O87187   8.255   0.445   7.323
28982WAT     H187188   8.206   0.392   7.253
28982WAT     H287189   8.334   0.392   7.355
28983WAT      O87190   7.306   2.095   4.876
28983WAT     H187191   7.227   2.114   4.819
28983WAT     H287192   7.290   2.012   4.929
28984WAT      O87193   9.272   3.185   7.749
28984WAT     H187194   9.326   3.267   7.768
28984WAT     H287195   9.273   3.166   7.650
28985WAT      O87196   4.268   4.559   6.681
28985WAT     H187197   4.301   4.540   6.774
28985WAT     H287198   4.345   4.590   6.624
28986WAT      O87199   8.324   0.513   1.697
28986WAT     H187200   8.350   0.513   1.793
28986WAT     H287201   8.270   0.431   1.677
28987WAT      O87202   3.325   5.974   5.644
28987WAT     H187203   3.281   5.935   5.563
28987WAT     H287204   3.315   6.073   5.642
28988WAT      O87205   5.859   6.202   7.140
28988WAT     H187206   5.868   6.179   7.237
28988WAT     H287207   5.767   6.239   7.124
28989WAT      O87208   8.972   1.475   9.860
28989WAT     H187209   8.885   1.517   9.834
28989WAT     H287210   9.018   1.442   9.778
28990WAT      O87211   3.120   9.734   4.680
28990WAT     H187212   3.168   9.814   4.715
28990WAT     H287213   3.032   9.724   4.726
28991WAT      O87214   6.781   3.445   2.096
28991WAT     H187215   6.729   3.491   2.025
28991WAT     H287216   6.727   3.441   2.180
28992WAT      O87217   0.196   5.850   1.113
28992WAT     H187218   0.139   5.923   1.073
28992WAT     H287219   0.148   5.810   1.190
28993WAT      O87220   3.583   3.774   0.152
28993WAT     H187221   3.553   3.728   0.069
28993WAT     H287222   3.669   3.735   0.184
28994WAT      O87223   6.440   7.155   1.767
28994WAT     H187224   6.496   7.123   1.843
28994WAT     H287225   6.343   7.155   1.794
28995WAT      O87226   4.496   3.519   3.531
28995WAT     H187227   4.583   3.508   3.481
28995WAT     H287228   4.514   3.520   3.629
28996WAT      O87229   5.841   8.825   3.718
28996WAT     H187230   5.786   8.806   3.637
28996WAT     H287231   5.811   8.910   3.760
28997WAT      O87232   0.065   0.848   7.562
28997WAT     H187233   0.154   0.835   7.518
28997WAT     H287234   0.048   0.771   7.625
28998WAT      O87235   4.036   6.102   8.463
28998WAT     H187236   4.057   6.036   8.535
28998WAT     H287237   4.059   6.063   8.374
28999WAT      O87238   6.936   4.666   0.346
28999WAT     H187239   6.944   4.633   0.252
28999WAT     H287240   6.858   4.620   0.390
29000WAT      O87241   2.535   4.136   4.367
29000WAT     H187242   2.604   4.188   4.317
29000WAT     H287243   2.573   4.048   4.395
29001WAT      O87244   0.332   6.214   8.002
29001WAT     H187245   0.332   6.116   7.979
29001WAT     H287246   0.299   6.225   8.096
29002WAT      O87247   5.388   8.041   1.186
29002WAT     H187248   5.413   8.087   1.272
29002WAT     H287249   5.403   7.943   1.195
29003WAT      O87250   3.676   4.722   0.616
29003WAT     H187251   3.694   4.819   0.598
29003WAT     H287252   3.665   4.673   0.530
29004WAT      O87253   6.773   8.253   5.932
29004WAT     H187254   6.705   8.233   6.002
29004WAT     H287255   6.761   8.191   5.854
29005WAT      O87256   7.082   3.356   8.298
29005WAT     H187257   7.045   3.326   8.210
29005WAT     H287258   7.168   3.308   8.317
29006WAT      O87259   3.248   4.455   3.891
29006WAT     H187260   3.304   4.514   3.948
29006WAT     H287261   3.297   4.431   3.808
29007WAT      O87262   7.197   3.928   5.090
29007WAT     H187263   7.103   3.897   5.073
29007WAT     H287264   7.243   3.941   5.002
29008WAT      O87265   6.919   2.971   1.699
29008WAT     H187266   6.985   2.898   1.677
29008WAT     H287267   6.875   3.001   1.615
29009WAT      O87268   2.680   4.872   2.352
29009WAT     H187269   2.618   4.898   2.278
29009WAT     H287270   2.750   4.810   2.318
29010WAT      O87271   7.408   2.481   7.492
29010WAT     H187272   7.364   2.418   7.430
29010WAT     H287273   7.501   2.500   7.461
29011WAT      O87274   2.313   9.500   9.036
29011WAT     H187275   2.380   9.568   9.005
29011WAT     H287276   2.355   9.442   9.107
29012WAT      O87277   6.479   9.040   1.060
29012WAT     H187278   6.577   9.052   1.079
29012WAT     H287279   6.451   8.949   1.089
29013WAT      O87280   3.624   2.055   6.786
29013WAT     H187281   3.713   2.031   6.826
29013WAT     H287282   3.560   1.980   6.800
29014WAT      O87283   3.463   0.573   8.599
29014WAT     H187284   3.444   0.475   8.603
29014WAT     H287285   3.562   0.588   8.593
29015WAT      O87286   2.361   4.764   5.955
29015WAT     H187287   2.434   4.831   5.943
29015WAT     H287288   2.363   4.729   6.048
29016WAT      O87289   9.056   8.215   0.386
29016WAT     H187290   9.026   8.279   0.316
29016WAT     H287291   8.976   8.171   0.427
29017WAT      O87292   8.979   9.307   0.516
29017WAT     H187293   9.004   9.258   0.599
29017WAT     H287294   8.998   9.251   0.436
29018WAT      O87295   0.517   5.454   1.643
29018WAT     H187296   0.482   5.373   1.594
29018WAT     H287297   0.555   5.518   1.577
29019WAT      O87298   7.204   7.237   5.084
29019WAT     H187299   7.197   7.252   5.183
29019WAT     H287300   7.292   7.195   5.063
29020WAT      O87301   4.877   3.107   7.381
29020WAT     H187302   4.874   3.096   7.481
29020WAT     H287303   4.789   3.083   7.342
29021WAT      O87304   7.650   7.449   5.806
29021WAT     H187305   7.668   7.526   5.867
29021WAT     H287306   7.721   7.445   5.736
29022WAT      O87307   9.043   9.388   0.022
29022WAT     H187308   8.974   9.320  -0.002
29022WAT     H287309   9.005   9.479   0.012
29023WAT      O87310   5.654   7.333   7.593
29023WAT     H187311   5.680   7.418   7.639
29023WAT     H287312   5.562   7.343   7.554
29024WAT      O87313   0.911   6.480   6.917
29024WAT     H187314   1.001   6.506   6.883
29024WAT     H287315   0.885   6.391   6.879
29025WAT      O87316   9.134   5.072   8.637
29025WAT     H187317   9.174   5.085   8.728
29025WAT     H287318   9.207   5.075   8.568
29026WAT      O87319   8.078   4.312   5.670
29026WAT     H187320   8.152   4.274   5.726
29026WAT     H287321   8.004   4.341   5.731
29027WAT      O87322   8.293   9.832   6.781
29027WAT     H187323   8.337   9.912   6.741
29027WAT     H287324   8.340   9.749   6.751
29028WAT      O87325   5.760   2.949   2.941
29028WAT     H187326   5.735   2.853   2.944
29028WAT     H287327   5.707   2.996   2.870
29029WAT      O87328   5.820   8.978   8.236
29029WAT     H187329   5.824   8.962   8.334
29029WAT     H287330   5.770   9.063   8.218
29030WAT      O87331   6.531   0.806   6.126
29030WAT     H187332   6.533   0.894   6.172
29030WAT     H287333   6.488   0.815   6.037
29031WAT      O87334   2.044   7.715   0.199
29031WAT     H187335   2.105   7.680   0.127
29031WAT     H287336   2.010   7.805   0.172
29032WAT      O87337   0.227   0.383   8.322
29032WAT     H187338   0.197   0.415   8.232
29032WAT     H287339   0.178   0.433   8.393
29033WAT      O87340   4.016   7.977   5.358
29033WAT     H187341   4.015   7.991   5.259
29033WAT     H287342   4.052   8.058   5.403
29034WAT      O87343   5.573   5.949   0.022
29034WAT     H187344   5.588   5.906  -0.067
29034WAT     H287345   5.632   6.030   0.030
29035WAT      O87346   9.701   1.129   9.235
29035WAT     H187347   9.679   1.110   9.139
29035WAT     H287348   9.800   1.127   9.248
29036WAT      O87349   6.036   5.200   0.749
29036WAT     H187350   6.006   5.245   0.665
29036WAT     H287351   5.971   5.221   0.823
29037WAT      O87352   3.498   4.048   1.913
29037WAT     H187353   3.568   3.978   1.919
29037WAT     H287354   3.429   4.033   1.985
29038WAT      O87355   9.578   0.676   9.716
29038WAT     H187356   9.577   0.583   9.753
29038WAT     H287357   9.570   0.742   9.790
29039WAT      O87358   4.880   4.924   8.163
29039WAT     H187359   4.797   4.962   8.121
29039WAT     H287360   4.862   4.830   8.194
29040WAT      O87361   0.172   4.278   7.384
29040WAT     H187362   0.089   4.224   7.397
29040WAT     H287363   0.194   4.327   7.468
29041WAT      O87364   8.929   7.209   1.849
29041WAT     H187365   8.935   7.300   1.889
29041WAT     H287366   8.840   7.170   1.868
29042WAT      O87367   7.033   2.688   2.869
29042WAT     H187368   6.987   2.682   2.780
29042WAT     H287369   6.976   2.645   2.939
29043WAT      O87370   8.464   1.760   4.559
29043WAT     H187371   8.554   1.791   4.590
29043WAT     H287372   8.476   1.691   4.487
29044WAT      O87373   5.323   6.776   3.852
29044WAT     H187374   5.294   6.871   3.845
29044WAT     H287375   5.350   6.756   3.946
29045WAT      O87376   2.943   1.600   2.241
29045WAT     H187377   2.843   1.598   2.232
29045WAT     H287378   2.984   1.562   2.159
29046WAT      O87379   2.720   8.965   0.187
29046WAT     H187380   2.814   8.972   0.222
29046WAT     H287381   2.660   9.023   0.241
29047WAT      O87382   2.406   1.410   1.218
29047WAT     H187383   2.310   1.395   1.194
29047WAT     H287384   2.444   1.484   1.162
29048WAT      O87385   3.147   0.319   0.778
29048WAT     H187386   3.223   0.288   0.834
29048WAT     H287387   3.105   0.240   0.732
29049WAT      O87388   0.413   9.234   9.634
29049WAT     H187389   0.476   9.307   9.608
29049WAT     H287390   0.344   9.269   9.697
29050WAT      O87391   5.300   0.305   4.075
29050WAT     H187392   5.211   0.308   4.028
29050WAT     H287393   5.322   0.396   4.109
29051WAT      O87394   9.852   8.906   5.877
29051WAT     H187395   9.826   8.949   5.964
29051WAT     H287396   9.898   8.974   5.819
29052WAT      O87397   0.714   9.016   8.762
29052WAT     H187398   0.681   8.923   8.744
29052WAT     H287399   0.657   9.058   8.834
29053WAT      O87400   3.517   6.972   3.746
29053WAT     H187401   3.446   7.041   3.759
29053WAT     H287402   3.496   6.891   3.801
29054WAT      O87403   7.189   3.695   2.344
29054WAT     H187404   7.160   3.758   2.416
29054WAT     H287405   7.279   3.723   2.311
29055WAT      O87406   5.575   3.875   3.341
29055WAT     H187407   5.664   3.902   3.304
29055WAT     H287408   5.515   3.845   3.266
29056WAT      O87409   1.486   0.578   4.496
29056WAT     H187410   1.536   0.652   4.450
29056WAT     H287411   1.439   0.615   4.576
29057WAT      O87412   3.669   2.804   7.617
29057WAT     H187413   3.615   2.877   7.575
29057WAT     H287414   3.618   2.718   7.614
29058WAT      O87415   7.135   8.122   0.307
29058WAT     H187416   7.085   8.054   0.254
29058WAT     H287417   7.130   8.099   0.404
29059WAT      O87418   8.033   5.822   4.978
29059WAT     H187419   8.068   5.728   4.981
29059WAT     H287420   8.024   5.856   5.071
29060WAT      O87421   4.487   3.441   1.657
29060WAT     H187422   4.535   3.413   1.574
29060WAT     H287423   4.545   3.501   1.711
29061WAT      O87424   0.560   6.015   0.964
29061WAT     H187425   0.540   5.952   1.038
29061WAT     H287426   0.620   5.970   0.897
29062WAT      O87427   9.271   3.720   0.275
29062WAT     H187428   9.224   3.793   0.323
29062WAT     H287429   9.238   3.631   0.309
29063WAT      O87430   0.172   9.760   7.922
29063WAT     H187431   0.272   9.760   7.918
29063WAT     H287432   0.135   9.794   7.836
29064WAT      O87433   9.184   4.563   1.669
29064WAT     H187434   9.109   4.500   1.691
29064WAT     H287435   9.196   4.565   1.570
29065WAT      O87436   6.798   2.113   0.938
29065WAT     H187437   6.875   2.112   0.875
29065WAT     H287438   6.715   2.084   0.889
29066WAT      O87439   4.227   2.680   1.855
29066WAT     H187440   4.195   2.748   1.789
29066WAT     H287441   4.158   2.608   1.864
29067WAT      O87442   7.553   3.966   2.158
29067WAT     H187443   7.560   3.897   2.087
29067WAT     H287444   7.470   4.020   2.144
29068WAT      O87445   4.475   0.886   9.457
29068WAT     H187446   4.474   0.839   9.369
29068WAT     H287447   4.402   0.954   9.460
29069WAT      O87448   6.844   4.163   9.436
29069WAT     H187449   6.768   4.210   9.391
29069WAT     H287450   6.815   4.070   9.461
29070WAT      O87451   4.627   2.446   4.934
29070WAT     H187452   4.536   2.486   4.927
29070WAT     H287453   4.619   2.349   4.956
29071WAT      O87454   2.381   1.127   4.229
29071WAT     H187455   2.475   1.155   4.209
29071WAT     H287456   2.376   1.095   4.324
29072WAT      O87457   6.086   4.859   8.431
29072WAT     H187458   6.027   4.826   8.357
29072WAT     H287459   6.169   4.803   8.433
29073WAT      O87460   4.933   9.125   0.046
29073WAT     H187461   5.030   9.109   0.065
29073WAT     H287462   4.909   9.082  -0.041
29074WAT      O87463   4.307   0.946   5.570
29074WAT     H187464   4.307   0.906   5.661
29074WAT     H287465   4.246   0.893   5.511
29075WAT      O87466   6.483   4.372   0.245
29075WAT     H187467   6.565   4.344   0.294
29075WAT     H287468   6.403   4.328   0.286
29076WAT      O87469   4.449   0.622   7.117
29076WAT     H187470   4.398   0.541   7.086
29076WAT     H287471   4.457   0.686   7.041
29077WAT      O87472   6.902   1.301   4.097
29077WAT     H187473   6.988   1.280   4.050
29077WAT     H287474   6.877   1.224   4.156
29078WAT      O87475   0.518   1.635   8.075
29078WAT     H187476   0.436   1.587   8.107
29078WAT     H287477   0.582   1.644   8.150
29079WAT      O87478   5.669   8.822   2.569
29079WAT     H187479   5.723   8.773   2.500
29079WAT     H287480   5.648   8.760   2.644
29080WAT      O87481   2.903   0.768   1.435
29080WAT     H187482   2.995   0.774   1.397
29080WAT     H287483   2.873   0.673   1.435
29081WAT      O87484   8.062   3.459   3.435
29081WAT     H187485   8.091   3.405   3.514
29081WAT     H287486   8.131   3.528   3.414
29082WAT      O87487   3.822   0.560   4.241
29082WAT     H187488   3.872   0.478   4.268
29082WAT     H287489   3.839   0.579   4.144
29083WAT      O87490   9.776   9.039   0.896
29083WAT     H187491   9.739   8.948   0.876
29083WAT     H287492   9.815   9.040   0.988
29084WAT      O87493   7.362   8.087   6.661
29084WAT     H187494   7.420   8.020   6.708
29084WAT     H287495   7.411   8.174   6.656
29085WAT      O87496   3.274   9.535   4.541
29085WAT     H187497   3.224   9.615   4.573
29085WAT     H287498   3.273   9.465   4.612
29086WAT      O87499   5.599   0.388   1.110
29086WAT     H187500   5.534   0.326   1.153
29086WAT     H287501   5.692   0.365   1.139
29087WAT      O87502   2.520   9.813   8.567
29087WAT     H187503   2.528   9.827   8.468
29087WAT     H287504   2.560   9.725   8.591
29088WAT      O87505   9.254   7.958   9.717
29088WAT     H187506   9.283   8.005   9.801
29088WAT     H287507   9.323   7.973   9.646
29089WAT      O87508   5.180   6.496   9.784
29089WAT     H187509   5.105   6.555   9.816
29089WAT     H287510   5.264   6.549   9.778
29090WAT      O87511   6.456   4.139   3.121
29090WAT     H187512   6.547   4.176   3.142
29090WAT     H287513   6.421   4.181   3.038
29091WAT      O87514   4.101   5.347   8.970
29091WAT     H187515   4.099   5.394   8.882
29091WAT     H287516   4.181   5.376   9.021
29092WAT      O87517   5.542   2.729   5.058
29092WAT     H187518   5.489   2.809   5.029
29092WAT     H287519   5.516   2.705   5.151
29093WAT      O87520   3.481   3.899   5.464
29093WAT     H187521   3.554   3.867   5.404
29093WAT     H287522   3.485   3.999   5.472
29094WAT      O87523   5.251   7.666   0.995
29094WAT     H187524   5.188   7.724   1.046
29094WAT     H287525   5.244   7.687   0.897
29095WAT      O87526   6.130   8.986   9.604
29095WAT     H187527   6.056   8.949   9.660
29095WAT     H287528   6.191   8.911   9.576
29096WAT      O87529   6.344   3.661   4.244
29096WAT     H187530   6.298   3.606   4.174
29096WAT     H287531   6.443   3.645   4.240
29097WAT      O87532   9.553   7.646   7.333
29097WAT     H187533   9.548   7.714   7.261
29097WAT     H287534   9.538   7.555   7.294
29098WAT      O87535   0.231   5.421   2.672
29098WAT     H187536   0.317   5.374   2.648
29098WAT     H287537   0.159   5.353   2.683
29099WAT      O87538   2.527   1.284   9.533
29099WAT     H187539   2.601   1.219   9.550
29099WAT     H287540   2.565   1.373   9.509
29100WAT      O87541   1.613   8.865   4.141
29100WAT     H187542   1.627   8.783   4.196
29100WAT     H287543   1.535   8.916   4.176
29101WAT      O87544   1.091   2.252   3.954
29101WAT     H187545   1.189   2.240   3.938
29101WAT     H287546   1.069   2.350   3.954
29102WAT      O87547   2.383   4.918   2.713
29102WAT     H187548   2.295   4.874   2.698
29102WAT     H287549   2.390   4.948   2.808
29103WAT      O87550   9.760   5.684   2.900
29103WAT     H187551   9.731   5.775   2.869
29103WAT     H287552   9.682   5.637   2.941
29104WAT      O87553   2.594   8.403   6.448
29104WAT     H187554   2.498   8.382   6.431
29104WAT     H287555   2.613   8.395   6.546
29105WAT      O87556   1.486   0.134   7.181
29105WAT     H187557   1.574   0.171   7.212
29105WAT     H287558   1.421   0.209   7.169
29106WAT      O87559   8.688   5.455   7.373
29106WAT     H187560   8.679   5.405   7.287
29106WAT     H287561   8.783   5.486   7.383
29107WAT      O87562   6.410   1.417   9.881
29107WAT     H187563   6.463   1.355   9.938
29107WAT     H287564   6.339   1.365   9.833
29108WAT      O87565   0.209   0.129   7.072
29108WAT     H187566   0.300   0.130   7.113
29108WAT     H287567   0.144   0.092   7.137
29109WAT      O87568   9.214   5.675   0.941
29109WAT     H187569   9.268   5.759   0.948
29109WAT     H287570   9.153   5.669   1.020
29110WAT      O87571   1.098   9.295   0.879
29110WAT     H187572   1.114   9.202   0.845
29110WAT     H287573   1.015   9.296   0.935
29111WAT      O87574   8.389   8.763   7.225
29111WAT     H187575   8.395   8.743   7.128
29111WAT     H287576   8.335   8.692   7.271
29112WAT      O87577   0.066   6.535   2.711
29112WAT     H187578   0.158   6.562   2.682
29112WAT     H287579   0.035   6.596   2.785
29113WAT      O87580   4.944   3.248   4.896
29113WAT     H187581   4.979   3.314   4.829
29113WAT     H287582   4.878   3.187   4.852
29114WAT      O87583   9.234   9.690   8.765
29114WAT     H187584   9.258   9.646   8.851
29114WAT     H287585   9.175   9.769   8.784
29115WAT      O87586   2.921   3.377   8.161
29115WAT     H187587   2.933   3.283   8.131
29115WAT     H287588   2.838   3.385   8.216
29116WAT      O87589   7.638   9.483   0.782
29116WAT     H187590   7.628   9.432   0.696
29116WAT     H287591   7.550   9.524   0.807
29117WAT      O87592   6.239   5.955   2.182
29117WAT     H187593   6.145   5.981   2.204
29117WAT     H287594   6.274   5.895   2.254
29118WAT      O87595   1.265   4.489   4.002
29118WAT     H187596   1.261   4.586   3.978
29118WAT     H287597   1.225   4.475   4.092
29119WAT      O87598   2.221   1.983   1.679
29119WAT     H187599   2.203   2.048   1.606
29119WAT     H287600   2.297   2.015   1.736
29120WAT      O87601   9.855   7.233   2.262
29120WAT     H187602   9.864   7.328   2.232
29120WAT     H287603   9.770   7.223   2.314
29121WAT      O87604   9.064   6.980   6.173
29121WAT     H187605   8.988   7.000   6.112
29121WAT     H287606   9.043   6.900   6.228
29122WAT      O87607   4.316   9.559   7.967
29122WAT     H187608   4.288   9.501   8.043
29122WAT     H287609   4.383   9.626   7.998
29123WAT      O87610   1.506   7.012   9.005
29123WAT     H187611   1.444   7.084   9.036
29123WAT     H287612   1.500   6.933   9.066
29124WAT      O87613   0.940   7.977   6.319
29124WAT     H187614   0.858   7.998   6.265
29124WAT     H287615   0.919   7.906   6.386
29125WAT      O87616   6.397   8.818   1.196
29125WAT     H187617   6.432   8.765   1.274
29125WAT     H287618   6.343   8.758   1.137
29126WAT      O87619   2.440   5.840   6.045
29126WAT     H187620   2.537   5.819   6.044
29126WAT     H287621   2.396   5.802   5.963
29127WAT      O87622   2.609   1.087   8.528
29127WAT     H187623   2.555   1.122   8.452
29127WAT     H287624   2.549   1.059   8.603
29128WAT      O87625   5.354   7.474   8.611
29128WAT     H187626   5.340   7.386   8.567
29128WAT     H287627   5.398   7.461   8.700
29129WAT      O87628   5.327   2.131   1.096
29129WAT     H187629   5.396   2.069   1.057
29129WAT     H287630   5.270   2.080   1.161
29130WAT      O87631   3.835   4.168   2.111
29130WAT     H187632   3.818   4.265   2.125
29130WAT     H287633   3.875   4.153   2.021
29131WAT      O87634   5.530   3.255   3.616
29131WAT     H187635   5.623   3.220   3.625
29131WAT     H287636   5.478   3.231   3.698
29132WAT      O87637   0.742   2.791   7.018
29132WAT     H187638   0.792   2.736   6.952
29132WAT     H287639   0.691   2.730   7.079
29133WAT      O87640   2.235   6.558   8.195
29133WAT     H187641   2.207   6.472   8.154
29133WAT     H287642   2.254   6.625   8.123
29134WAT      O87643   1.060   3.054   4.590
29134WAT     H187644   1.025   3.085   4.502
29134WAT     H287645   1.082   3.133   4.647
29135WAT      O87646   3.969   9.749   0.895
29135WAT     H187647   4.033   9.773   0.968
29135WAT     H287648   3.895   9.694   0.932
29136WAT      O87649   8.829   7.411   8.549
29136WAT     H187650   8.889   7.436   8.473
29136WAT     H287651   8.882   7.410   8.634
29137WAT      O87652   1.183   3.936   0.387
29137WAT     H187653   1.205   3.844   0.355
29137WAT     H287654   1.168   3.935   0.486
29138WAT      O87655   2.044   8.285   3.757
29138WAT     H187656   2.076   8.195   3.785
29138WAT     H287657   2.119   8.351   3.765
29139WAT      O87658   7.039   1.383   4.699
29139WAT     H187659   6.978   1.352   4.626
29139WAT     H287660   7.089   1.304   4.736
29140WAT      O87661   0.491   5.010   6.583
29140WAT     H187662   0.499   5.083   6.650
29140WAT     H287663   0.422   4.944   6.614
29141WAT      O87664   9.864   8.650   5.749
29141WAT     H187665   9.868   8.726   5.813
29141WAT     H287666   9.882   8.564   5.797
29142WAT      O87667   6.175   0.610   9.502
29142WAT     H187668   6.177   0.587   9.599
29142WAT     H287669   6.229   0.544   9.451
29143WAT      O87670   2.526   1.721   2.986
29143WAT     H187671   2.581   1.692   3.064
29143WAT     H287672   2.451   1.656   2.973
29144WAT      O87673   1.193   2.155   9.719
29144WAT     H187674   1.114   2.216   9.712
29144WAT     H287675   1.202   2.103   9.634
29145WAT      O87676   5.590   3.346   0.588
29145WAT     H187677   5.595   3.442   0.614
29145WAT     H287678   5.674   3.299   0.617
29146WAT      O87679   2.760   4.692   3.266
29146WAT     H187680   2.661   4.693   3.281
29146WAT     H287681   2.801   4.774   3.307
29147WAT      O87682   0.897   6.234   2.825
29147WAT     H187683   0.863   6.175   2.752
29147WAT     H287684   0.996   6.245   2.816
29148WAT      O87685   8.005   8.924   5.390
29148WAT     H187686   8.082   8.954   5.334
29148WAT     H287687   7.920   8.956   5.349
29149WAT      O87688   0.672   6.911   5.473
29149WAT     H187689   0.608   6.974   5.515
29149WAT     H287690   0.730   6.960   5.408
29150WAT      O87691   5.286   2.019   2.645
29150WAT     H187692   5.240   2.103   2.615
29150WAT     H287693   5.249   1.941   2.595
29151WAT      O87694   7.365   7.860   7.059
29151WAT     H187695   7.422   7.798   7.006
29151WAT     H287696   7.283   7.884   7.006
29152WAT      O87697   2.534   3.663   9.845
29152WAT     H187698   2.576   3.652   9.935
29152WAT     H287699   2.446   3.709   9.855
29153WAT      O87700   2.629   6.557   4.286
29153WAT     H187701   2.557   6.594   4.227
29153WAT     H287702   2.661   6.628   4.349
29154WAT      O87703   5.416   4.689   8.098
29154WAT     H187704   5.435   4.597   8.130
29154WAT     H287705   5.453   4.756   8.162
29155WAT      O87706   1.840   3.643   5.044
29155WAT     H187707   1.784   3.726   5.038
29155WAT     H287708   1.925   3.657   4.993
29156WAT      O87709   2.977   4.058   5.720
29156WAT     H187710   2.988   4.000   5.639
29156WAT     H287711   2.909   4.016   5.781
29157WAT      O87712   6.879   5.874   5.371
29157WAT     H187713   6.884   5.968   5.403
29157WAT     H287714   6.840   5.873   5.278
29158WAT      O87715   4.611   0.628   4.405
29158WAT     H187716   4.512   0.621   4.402
29158WAT     H287717   4.649   0.613   4.314
29159WAT      O87718   9.515   6.541   5.891
29159WAT     H187719   9.570   6.463   5.862
29159WAT     H287720   9.574   6.622   5.901
29160WAT      O87721   9.279   7.837   5.980
29160WAT     H187722   9.257   7.743   5.955
29160WAT     H287723   9.320   7.883   5.901
29161WAT      O87724   9.492   6.748   8.082
29161WAT     H187725   9.433   6.726   8.005
29161WAT     H287726   9.478   6.844   8.109
29162WAT      O87727   9.268   2.830   8.641
29162WAT     H187728   9.248   2.853   8.546
29162WAT     H287729   9.259   2.731   8.653
29163WAT      O87730   8.455   3.741   8.817
29163WAT     H187731   8.514   3.781   8.887
29163WAT     H287732   8.488   3.649   8.794
29164WAT      O87733   0.190   3.566   5.341
29164WAT     H187734   0.271   3.625   5.347
29164WAT     H287735   0.107   3.621   5.349
29165WAT      O87736   5.477   4.533   0.742
29165WAT     H187737   5.487   4.610   0.680
29165WAT     H287738   5.504   4.561   0.834
29166WAT      O87739   3.441   0.323   6.170
29166WAT     H187740   3.401   0.235   6.144
29166WAT     H287741   3.419   0.343   6.266
29167WAT      O87742   6.627   7.030   1.903
29167WAT     H187743   6.696   7.086   1.948
29167WAT     H287744   6.671   6.952   1.859
29168WAT      O87745   5.522   8.233   4.299
29168WAT     H187746   5.449   8.218   4.365
29168WAT     H287747   5.562   8.324   4.314
29169WAT      O87748   6.507   2.083   0.834
29169WAT     H187749   6.470   2.045   0.919
29169WAT     H287750   6.508   2.012   0.764
29170WAT      O87751   2.946   8.363   8.299
29170WAT     H187752   3.016   8.367   8.228
29170WAT     H287753   2.982   8.398   8.385
29171WAT      O87754   8.980   5.529   5.012
29171WAT     H187755   8.913   5.467   5.053
29171WAT     H287756   8.934   5.613   4.983
29172WAT      O87757   0.056   6.289   2.842
29172WAT     H187758   0.130   6.245   2.792
29172WAT     H287759   0.032   6.375   2.797
29173WAT      O87760   0.271   5.976   8.589
29173WAT     H187761   0.323   5.935   8.514
29173WAT     H287762   0.297   5.933   8.676
29174WAT      O87763   6.775   3.388   3.587
29174WAT     H187764   6.825   3.310   3.549
29174WAT     H287765   6.741   3.364   3.678
29175WAT      O87766   6.948   6.166   3.309
29175WAT     H187767   6.971   6.161   3.406
29175WAT     H287768   6.983   6.084   3.262
29176WAT      O87769   4.604   1.428   6.971
29176WAT     H187770   4.570   1.397   6.883
29176WAT     H287771   4.528   1.431   7.037
29177WAT      O87772   2.960   3.833   2.841
29177WAT     H187773   2.968   3.929   2.868
29177WAT     H287774   2.870   3.818   2.801
29178WAT      O87775   1.080   2.050   9.214
29178WAT     H187776   1.131   2.095   9.140
29178WAT     H287777   0.988   2.089   9.218
29179WAT      O87778   9.738   4.020   1.770
29179WAT     H187779   9.789   3.935   1.768
29179WAT     H287780   9.775   4.080   1.842
29180WAT      O87781   0.708   1.340   0.009
29180WAT     H187782   0.677   1.379   0.096
29180WAT     H287783   0.632   1.339  -0.056
29181WAT      O87784   4.963   4.048   5.419
29181WAT     H187785   5.062   4.050   5.406
29181WAT     H287786   4.917   4.046   5.331
29182WAT      O87787   9.040   3.969   6.322
29182WAT     H187788   8.966   4.019   6.367
29182WAT     H287789   9.111   4.034   6.293
29183WAT      O87790   9.354   6.909   4.505
29183WAT     H187791   9.276   6.852   4.480
29183WAT     H287792   9.386   6.885   4.596
29184WAT      O87793   1.857   6.582   0.441
29184WAT     H187794   1.819   6.664   0.399
29184WAT     H287795   1.921   6.607   0.513
29185WAT      O87796   5.658   5.961   6.392
29185WAT     H187797   5.744   5.982   6.438
29185WAT     H287798   5.587   5.943   6.460
29186WAT      O87799   8.580   0.199   5.830
29186WAT     H187800   8.543   0.292   5.821
29186WAT     H287801   8.555   0.147   5.748
29187WAT      O87802   3.348   8.834   4.640
29187WAT     H187803   3.355   8.796   4.732
29187WAT     H287804   3.338   8.760   4.573
29188WAT      O87805   8.584   4.801   1.013
29188WAT     H187806   8.528   4.884   1.012
29188WAT     H287807   8.662   4.813   0.952
29189WAT      O87808   5.547   3.846   4.961
29189WAT     H187809   5.640   3.882   4.947
29189WAT     H287810   5.530   3.774   4.894
29190WAT      O87811   3.575   4.038   6.346
29190WAT     H187812   3.578   4.135   6.320
29190WAT     H287813   3.605   3.982   6.270
29191WAT      O87814   7.714   4.582   2.015
29191WAT     H187815   7.716   4.497   2.068
29191WAT     H287816   7.630   4.633   2.036
29192WAT      O87817   5.371   7.220   0.702
29192WAT     H187818   5.326   7.172   0.627
29192WAT     H287819   5.462   7.182   0.717
29193WAT      O87820   2.719   0.620   3.529
29193WAT     H187821   2.655   0.652   3.459
29193WAT     H287822   2.669   0.606   3.615
29194WAT      O87823   9.308   4.474   1.433
29194WAT     H187824   9.386   4.430   1.388
29194WAT     H287825   9.223   4.438   1.395
29195WAT      O87826   7.790   0.787   3.961
29195WAT     H187827   7.798   0.883   3.988
29195WAT     H287828   7.845   0.770   3.879
29196WAT      O87829   4.582   4.023   9.542
29196WAT     H187830   4.510   4.049   9.477
29196WAT     H287831   4.641   3.954   9.501
29197WAT      O87832   2.487   4.586   7.577
29197WAT     H187833   2.392   4.615   7.568
29197WAT     H287834   2.530   4.636   7.652
29198WAT      O87835   9.454   6.981   3.237
29198WAT     H187836   9.385   7.044   3.273
29198WAT     H287837   9.420   6.939   3.153
29199WAT      O87838   1.549   1.266   5.118
29199WAT     H187839   1.586   1.235   5.031
29199WAT     H287840   1.538   1.366   5.117
29200WAT      O87841   3.151   4.463   6.195
29200WAT     H187842   3.059   4.445   6.231
29200WAT     H287843   3.207   4.503   6.268
29201WAT      O87844   3.281   0.592   2.968
29201WAT     H187845   3.337   0.653   3.024
29201WAT     H287846   3.236   0.645   2.896
29202WAT      O87847   6.677   3.272   2.444
29202WAT     H187848   6.634   3.343   2.387
29202WAT     H287849   6.606   3.213   2.483
29203WAT      O87850   4.137   1.369   6.632
29203WAT     H187851   4.148   1.360   6.731
29203WAT     H287852   4.224   1.399   6.592
29204WAT      O87853   3.212   7.556   4.290
29204WAT     H187854   3.263   7.633   4.330
29204WAT     H287855   3.265   7.472   4.300
29205WAT      O87856   0.251   6.242   5.488
29205WAT     H187857   0.205   6.180   5.552
29205WAT     H287858   0.314   6.301   5.539
29206WAT      O87859   9.427   3.581   2.369
29206WAT     H187860   9.436   3.579   2.270
29206WAT     H287861   9.394   3.492   2.401
29207WAT      O87862   1.003   0.367   2.123
29207WAT     H187863   1.031   0.463   2.120
29207WAT     H287864   0.953   0.350   2.208
29208WAT      O87865   3.913   0.599   8.005
29208WAT     H187866   3.956   0.529   7.948
29208WAT     H287867   3.975   0.677   8.012
29209WAT      O87868   3.577   9.443   1.269
29209WAT     H187869   3.675   9.459   1.276
29209WAT     H287870   3.554   9.361   1.321
29210WAT      O87871   6.836   9.025   5.469
29210WAT     H187872   6.754   9.023   5.411
29210WAT     H287873   6.913   8.986   5.419
29211WAT      O87874   6.042   6.905   8.564
29211WAT     H187875   5.980   6.878   8.491
29211WAT     H287876   6.021   6.999   8.593
29212WAT      O87877   6.395   1.544   7.213
29212WAT     H187878   6.470   1.486   7.245
29212WAT     H287879   6.319   1.487   7.181
29213WAT      O87880   1.235   8.002   6.422
29213WAT     H187881   1.139   8.013   6.395
29213WAT     H287882   1.240   7.961   6.512
29214WAT      O87883   5.888   6.816   4.279
29214WAT     H187884   5.943   6.813   4.196
29214WAT     H287885   5.945   6.791   4.358
29215WAT      O87886   6.260   4.054   7.105
29215WAT     H187887   6.243   4.140   7.057
29215WAT     H287888   6.295   3.986   7.042
29216WAT      O87889   6.218   2.747   4.513
29216WAT     H187890   6.286   2.819   4.525
29216WAT     H287891   6.249   2.663   4.558
29217WAT      O87892   6.778   9.480   0.301
29217WAT     H187893   6.703   9.514   0.243
29217WAT     H287894   6.750   9.396   0.347
29218WAT      O87895   4.874   2.422   6.528
29218WAT     H187896   4.878   2.495   6.597
29218WAT     H287897   4.782   2.418   6.490
29219WAT      O87898   3.370   1.687   1.633
29219WAT     H187899   3.314   1.692   1.550
29219WAT     H287900   3.376   1.777   1.675
29220WAT      O87901   0.898   6.339   3.067
29220WAT     H187902   0.920   6.259   3.123
29220WAT     H287903   0.878   6.309   2.974
29221WAT      O87904   5.269   1.982   6.150
29221WAT     H187905   5.231   2.060   6.200
29221WAT     H287906   5.313   1.919   6.214
29222WAT      O87907   9.644   8.628   4.956
29222WAT     H187908   9.603   8.560   4.895
29222WAT     H287909   9.648   8.716   4.910
29223WAT      O87910   7.654   3.760   9.044
29223WAT     H187911   7.578   3.725   9.100
29223WAT     H287912   7.621   3.831   8.982
29224WAT      O87913   2.606   3.935   7.487
29224WAT     H187914   2.537   3.921   7.416
29224WAT     H287915   2.566   3.987   7.563
29225WAT      O87916   9.605   6.481   0.876
29225WAT     H187917   9.569   6.536   0.951
29225WAT     H287918   9.687   6.523   0.839
29226WAT      O87919   6.305   3.676   2.484
29226WAT     H187920   6.401   3.702   2.488
29226WAT     H287921   6.281   3.654   2.389
29227WAT      O87922   1.939   2.023   5.059
29227WAT     H187923   1.956   1.949   5.124
29227WAT     H287924   1.974   1.997   4.969
29228WAT      O87925   1.722   3.245   7.615
29228WAT     H187926   1.822   3.248   7.614
29228WAT     H287927   1.690   3.152   7.596
29229WAT      O87928   7.928   6.798   5.579
29229WAT     H187929   8.019   6.817   5.617
29229WAT     H287930   7.895   6.711   5.614
29230WAT      O87931   2.975   2.090   5.188
29230WAT     H187932   3.017   2.041   5.111
29230WAT     H287933   2.875   2.081   5.183
29231WAT      O87934   6.780   0.909   3.861
29231WAT     H187935   6.706   0.843   3.855
29231WAT     H287936   6.745   1.001   3.844
29232WAT      O87937   9.332   8.496   3.193
29232WAT     H187938   9.246   8.539   3.163
29232WAT     H287939   9.401   8.506   3.122
29233WAT      O87940   3.683   2.471   8.726
29233WAT     H187941   3.743   2.468   8.806
29233WAT     H287942   3.590   2.493   8.756
29234WAT      O87943   5.843   2.876   9.832
29234WAT     H187944   5.930   2.909   9.795
29234WAT     H287945   5.839   2.777   9.824
29235WAT      O87946   7.310   0.995   8.613
29235WAT     H187947   7.316   0.920   8.547
29235WAT     H287948   7.326   1.082   8.566
29236WAT      O87949   8.335   8.991   6.424
29236WAT     H187950   8.267   8.989   6.351
29236WAT     H287951   8.291   9.015   6.510
29237WAT      O87952   2.404   6.367   0.771
29237WAT     H187953   2.465   6.288   0.769
29237WAT     H287954   2.417   6.417   0.857
29238WAT      O87955   5.457   1.352   7.930
29238WAT     H187956   5.437   1.364   7.832
29238WAT     H287957   5.545   1.308   7.941
29239WAT      O87958   3.171   5.752   4.204
29239WAT     H187959   3.105   5.714   4.140
29239WAT     H287960   3.260   5.761   4.159
29240WAT      O87961   6.485   4.812   1.776
29240WAT     H187962   6.505   4.901   1.818
29240WAT     H287963   6.477   4.823   1.677
29241WAT      O87964   7.015   4.108   2.119
29241WAT     H187965   7.020   4.052   2.202
29241WAT     H287966   7.001   4.049   2.040
29242WAT      O87967   3.096   2.305   2.582
29242WAT     H187968   3.023   2.367   2.556
29242WAT     H287969   3.184   2.353   2.576
29243WAT      O87970   9.089   3.501   7.955
29243WAT     H187971   9.150   3.568   7.912
29243WAT     H287972   9.084   3.519   8.053
29244WAT      O87973   1.651   2.393   3.173
29244WAT     H187974   1.738   2.389   3.124
29244WAT     H287975   1.612   2.484   3.163
29245WAT      O87976   3.765   9.314   1.025
29245WAT     H187977   3.760   9.366   1.111
29245WAT     H287978   3.861   9.308   0.996
29246WAT      O87979   1.706   5.572   6.072
29246WAT     H187980   1.724   5.477   6.046
29246WAT     H287981   1.738   5.587   6.166
29247WAT      O87982   3.203   1.214   9.774
29247WAT     H187983   3.291   1.253   9.802
29247WAT     H287984   3.159   1.173   9.854
29248WAT      O87985   2.548   6.088   6.565
29248WAT     H187986   2.493   6.158   6.609
29248WAT     H287987   2.584   6.123   6.478
29249WAT      O87988   1.709   5.907   9.876
29249WAT     H187989   1.719   5.903   9.975
29249WAT     H287990   1.761   5.833   9.834
29250WAT      O87991   1.716   3.736   0.763
29250WAT     H187992   1.789   3.699   0.821
29250WAT     H287993   1.676   3.817   0.805
29251WAT      O87994   5.853   8.871   6.128
29251WAT     H187995   5.769   8.833   6.168
29251WAT     H287996   5.900   8.802   6.075
29252WAT      O87997   4.393   6.688   3.981
29252WAT     H187998   4.457   6.759   4.009
29252WAT     H287999   4.436   6.598   3.993
29253WAT      O88000   4.525   4.406   4.393
29253WAT     H188001   4.562   4.478   4.334
29253WAT     H288002   4.432   4.383   4.363
29254WAT      O88003   7.192   8.977   1.396
29254WAT     H188004   7.146   8.896   1.432
29254WAT     H288005   7.281   8.951   1.358
29255WAT      O88006   7.816   7.655   2.636
29255WAT     H188007   7.823   7.639   2.735
29255WAT     H288008   7.747   7.724   2.618
29256WAT      O88009   3.999   7.702   0.002
29256WAT     H188010   3.999   7.745   0.092
29256WAT     H288011   4.057   7.756  -0.060
29257WAT      O88012   2.774   5.975   3.405
29257WAT     H188013   2.678   5.947   3.407
29257WAT     H288014   2.783   6.069   3.439
29258WAT      O88015   5.487   4.987   5.515
29258WAT     H188016   5.558   4.930   5.474
29258WAT     H288017   5.409   4.994   5.452
29259WAT      O88018   3.672   4.822   1.675
29259WAT     H188019   3.667   4.901   1.614
29259WAT     H288020   3.758   4.824   1.725
29260WAT      O88021   0.929   0.783   7.952
29260WAT     H188022   1.026   0.797   7.931
29260WAT     H288023   0.875   0.852   7.904
29261WAT      O88024   7.583   9.472   2.912
29261WAT     H188025   7.488   9.498   2.895
29261WAT     H288026   7.622   9.429   2.831
29262WAT      O88027   0.971   6.193   1.311
29262WAT     H188028   0.947   6.211   1.216
29262WAT     H288029   1.055   6.139   1.315
29263WAT      O88030   6.996   5.617   6.281
29263WAT     H188031   7.075   5.660   6.236
29263WAT     H288032   6.939   5.688   6.321
29264WAT      O88033   6.768   4.209   0.692
29264WAT     H188034   6.748   4.116   0.662
29264WAT     H288035   6.728   4.225   0.782
29265WAT      O88036   1.878   9.230   5.010
29265WAT     H188037   1.780   9.217   5.018
29265WAT     H288038   1.925   9.143   5.024
29266WAT      O88039   7.844   2.872   5.574
29266WAT     H188040   7.812   2.945   5.633
29266WAT     H288041   7.834   2.784   5.621
29267WAT      O88042   7.204   7.819   5.660
29267WAT     H188043   7.136   7.798   5.730
29267WAT     H288044   7.225   7.917   5.662
29268WAT      O88045   0.621   5.261   1.820
29268WAT     H188046   0.719   5.279   1.811
29268WAT     H288047   0.570   5.327   1.765
29269WAT      O88048   6.168   2.134   8.198
29269WAT     H188049   6.081   2.105   8.237
29269WAT     H288050   6.166   2.122   8.099
29270WAT      O88051   5.584   4.576   5.968
29270WAT     H188052   5.547   4.484   5.983
29270WAT     H288053   5.615   4.584   5.873
29271WAT      O88054   4.968   5.207   2.203
29271WAT     H188055   4.881   5.246   2.233
29271WAT     H288056   4.986   5.123   2.254
29272WAT      O88057   7.504   3.647   6.857
29272WAT     H188058   7.587   3.616   6.903
29272WAT     H288059   7.460   3.718   6.912
29273WAT      O88060   1.870   0.902   0.909
29273WAT     H188061   1.920   0.929   0.827
29273WAT     H288062   1.796   0.967   0.926
29274WAT      O88063   2.903   4.775   4.074
29274WAT     H188064   2.819   4.740   4.115
29274WAT     H288065   2.976   4.777   4.143
29275WAT      O88066   2.630   7.288   4.485
29275WAT     H188067   2.721   7.258   4.456
29275WAT     H288068   2.632   7.386   4.505
29276WAT      O88069   2.087   3.197   3.868
29276WAT     H188070   2.168   3.157   3.911
29276WAT     H288071   2.031   3.242   3.937
29277WAT      O88072   7.024   5.519   8.377
29277WAT     H188073   7.036   5.447   8.309
29277WAT     H288074   7.109   5.568   8.390
29278WAT      O88075   0.798   2.914   3.971
29278WAT     H188076   0.862   2.978   4.015
29278WAT     H288077   0.849   2.853   3.910
29279WAT      O88078   1.550   8.757   7.518
29279WAT     H188079   1.534   8.844   7.471
29279WAT     H288080   1.639   8.721   7.492
29280WAT      O88081   3.287   0.046   9.143
29280WAT     H188082   3.306   0.085   9.052
29280WAT     H288083   3.356  -0.023   9.165
29281WAT      O88084   1.404   4.850   4.214
29281WAT     H188085   1.398   4.783   4.288
29281WAT     H288086   1.406   4.803   4.126
29282WAT      O88087   5.581   4.611   4.677
29282WAT     H188088   5.512   4.679   4.653
29282WAT     H288089   5.559   4.524   4.632
29283WAT      O88090   9.739   6.928   9.648
29283WAT     H188091   9.731   7.026   9.663
29283WAT     H288092   9.657   6.894   9.602
29284WAT      O88093   3.336   5.585   1.947
29284WAT     H188094   3.344   5.577   2.046
29284WAT     H288095   3.304   5.498   1.909
29285WAT      O88096   9.254   0.611   1.097
29285WAT     H188097   9.183   0.654   1.152
29285WAT     H288098   9.306   0.681   1.048
29286WAT      O88099   7.281   6.329   8.322
29286WAT     H188100   7.361   6.390   8.321
29286WAT     H288101   7.311   6.234   8.330
29287WAT      O88102   5.078   0.756   5.074
29287WAT     H188103   5.090   0.855   5.071
29287WAT     H288104   5.074   0.720   4.981
29288WAT      O88105   6.443   6.393   8.117
29288WAT     H188106   6.416   6.322   8.182
29288WAT     H288107   6.528   6.436   8.147
29289WAT      O88108   9.746   5.092   1.956
29289WAT     H188109   9.731   5.132   2.046
29289WAT     H288110   9.811   5.017   1.963
29290WAT      O88111   2.037   7.171   5.960
29290WAT     H188112   1.944   7.140   5.978
29290WAT     H288113   2.092   7.095   5.927
29291WAT      O88114   7.488   7.802   5.902
29291WAT     H188115   7.549   7.782   5.979
29291WAT     H288116   7.541   7.806   5.817
29292WAT      O88117   4.893   5.573   9.375
29292WAT     H188118   4.850   5.647   9.425
29292WAT     H288119   4.967   5.609   9.319
29293WAT      O88120   7.827   7.320   0.461
29293WAT     H188121   7.924   7.339   0.451
29293WAT     H288122   7.803   7.239   0.408
29294WAT      O88123   6.960   0.867   3.118
29294WAT     H188124   7.059   0.852   3.111
29294WAT     H288125   6.941   0.965   3.112
29295WAT      O88126   3.239   2.514   6.696
29295WAT     H188127   3.285   2.487   6.612
29295WAT     H288128   3.292   2.481   6.775
29296WAT      O88129   0.548   5.773   5.265
29296WAT     H188130   0.522   5.683   5.230
29296WAT     H288131   0.469   5.817   5.307
29297WAT      O88132   7.849   2.512   4.288
29297WAT     H188133   7.802   2.493   4.375
29297WAT     H288134   7.946   2.526   4.306
29298WAT      O88135   1.776   4.890   1.277
29298WAT     H188136   1.849   4.951   1.310
29298WAT     H288137   1.726   4.853   1.355
29299WAT      O88138   1.994   6.589   7.688
29299WAT     H188139   2.053   6.544   7.755
29299WAT     H288140   2.003   6.688   7.696
29300WAT      O88141   9.276   4.227   7.369
29300WAT     H188142   9.176   4.231   7.373
29300WAT     H288143   9.310   4.159   7.433
29301WAT      O88144   1.763   1.177   6.103
29301WAT     H188145   1.748   1.207   6.008
29301WAT     H288146   1.856   1.201   6.131
29302WAT      O88147   2.601   8.841   7.298
29302WAT     H188148   2.684   8.883   7.334
29302WAT     H288149   2.559   8.784   7.368
29303WAT      O88150   6.633   9.789   6.364
29303WAT     H188151   6.688   9.771   6.446
29303WAT     H288152   6.693   9.795   6.284
29304WAT      O88153   3.730   6.378   2.770
29304WAT     H188154   3.653   6.415   2.719
29304WAT     H288155   3.725   6.408   2.865
29305WAT      O88156   6.923   6.979   9.687
29305WAT     H188157   6.981   7.059   9.672
29305WAT     H288158   6.847   6.980   9.622
29306WAT      O88159   1.063   6.857   2.317
29306WAT     H188160   0.985   6.831   2.374
29306WAT     H288161   1.046   6.946   2.275
29307WAT      O88162   7.190   2.259   8.014
29307WAT     H188163   7.120   2.330   8.018
29307WAT     H288164   7.275   2.298   7.980
29308WAT      O88165   1.436   6.943   8.160
29308WAT     H188166   1.374   6.995   8.219
29308WAT     H288167   1.397   6.938   8.068
29309WAT      O88168   4.123   1.842   2.565
29309WAT     H188169   4.205   1.809   2.518
29309WAT     H288170   4.132   1.826   2.664
29310WAT      O88171   5.768   4.457   9.780
29310WAT     H188172   5.846   4.515   9.759
29310WAT     H288173   5.778   4.418   9.872
29311WAT      O88174   5.587   0.107   2.074
29311WAT     H188175   5.580   0.152   1.984
29311WAT     H288176   5.620   0.172   2.142
29312WAT      O88177   9.502   6.869   2.968
29312WAT     H188178   9.569   6.940   2.989
29312WAT     H288179   9.533   6.815   2.889
29313WAT      O88180   1.236   7.464   7.599
29313WAT     H188181   1.184   7.520   7.662
29313WAT     H288182   1.299   7.522   7.546
29314WAT      O88183   6.317   2.294   5.852
29314WAT     H188184   6.352   2.236   5.779
29314WAT     H288185   6.393   2.322   5.911
29315WAT      O88186   4.096   2.719   4.611
29315WAT     H188187   4.098   2.788   4.538
29315WAT     H288188   4.190   2.692   4.634
29316WAT      O88189   6.674   1.172   8.059
29316WAT     H188190   6.696   1.246   8.123
29316WAT     H288191   6.754   1.151   8.003
29317WAT      O88192   0.584   8.012   3.457
29317WAT     H188193   0.553   8.044   3.547
29317WAT     H288194   0.654   7.942   3.469
29318WAT      O88195   8.639   3.582   4.871
29318WAT     H188196   8.545   3.555   4.851
29318WAT     H288197   8.677   3.632   4.793
29319WAT      O88198   1.827   5.951   1.844
29319WAT     H188199   1.743   5.945   1.899
29319WAT     H288200   1.893   6.008   1.892
29320WAT      O88201   2.405   0.517   4.407
29320WAT     H188202   2.320   0.498   4.457
29320WAT     H288203   2.400   0.609   4.368
29321WAT      O88204   8.223   8.519   9.770
29321WAT     H188205   8.231   8.516   9.869
29321WAT     H288206   8.151   8.456   9.740
29322WAT      O88207   9.862   3.320   9.780
29322WAT     H188208   9.795   3.290   9.712
29322WAT     H288209   9.816   3.335   9.867
29323WAT      O88210   1.559   8.643   8.292
29323WAT     H188211   1.460   8.650   8.281
29323WAT     H288212   1.600   8.604   8.209
29324WAT      O88213   0.073   5.853   9.524
29324WAT     H188214   0.148   5.792   9.553
29324WAT     H288215   0.096   5.947   9.548
29325WAT      O88216   5.546   6.243   4.175
29325WAT     H188217   5.522   6.231   4.079
29325WAT     H288218   5.463   6.234   4.231
29326WAT      O88219   0.763   7.864   4.908
29326WAT     H188220   0.685   7.833   4.853
29326WAT     H288221   0.774   7.803   4.987
29327WAT      O88222   4.359   3.753   1.129
29327WAT     H188223   4.372   3.673   1.188
29327WAT     H288224   4.267   3.789   1.141
29328WAT      O88225   6.281   0.381   3.773
29328WAT     H188226   6.356   0.419   3.827
29328WAT     H288227   6.315   0.303   3.719
29329WAT      O88228   8.460   5.768   1.801
29329WAT     H188229   8.370   5.781   1.759
29329WAT     H288230   8.513   5.853   1.794
29330WAT      O88231   6.374   5.590   3.623
29330WAT     H188232   6.428   5.632   3.550
29330WAT     H288233   6.422   5.508   3.656
29331WAT      O88234   9.605   0.442   1.023
29331WAT     H188235   9.698   0.461   1.056
29331WAT     H288236   9.539   0.492   1.079
29332WAT      O88237   5.332   6.927   0.239
29332WAT     H188238   5.242   6.893   0.266
29332WAT     H288239   5.354   6.891   0.148
29333WAT      O88240   8.051   3.833   1.593
29333WAT     H188241   8.131   3.809   1.648
29333WAT     H288242   7.974   3.776   1.619
29334WAT      O88243   3.069   5.813   9.357
29334WAT     H188244   3.117   5.819   9.445
29334WAT     H288245   3.026   5.901   9.337
29335WAT      O88246   7.439   3.922   3.483
29335WAT     H188247   7.445   3.900   3.385
29335WAT     H288248   7.522   3.969   3.512
29336WAT      O88249   1.253   3.403   2.582
29336WAT     H188250   1.248   3.311   2.620
29336WAT     H288251   1.343   3.442   2.604
29337WAT      O88252   2.549   8.008   9.654
29337WAT     H188253   2.453   7.997   9.678
29337WAT     H288254   2.570   8.105   9.643
29338WAT      O88255   3.664   8.500   2.984
29338WAT     H188256   3.599   8.555   2.931
29338WAT     H288257   3.631   8.405   2.988
29339WAT      O88258   0.797   5.276   5.226
29339WAT     H188259   0.773   5.266   5.130
29339WAT     H288260   0.720   5.316   5.276
29340WAT      O88261   7.222   5.754   4.773
29340WAT     H188262   7.246   5.752   4.676
29340WAT     H288263   7.228   5.848   4.806
29341WAT      O88264   4.884   8.387   9.544
29341WAT     H188265   4.794   8.389   9.500
29341WAT     H288266   4.888   8.311   9.608
29342WAT      O88267   0.011   1.242   1.568
29342WAT     H188268   0.081   1.177   1.539
29342WAT     H288269   0.015   1.323   1.509
29343WAT      O88270   4.484   2.938   3.323
29343WAT     H188271   4.580   2.914   3.337
29343WAT     H288272   4.440   2.869   3.266
29344WAT      O88273   3.158   4.017   9.147
29344WAT     H188274   3.139   3.947   9.078
29344WAT     H288275   3.077   4.031   9.203
29345WAT      O88276   4.800   6.523   1.030
29345WAT     H188277   4.875   6.553   1.089
29345WAT     H288278   4.713   6.535   1.078
29346WAT      O88279   5.261   7.375   0.117
29346WAT     H188280   5.348   7.404   0.155
29346WAT     H288281   5.270   7.283   0.079
29347WAT      O88282   4.828   9.498   2.799
29347WAT     H188283   4.893   9.487   2.874
29347WAT     H288284   4.736   9.477   2.831
29348WAT      O88285   1.206   6.283   8.003
29348WAT     H188286   1.184   6.373   8.042
29348WAT     H288287   1.180   6.212   8.069
29349WAT      O88288   6.571   9.506   2.903
29349WAT     H188289   6.617   9.574   2.846
29349WAT     H288290   6.566   9.538   2.998
29350WAT      O88291   5.751   9.778   4.300
29350WAT     H188292   5.773   9.740   4.390
29350WAT     H288293   5.730   9.875   4.310
29351WAT      O88294   6.129   7.371   0.685
29351WAT     H188295   6.102   7.287   0.732
29351WAT     H288296   6.147   7.443   0.752
29352WAT      O88297   0.175   3.933   5.061
29352WAT     H188298   0.105   3.980   5.116
29352WAT     H288299   0.262   3.936   5.109
29353WAT      O88300   4.191   6.635   3.480
29353WAT     H188301   4.228   6.677   3.563
29353WAT     H288302   4.116   6.574   3.504
29354WAT      O88303   4.728   7.946   2.675
29354WAT     H188304   4.785   7.867   2.654
29354WAT     H288305   4.652   7.919   2.734
29355WAT      O88306   5.084   8.628   5.814
29355WAT     H188307   5.006   8.654   5.871
29355WAT     H288308   5.072   8.534   5.782
29356WAT      O88309   8.244   3.294   9.095
29356WAT     H188310   8.258   3.373   9.035
29356WAT     H288311   8.256   3.209   9.043
29357WAT      O88312   5.736   0.022   2.387
29357WAT     H188313   5.693   0.107   2.355
29357WAT     H288314   5.741  -0.042   2.311
29358WAT      O88315   0.608   2.110   2.270
29358WAT     H188316   0.693   2.062   2.292
29358WAT     H288317   0.567   2.146   2.353
29359WAT      O88318   5.509   6.715   6.734
29359WAT     H188319   5.512   6.815   6.732
29359WAT     H288320   5.420   6.685   6.767
29360WAT      O88321   6.445   9.055   3.968
29360WAT     H188322   6.509   9.008   4.029
29360WAT     H288323   6.496   9.104   3.897
29361WAT      O88324   2.810   2.782   7.278
29361WAT     H188325   2.766   2.824   7.357
29361WAT     H288326   2.882   2.842   7.244
29362WAT      O88327   8.561   4.053   9.177
29362WAT     H188328   8.467   4.032   9.202
29362WAT     H288329   8.596   3.983   9.114
29363WAT      O88330   1.181   1.765   4.356
29363WAT     H188331   1.160   1.860   4.379
29363WAT     H288332   1.194   1.712   4.439
29364WAT      O88333   7.148   1.175   9.017
29364WAT     H188334   7.237   1.130   9.013
29364WAT     H288335   7.112   1.168   9.110
29365WAT      O88336   6.049   5.301   4.524
29365WAT     H188337   6.094   5.390   4.521
29365WAT     H288338   5.961   5.309   4.571
29366WAT      O88339   4.068   5.033   3.108
29366WAT     H188340   4.000   4.980   3.057
29366WAT     H288341   4.140   5.064   3.045
29367WAT      O88342   9.331   3.344   1.532
29367WAT     H188343   9.290   3.271   1.586
29367WAT     H288344   9.411   3.380   1.579
29368WAT      O88345   7.583   0.443   6.611
29368WAT     H188346   7.631   0.467   6.696
29368WAT     H288347   7.604   0.349   6.586
29369WAT      O88348   1.972   2.533   0.505
29369WAT     H188349   1.934   2.443   0.485
29369WAT     H288350   1.899   2.602   0.501
29370WAT      O88351   0.263   8.867   0.143
29370WAT     H188352   0.225   8.957   0.121
29370WAT     H288353   0.198   8.796   0.117
29371WAT      O88354   5.013   6.228   2.137
29371WAT     H188355   5.080   6.298   2.111
29371WAT     H288356   4.921   6.265   2.129
29372WAT      O88357   1.504   8.131   6.039
29372WAT     H188358   1.445   8.212   6.037
29372WAT     H288359   1.590   8.151   5.993
29373WAT      O88360   0.922   8.163   0.894
29373WAT     H188361   0.921   8.168   0.794
29373WAT     H288362   0.853   8.226   0.931
29374WAT      O88363   9.325   8.733   3.585
29374WAT     H188364   9.302   8.718   3.681
29374WAT     H288365   9.282   8.818   3.553
29375WAT      O88366   1.896   2.851   9.716
29375WAT     H188367   1.809   2.806   9.696
29375WAT     H288368   1.918   2.915   9.643
29376WAT      O88369   8.715   7.433   7.555
29376WAT     H188370   8.811   7.435   7.528
29376WAT     H288371   8.658   7.455   7.476
29377WAT      O88372   6.711   7.041   7.981
29377WAT     H188373   6.770   6.966   8.009
29377WAT     H288374   6.663   7.016   7.896
29378WAT      O88375   3.338   1.948   1.724
29378WAT     H188376   3.277   1.998   1.662
29378WAT     H288377   3.294   1.940   1.813
29379WAT      O88378   7.051   9.363   0.306
29379WAT     H188379   7.099   9.389   0.222
29379WAT     H288380   6.968   9.417   0.316
29380WAT      O88381   1.473   6.999   3.413
29380WAT     H188382   1.464   6.995   3.313
29380WAT     H288383   1.405   6.938   3.455
29381WAT      O88384   9.244   1.877   5.644
29381WAT     H188385   9.167   1.813   5.637
29381WAT     H288386   9.211   1.964   5.680
29382WAT      O88387   8.295   7.065   5.980
29382WAT     H188388   8.252   7.151   6.008
29382WAT     H288389   8.258   6.990   6.034
29383WAT      O88390   3.335   1.030   6.085
29383WAT     H188391   3.287   1.118   6.080
29383WAT     H288392   3.346   0.993   5.993
29384WAT      O88393   4.679   5.837   5.772
29384WAT     H188394   4.741   5.776   5.722
29384WAT     H288395   4.614   5.783   5.825
29385WAT      O88396   3.690   5.271   0.625
29385WAT     H188397   3.675   5.296   0.721
29385WAT     H288398   3.633   5.328   0.566
29386WAT      O88399   2.825   7.482   6.349
29386WAT     H188400   2.910   7.434   6.371
29386WAT     H288401   2.779   7.434   6.274
29387WAT      O88402   6.910   5.814   2.529
29387WAT     H188403   6.815   5.845   2.539
29387WAT     H288404   6.972   5.888   2.557
29388WAT      O88405   4.013   7.752   1.735
29388WAT     H188406   4.019   7.664   1.688
29388WAT     H288407   4.044   7.742   1.829
29389WAT      O88408   1.014   8.847   3.409
29389WAT     H188409   0.930   8.813   3.366
29389WAT     H288410   1.064   8.903   3.344
29390WAT      O88411   8.986   0.873   7.334
29390WAT     H188412   8.913   0.872   7.402
29390WAT     H288413   8.954   0.920   7.251
29391WAT      O88414   9.401   2.147   5.160
29391WAT     H188415   9.404   2.187   5.251
29391WAT     H288416   9.431   2.052   5.165
29392WAT      O88417   5.713   0.139   4.589
29392WAT     H188418   5.766   0.056   4.572
29392WAT     H288419   5.617   0.123   4.565
29393WAT      O88420   2.722   1.519   5.385
29393WAT     H188421   2.653   1.455   5.350
29393WAT     H288422   2.743   1.587   5.315
29394WAT      O88423   4.363   1.912   1.502
29394WAT     H188424   4.426   1.980   1.539
29394WAT     H288425   4.335   1.939   1.410
29395WAT      O88426   3.974   2.473   7.636
29395WAT     H188427   3.923   2.466   7.550
29395WAT     H288428   4.031   2.555   7.634
29396WAT      O88429   2.010   6.314   3.258
29396WAT     H188430   2.091   6.259   3.278
29396WAT     H288431   1.982   6.362   3.341
29397WAT      O88432   5.772   8.997   1.402
29397WAT     H188433   5.747   8.970   1.495
29397WAT     H288434   5.816   9.087   1.404
29398WAT      O88435   9.300   1.058   0.438
29398WAT     H188436   9.277   0.977   0.492
29398WAT     H288437   9.234   1.067   0.363
29399WAT      O88438   6.794   2.499   5.493
29399WAT     H188439   6.718   2.436   5.508
29399WAT     H288440   6.880   2.454   5.517
29400WAT      O88441   6.511   8.383   0.724
29400WAT     H188442   6.549   8.291   0.716
29400WAT     H288443   6.438   8.383   0.792
29401WAT      O88444   8.602   6.798   7.159
29401WAT     H188445   8.667   6.728   7.129
29401WAT     H288446   8.511   6.758   7.164
29402WAT      O88447   8.853   7.562   4.095
29402WAT     H188448   8.875   7.475   4.051
29402WAT     H288449   8.933   7.622   4.092
29403WAT      O88450   2.910   7.756   2.688
29403WAT     H188451   2.997   7.711   2.709
29403WAT     H288452   2.861   7.703   2.620
29404WAT      O88453   0.754   8.845   5.275
29404WAT     H188454   0.805   8.895   5.205
29404WAT     H288455   0.739   8.751   5.245
29405WAT      O88456   2.663   1.630   3.232
29405WAT     H188457   2.728   1.554   3.220
29405WAT     H288458   2.713   1.711   3.262
29406WAT      O88459   8.002   1.192   8.695
29406WAT     H188460   7.919   1.221   8.743
29406WAT     H288461   8.076   1.180   8.760
29407WAT      O88462   6.434   7.538   4.304
29407WAT     H188463   6.495   7.615   4.318
29407WAT     H288464   6.459   7.490   4.219
29408WAT      O88465   1.117   2.222   8.069
29408WAT     H188466   1.164   2.221   8.157
29408WAT     H288467   1.170   2.170   8.002
29409WAT      O88468   5.795   7.425   2.356
29409WAT     H188469   5.730   7.370   2.408
29409WAT     H288470   5.769   7.521   2.362
29410WAT      O88471   3.612   5.071   2.218
29410WAT     H188472   3.607   5.064   2.317
29410WAT     H288473   3.664   4.994   2.181
29411WAT      O88474   4.730   3.254   4.407
29411WAT     H188475   4.787   3.177   4.434
29411WAT     H288476   4.710   3.310   4.487
29412WAT      O88477   8.498   7.521   7.396
29412WAT     H188478   8.486   7.548   7.300
29412WAT     H288479   8.422   7.556   7.450
29413WAT      O88480   5.801   8.772   8.081
29413WAT     H188481   5.830   8.854   8.132
29413WAT     H288482   5.710   8.787   8.044
29414WAT      O88483   9.799   8.784   2.649
29414WAT     H188484   9.809   8.788   2.550
29414WAT     H288485   9.739   8.858   2.679
29415WAT      O88486   4.247   9.451   4.852
29415WAT     H188487   4.333   9.425   4.807
29415WAT     H288488   4.173   9.451   4.785
29416WAT      O88489   2.455   7.850   5.936
29416WAT     H188490   2.513   7.776   5.900
29416WAT     H288491   2.395   7.813   6.007
29417WAT      O88492   7.020   7.853   7.784
29417WAT     H188493   6.975   7.907   7.713
29417WAT     H288494   6.978   7.762   7.788
29418WAT      O88495   7.091   1.632   1.085
29418WAT     H188496   7.158   1.692   1.041
29418WAT     H288497   7.002   1.676   1.084
29419WAT      O88498   9.100   6.499   5.636
29419WAT     H188499   9.197   6.521   5.645
29419WAT     H288500   9.046   6.561   5.693
29420WAT      O88501   9.403   2.564   0.942
29420WAT     H188502   9.498   2.591   0.925
29420WAT     H288503   9.389   2.470   0.910
29421WAT      O88504   4.586   9.439   4.112
29421WAT     H188505   4.487   9.451   4.104
29421WAT     H288506   4.608   9.342   4.104
29422WAT      O88507   4.598   5.312   5.936
29422WAT     H188508   4.563   5.314   6.030
29422WAT     H288509   4.546   5.245   5.882
29423WAT      O88510   8.206   2.476   2.191
29423WAT     H188511   8.135   2.405   2.189
29423WAT     H288512   8.231   2.495   2.286
29424WAT      O88513   6.239   9.201   4.375
29424WAT     H188514   6.278   9.228   4.287
29424WAT     H288515   6.279   9.115   4.404
29425WAT      O88516   3.422   5.910   6.692
29425WAT     H188517   3.448   5.825   6.647
29425WAT     H288518   3.463   5.988   6.644
29426WAT      O88519   1.873   1.075   3.790
29426WAT     H188520   1.889   1.146   3.722
29426WAT     H288521   1.781   1.084   3.828
29427WAT      O88522   3.625   7.299   5.618
29427WAT     H188523   3.621   7.201   5.640
29427WAT     H288524   3.672   7.348   5.691
29428WAT      O88525   5.958   8.306   8.418
29428WAT     H188526   6.050   8.337   8.392
29428WAT     H288527   5.966   8.232   8.485
29429WAT      O88528   3.751   5.503   6.489
29429WAT     H188529   3.730   5.406   6.475
29429WAT     H288530   3.754   5.523   6.586
29430WAT      O88531   9.794   8.555   9.409
29430WAT     H188532   9.781   8.535   9.312
29430WAT     H288533   9.762   8.648   9.429
29431WAT      O88534   1.285   9.589   5.766
29431WAT     H188535   1.380   9.602   5.739
29431WAT     H288536   1.270   9.493   5.790
29432WAT      O88537   7.364   1.755   9.610
29432WAT     H188538   7.279   1.755   9.559
29432WAT     H288539   7.345   1.744   9.708
29433WAT      O88540   8.155   3.776   4.591
29433WAT     H188541   8.112   3.690   4.620
29433WAT     H288542   8.228   3.801   4.655
29434WAT      O88543   1.944   8.129   6.236
29434WAT     H188544   1.910   8.079   6.155
29434WAT     H288545   2.038   8.102   6.255
29435WAT      O88546   2.214   5.171   2.720
29435WAT     H188547   2.290   5.219   2.676
29435WAT     H288548   2.215   5.190   2.818
29436WAT      O88549   8.539   0.716   7.222
29436WAT     H188550   8.563   0.688   7.315
29436WAT     H288551   8.506   0.811   7.223
29437WAT      O88552   7.199   8.962   3.619
29437WAT     H188553   7.295   8.935   3.608
29437WAT     H288554   7.151   8.895   3.675
29438WAT      O88555   1.318   2.529   3.855
29438WAT     H188556   1.264   2.544   3.772
29438WAT     H288557   1.356   2.437   3.854
29439WAT      O88558   5.654   1.724   1.101
29439WAT     H188559   5.668   1.685   1.192
29439WAT     H288560   5.740   1.762   1.067
29440WAT      O88561   2.344   2.785   9.693
29440WAT     H188562   2.383   2.731   9.618
29440WAT     H288563   2.411   2.853   9.723
29441WAT      O88564   5.311   8.731   2.381
29441WAT     H188565   5.261   8.712   2.296
29441WAT     H288566   5.269   8.809   2.427
29442WAT      O88567   5.982   4.505   6.602
29442WAT     H188568   6.018   4.595   6.625
29442WAT     H288569   5.994   4.488   6.504
29443WAT      O88570   5.875   1.912   0.780
29443WAT     H188571   5.869   1.896   0.878
29443WAT     H288572   5.853   2.008   0.760
29444WAT      O88573   1.862   1.720   1.847
29444WAT     H188574   1.815   1.799   1.807
29444WAT     H288575   1.924   1.681   1.779
29445WAT      O88576   3.063   9.847   6.156
29445WAT     H188577   3.051   9.863   6.254
29445WAT     H288578   3.033   9.754   6.134
29446WAT      O88579   4.406   1.688   3.515
29446WAT     H188580   4.389   1.780   3.481
29446WAT     H288581   4.472   1.692   3.590
29447WAT      O88582   1.036   4.034   0.884
29447WAT     H188583   0.940   4.008   0.870
29447WAT     H288584   1.082   4.039   0.796
29448WAT      O88585   1.681   7.735   9.401
29448WAT     H188586   1.642   7.674   9.332
29448WAT     H288587   1.741   7.682   9.461
29449WAT      O88588   2.595   5.607   3.726
29449WAT     H188589   2.686   5.589   3.688
29449WAT     H288590   2.554   5.685   3.680
29450WAT      O88591   3.925   0.411   9.148
29450WAT     H188592   3.990   0.471   9.103
29450WAT     H288593   3.972   0.356   9.217
29451WAT      O88594   1.781   4.869   8.900
29451WAT     H188595   1.823   4.919   8.975
29451WAT     H288596   1.841   4.795   8.871
29452WAT      O88597   7.846   8.145   4.703
29452WAT     H188598   7.868   8.184   4.613
29452WAT     H288599   7.840   8.218   4.770
29453WAT      O88600   5.448   6.218   0.486
29453WAT     H188601   5.437   6.153   0.561
29453WAT     H288602   5.384   6.195   0.413
29454WAT      O88603   2.490   0.436   1.312
29454WAT     H188604   2.533   0.398   1.231
29454WAT     H288605   2.463   0.362   1.373
29455WAT      O88606   9.779   3.655   6.794
29455WAT     H188607   9.699   3.610   6.754
29455WAT     H288608   9.788   3.628   6.890
29456WAT      O88609   0.274   0.153   1.489
29456WAT     H188610   0.261   0.250   1.510
29456WAT     H288611   0.288   0.143   1.390
29457WAT      O88612   5.213   3.644   0.473
29457WAT     H188613   5.240   3.552   0.445
29457WAT     H288614   5.272   3.675   0.548
29458WAT      O88615   7.902   5.812   0.918
29458WAT     H188616   7.833   5.751   0.958
29458WAT     H288617   7.976   5.758   0.878
29459WAT      O88618   1.729   1.823   2.270
29459WAT     H188619   1.676   1.896   2.313
29459WAT     H288620   1.722   1.740   2.325
29460WAT      O88621   1.324   1.549   8.047
29460WAT     H188622   1.366   1.623   7.994
29460WAT     H288623   1.317   1.467   7.991
29461WAT      O88624   9.654   2.403   4.969
29461WAT     H188625   9.628   2.457   5.049
29461WAT     H288626   9.751   2.380   4.975
29462WAT      O88627   3.824   6.227   5.993
29462WAT     H188628   3.904   6.172   6.019
29462WAT     H288629   3.750   6.210   6.057
29463WAT      O88630   5.159   2.254   0.868
29463WAT     H188631   5.131   2.345   0.899
29463WAT     H288632   5.196   2.203   0.946
29464WAT      O88633   9.154   6.448   4.542
29464WAT     H188634   9.253   6.440   4.533
29464WAT     H288635   9.113   6.456   4.452
29465WAT      O88636   7.376   0.843   7.463
29465WAT     H188637   7.475   0.826   7.458
29465WAT     H288638   7.334   0.823   7.375
29466WAT      O88639   1.585   2.529   2.380
29466WAT     H188640   1.672   2.578   2.390
29466WAT     H288641   1.587   2.445   2.434
29467WAT      O88642   6.008   1.737   6.263
29467WAT     H188643   5.924   1.689   6.287
29467WAT     H288644   6.032   1.717   6.168
29468WAT      O88645   7.580   4.968   7.267
29468WAT     H188646   7.650   5.036   7.292
29468WAT     H288647   7.529   4.940   7.349
29469WAT      O88648   1.095   7.020   0.941
29469WAT     H188649   1.070   7.114   0.962
29469WAT     H288650   1.015   6.961   0.951
29470WAT      O88651   3.955   7.204   1.617
29470WAT     H188652   4.016   7.215   1.695
29470WAT     H288653   3.955   7.108   1.587
29471WAT      O88654   1.957   4.032   0.900
29471WAT     H188655   2.056   4.033   0.912
29471WAT     H288656   1.914   3.998   0.983
29472WAT      O88657   4.716   5.829   8.688
29472WAT     H188658   4.741   5.810   8.593
29472WAT     H288659   4.678   5.746   8.729
29473WAT      O88660   5.770   5.443   8.472
29473WAT     H188661   5.711   5.364   8.488
29473WAT     H288662   5.865   5.417   8.488
29474WAT      O88663   7.964   4.342   9.459
29474WAT     H188664   7.878   4.292   9.468
29474WAT     H288665   8.001   4.328   9.367
29475WAT      O88666   4.758   3.124   5.912
29475WAT     H188667   4.849   3.164   5.922
29475WAT     H288668   4.695   3.170   5.976
29476WAT      O88669   2.150   9.563   6.811
29476WAT     H188670   2.198   9.618   6.879
29476WAT     H288671   2.053   9.559   6.835
29477WAT      O88672   1.953   0.262   2.368
29477WAT     H188673   1.924   0.326   2.439
29477WAT     H288674   1.972   0.173   2.408
29478WAT      O88675   9.589   4.118   1.052
29478WAT     H188676   9.538   4.201   1.070
29478WAT     H288677   9.568   4.085   0.960
29479WAT      O88678   6.588   6.123   5.372
29479WAT     H188679   6.684   6.145   5.352
29479WAT     H288680   6.558   6.174   5.453
29480WAT      O88681   7.367   7.478   4.570
29480WAT     H188682   7.326   7.401   4.521
29480WAT     H288683   7.296   7.525   4.623
29481WAT      O88684   7.657   5.453   2.326
29481WAT     H188685   7.560   5.440   2.346
29481WAT     H288686   7.712   5.406   2.395
29482WAT      O88687   8.533   3.850   0.303
29482WAT     H188688   8.477   3.773   0.271
29482WAT     H288689   8.559   3.907   0.225
29483WAT      O88690   8.481   1.561   9.389
29483WAT     H188691   8.494   1.506   9.306
29483WAT     H288692   8.484   1.658   9.366
29484WAT      O88693   7.675   0.763   7.636
29484WAT     H188694   7.678   0.663   7.641
29484WAT     H288695   7.672   0.792   7.541
29485WAT      O88696   5.333   9.036   7.068
29485WAT     H188697   5.407   9.103   7.065
29485WAT     H288698   5.246   9.083   7.080
29486WAT      O88699   6.426   9.636   0.965
29486WAT     H188700   6.378   9.724   0.961
29486WAT     H288701   6.499   9.634   0.897
29487WAT      O88702   8.384   9.686   8.022
29487WAT     H188703   8.441   9.683   8.105
29487WAT     H288704   8.306   9.746   8.038
29488WAT      O88705   7.731   1.201   7.564
29488WAT     H188706   7.725   1.301   7.571
29488WAT     H288707   7.827   1.174   7.562
29489WAT      O88708   9.000   0.516   7.827
29489WAT     H188709   9.007   0.452   7.751
29489WAT     H288710   8.904   0.539   7.842
29490WAT      O88711   1.094   7.979   4.491
29490WAT     H188712   1.016   7.954   4.548
29490WAT     H288713   1.088   8.076   4.466
29491WAT      O88714   5.752   7.005   3.836
29491WAT     H188715   5.693   6.945   3.782
29491WAT     H288716   5.702   7.088   3.860
29492WAT      O88717   3.662   0.117   8.828
29492WAT     H188718   3.729   0.075   8.766
29492WAT     H288719   3.693   0.208   8.853
29493WAT      O88720   6.205   8.371   8.353
29493WAT     H188721   6.169   8.465   8.353
29493WAT     H288722   6.304   8.374   8.336
29494WAT      O88723   7.459   2.619   4.107
29494WAT     H188724   7.413   2.643   4.021
29494WAT     H288725   7.558   2.626   4.094
29495WAT      O88726   5.846   7.884   7.650
29495WAT     H188727   5.890   7.967   7.617
29495WAT     H288728   5.886   7.859   7.739
29496WAT      O88729   0.703   5.738   0.041
29496WAT     H188730   0.608   5.727   0.071
29496WAT     H288731   0.719   5.833   0.014
29497WAT      O88732   3.663   4.294   5.686
29497WAT     H188733   3.591   4.318   5.750
29497WAT     H288734   3.746   4.269   5.736
29498WAT      O88735   5.674   9.404   9.081
29498WAT     H188736   5.721   9.357   9.155
29498WAT     H288737   5.583   9.365   9.069
29499WAT      O88738   4.276   0.571   9.875
29499WAT     H188739   4.245   0.530   9.961
29499WAT     H288740   4.235   0.522   9.798
29500WAT      O88741   6.346   5.386   9.852
29500WAT     H188742   6.297   5.472   9.865
29500WAT     H288743   6.402   5.367   9.933
29501WAT      O88744   2.112   4.716   3.697
29501WAT     H188745   2.026   4.766   3.711
29501WAT     H288746   2.189   4.774   3.724
29502WAT      O88747   4.877   3.196   8.450
29502WAT     H188748   4.882   3.097   8.456
29502WAT     H288749   4.908   3.236   8.537
29503WAT      O88750   2.401   5.247   7.741
29503WAT     H188751   2.479   5.215   7.795
29503WAT     H288752   2.429   5.322   7.682
29504WAT      O88753   0.702   4.935   3.864
29504WAT     H188754   0.645   4.912   3.943
29504WAT     H288755   0.645   4.940   3.782
29505WAT      O88756   9.778   4.511   3.652
29505WAT     H188757   9.807   4.567   3.574
29505WAT     H288758   9.859   4.484   3.705
29506WAT      O88759   6.151   8.434   3.669
29506WAT     H188760   6.104   8.354   3.630
29506WAT     H288761   6.162   8.420   3.768
29507WAT      O88762   9.852   9.382   1.703
29507WAT     H188763   9.873   9.296   1.750
29507WAT     H288764   9.774   9.368   1.641
29508WAT      O88765   3.292   2.631   2.750
29508WAT     H188766   3.208   2.654   2.801
29508WAT     H288767   3.334   2.549   2.790
29509WAT      O88768   4.128   8.231   1.512
29509WAT     H188769   4.227   8.221   1.513
29509WAT     H288770   4.088   8.169   1.444
29510WAT      O88771   2.416   0.358   9.241
29510WAT     H188772   2.514   0.337   9.237
29510WAT     H288773   2.397   0.414   9.322
29511WAT      O88774   9.696   8.418   7.664
29511WAT     H188775   9.769   8.389   7.727
29511WAT     H288776   9.734   8.433   7.573
29512WAT      O88777   3.285   3.514   4.005
29512WAT     H188778   3.228   3.434   4.021
29512WAT     H288779   3.233   3.597   4.027
29513WAT      O88780   9.274   4.126   5.593
29513WAT     H188781   9.197   4.147   5.654
29513WAT     H288782   9.360   4.139   5.642
29514WAT      O88783   7.299   5.278   9.153
29514WAT     H188784   7.317   5.350   9.220
29514WAT     H288785   7.350   5.196   9.179
29515WAT      O88786   9.087   5.308   0.872
29515WAT     H188787   9.151   5.385   0.879
29515WAT     H288788   9.121   5.242   0.805
29516WAT      O88789   3.091   6.837   4.983
29516WAT     H188790   3.148   6.913   4.951
29516WAT     H288791   3.005   6.872   5.019
29517WAT      O88792   3.726   9.798   5.803
29517WAT     H188793   3.776   9.806   5.889
29517WAT     H288794   3.638   9.846   5.811
29518WAT      O88795   0.817   9.428   4.160
29518WAT     H188796   0.816   9.431   4.260
29518WAT     H288797   0.781   9.514   4.124
29519WAT      O88798   5.112   9.400   1.161
29519WAT     H188799   5.098   9.448   1.075
29519WAT     H288800   5.135   9.304   1.142
29520WAT      O88801   7.076   1.022   2.853
29520WAT     H188802   7.001   1.057   2.910
29520WAT     H288803   7.150   0.991   2.912
29521WAT      O88804   1.768   7.233   5.306
29521WAT     H188805   1.703   7.307   5.287
29521WAT     H288806   1.735   7.178   5.383
29522WAT      O88807   2.225   8.831   6.997
29522WAT     H188808   2.300   8.864   6.941
29522WAT     H288809   2.231   8.732   7.007
29523WAT      O88810   8.584   0.805   2.635
29523WAT     H188811   8.523   0.864   2.583
29523WAT     H288812   8.678   0.835   2.623
29524WAT      O88813   0.714   6.978   0.484
29524WAT     H188814   0.793   7.014   0.533
29524WAT     H288815   0.677   7.048   0.423
29525WAT      O88816   8.878   2.022   5.448
29525WAT     H188817   8.934   1.999   5.368
29525WAT     H288818   8.781   2.020   5.422
29526WAT      O88819   2.059   2.732   6.452
29526WAT     H188820   2.118   2.798   6.500
29526WAT     H288821   2.089   2.639   6.474
29527WAT      O88822   1.083   7.473   2.924
29527WAT     H188823   1.181   7.484   2.915
29527WAT     H288824   1.055   7.497   3.017
29528WAT      O88825   7.731   5.523   9.140
29528WAT     H188826   7.814   5.554   9.186
29528WAT     H288827   7.687   5.601   9.095
29529WAT      O88828   9.260   9.240   0.302
29529WAT     H188829   9.163   9.236   0.326
29529WAT     H288830   9.306   9.302   0.365
29530WAT      O88831   2.985   7.947   3.788
29530WAT     H188832   2.924   8.010   3.739
29530WAT     H288833   2.950   7.933   3.881
29531WAT      O88834   0.941   0.498   9.893
29531WAT     H188835   1.016   0.552   9.932
29531WAT     H288836   0.936   0.516   9.795
29532WAT      O88837   3.859   8.039   0.966
29532WAT     H188838   3.957   8.019   0.961
29532WAT     H288839   3.844   8.135   0.943
29533WAT      O88840   1.189   6.928   9.094
29533WAT     H188841   1.241   7.012   9.112
29533WAT     H288842   1.095   6.952   9.072
29534WAT      O88843   1.955   0.169   1.480
29534WAT     H188844   1.919   0.250   1.435
29534WAT     H288845   1.894   0.092   1.464
29535WAT      O88846   0.503   7.651   8.638
29535WAT     H188847   0.467   7.592   8.565
29535WAT     H288848   0.579   7.706   8.602
29536WAT      O88849   2.211   6.338   3.727
29536WAT     H188850   2.175   6.274   3.795
29536WAT     H288851   2.270   6.290   3.663
29537WAT      O88852   1.652   8.843   8.482
29537WAT     H188853   1.588   8.917   8.502
29537WAT     H288854   1.609   8.778   8.419
29538WAT      O88855   2.563   3.569   3.917
29538WAT     H188856   2.594   3.548   4.010
29538WAT     H288857   2.548   3.484   3.866
29539WAT      O88858   5.999   0.789   3.725
29539WAT     H188859   5.953   0.878   3.725
29539WAT     H288860   5.933   0.718   3.701
29540WAT      O88861   0.222   3.593   0.379
29540WAT     H188862   0.291   3.601   0.451
29540WAT     H288863   0.150   3.529   0.407
29541WAT      O88864   5.946   8.510   3.079
29541WAT     H188865   5.861   8.546   3.118
29541WAT     H288866   5.938   8.412   3.065
29542WAT      O88867   5.379   4.751   4.596
29542WAT     H188868   5.394   4.849   4.596
29542WAT     H288869   5.336   4.723   4.682
29543WAT      O88870   3.130   6.369   0.515
29543WAT     H188871   3.225   6.375   0.544
29543WAT     H288872   3.070   6.395   0.592
29544WAT      O88873   1.270   1.180   4.921
29544WAT     H188874   1.340   1.117   4.957
29544WAT     H288875   1.294   1.273   4.947
29545WAT      O88876   0.066   7.210   7.666
29545WAT     H188877   0.144   7.224   7.726
29545WAT     H288878  -0.002   7.153   7.712
29546WAT      O88879   7.946   9.145   2.460
29546WAT     H188880   7.899   9.233   2.464
29546WAT     H288881   7.886   9.073   2.494
29547WAT      O88882   6.280   8.763   7.522
29547WAT     H188883   6.337   8.724   7.594
29547WAT     H288884   6.318   8.737   7.433
29548WAT      O88885   0.673   7.903   9.062
29548WAT     H188886   0.661   7.989   9.012
29548WAT     H288887   0.606   7.897   9.136
29549WAT      O88888   2.879   7.985   7.873
29549WAT     H188889   2.915   8.032   7.954
29549WAT     H288890   2.938   8.004   7.795
29550WAT      O88891   1.105   1.280   2.572
29550WAT     H188892   1.190   1.266   2.520
29550WAT     H288893   1.090   1.378   2.585
29551WAT      O88894   1.889   0.130   3.989
29551WAT     H188895   1.845   0.218   3.968
29551WAT     H288896   1.825   0.056   3.969
29552WAT      O88897   1.687   9.188   1.964
29552WAT     H188898   1.670   9.118   1.895
29552WAT     H288899   1.786   9.205   1.970
29553WAT      O88900   3.436   9.014   0.192
29553WAT     H188901   3.474   9.038   0.281
29553WAT     H288902   3.336   9.012   0.198
29554WAT      O88903   3.935   7.328   4.087
29554WAT     H188904   3.953   7.237   4.126
29554WAT     H288905   4.021   7.376   4.074
29555WAT      O88906   0.607   4.007   6.029
29555WAT     H188907   0.668   3.983   6.105
29555WAT     H288908   0.512   3.994   6.059
29556WAT      O88909   3.352   9.150   9.069
29556WAT     H188910   3.367   9.247   9.048
29556WAT     H288911   3.288   9.112   9.002
29557WAT      O88912   3.193   0.245   7.119
29557WAT     H188913   3.178   0.343   7.126
29557WAT     H288914   3.139   0.198   7.189
29558WAT      O88915   6.504   7.643   1.257
29558WAT     H188916   6.444   7.609   1.329
29558WAT     H288917   6.599   7.624   1.282
29559WAT      O88918   2.099   6.108   9.789
29559WAT     H188919   2.119   6.200   9.824
29559WAT     H288920   2.079   6.048   9.866
29560WAT      O88921   3.152   1.874   1.928
29560WAT     H188922   3.188   1.810   1.996
29560WAT     H288923   3.114   1.954   1.975
29561WAT      O88924   1.865   6.775   8.751
29561WAT     H188925   1.861   6.832   8.833
29561WAT     H288926   1.958   6.778   8.713
29562WAT      O88927   5.230   2.910   0.311
29562WAT     H188928   5.190   2.908   0.402
29562WAT     H288929   5.252   3.004   0.286
29563WAT      O88930   4.255   1.750   9.778
29563WAT     H188931   4.269   1.707   9.867
29563WAT     H288932   4.278   1.847   9.784
29564WAT      O88933   5.936   6.347   7.734
29564WAT     H188934   5.999   6.297   7.676
29564WAT     H288935   5.846   6.304   7.732
29565WAT      O88936   8.332   8.237   8.509
29565WAT     H188937   8.380   8.150   8.517
29565WAT     H288938   8.383   8.297   8.447
29566WAT      O88939   0.577   3.466   3.763
29566WAT     H188940   0.602   3.385   3.817
29566WAT     H288941   0.623   3.462   3.674
29567WAT      O88942   4.519   4.275   6.189
29567WAT     H188943   4.526   4.290   6.287
29567WAT     H288944   4.597   4.221   6.157
29568WAT      O88945   5.188   6.042   1.987
29568WAT     H188946   5.115   6.088   2.037
29568WAT     H288947   5.148   5.972   1.927
29569WAT      O88948   3.630   8.002   6.850
29569WAT     H188949   3.582   8.089   6.840
29569WAT     H288950   3.663   7.971   6.761
29570WAT      O88951   4.883   2.815   8.064
29570WAT     H188952   4.922   2.869   7.990
29570WAT     H288953   4.797   2.773   8.033
29571WAT      O88954   6.106   8.622   2.104
29571WAT     H188955   6.032   8.608   2.170
29571WAT     H288956   6.122   8.720   2.093
29572WAT      O88957   0.968   8.872   3.681
29572WAT     H188958   0.890   8.896   3.739
29572WAT     H288959   0.950   8.900   3.587
29573WAT      O88960   4.395   7.634   9.796
29573WAT     H188961   4.423   7.568   9.727
29573WAT     H288962   4.361   7.717   9.751
29574WAT      O88963   3.723   7.673   7.578
29574WAT     H188964   3.747   7.605   7.508
29574WAT     H288965   3.772   7.759   7.559
29575WAT      O88966   6.535   8.735   3.782
29575WAT     H188967   6.493   8.825   3.769
29575WAT     H288968   6.536   8.686   3.695
29576WAT      O88969   0.492   7.541   5.736
29576WAT     H188970   0.460   7.525   5.643
29576WAT     H288971   0.566   7.478   5.757
29577WAT      O88972   0.667   8.797   2.296
29577WAT     H188973   0.759   8.834   2.309
29577WAT     H288974   0.666   8.700   2.319
29578WAT      O88975   6.819   6.012   9.602
29578WAT     H188976   6.775   5.922   9.605
29578WAT     H288977   6.750   6.083   9.618
29579WAT      O88978   3.181   5.408   7.587
29579WAT     H188979   3.196   5.337   7.517
29579WAT     H288980   3.153   5.493   7.542
29580WAT      O88981   1.132   8.698   1.841
29580WAT     H188982   1.167   8.771   1.783
29580WAT     H288983   1.032   8.695   1.834
29581WAT      O88984   6.176   5.660   5.686
29581WAT     H188985   6.092   5.633   5.640
29581WAT     H288986   6.249   5.670   5.618
29582WAT      O88987   3.598   8.695   8.417
29582WAT     H188988   3.625   8.658   8.328
29582WAT     H288989   3.670   8.677   8.484
29583WAT      O88990   3.745   4.919   4.311
29583WAT     H188991   3.819   4.986   4.316
29583WAT     H288992   3.781   4.828   4.328
29584WAT      O88993   4.969   2.860   7.787
29584WAT     H188994   5.017   2.789   7.735
29584WAT     H288995   5.036   2.918   7.833
29585WAT      O88996   8.468   8.507   9.620
29585WAT     H188997   8.375   8.487   9.650
29585WAT     H288998   8.523   8.424   9.624
29586WAT      O88999   4.214   4.690   6.044
29586WAT     H189000   4.231   4.674   5.947
29586WAT     H289001   4.274   4.630   6.098
29587WAT      O89002   2.305   2.570   5.392
29587WAT     H189003   2.392   2.608   5.423
29587WAT     H289004   2.278   2.495   5.452
29588WAT      O89005   2.547   7.729   6.286
29588WAT     H189006   2.619   7.731   6.356
29588WAT     H289007   2.582   7.687   6.203
29589WAT      O89008   6.862   0.302   5.550
29589WAT     H189009   6.947   0.255   5.530
29589WAT     H289010   6.877   0.369   5.623
29590WAT      O89011   0.819   3.720   7.429
29590WAT     H189012   0.836   3.767   7.342
29590WAT     H289013   0.865   3.632   7.428
29591WAT      O89014   3.731   7.826   4.706
29591WAT     H189015   3.726   7.900   4.773
29591WAT     H289016   3.778   7.858   4.624
29592WAT      O89017   2.056   8.262   4.944
29592WAT     H189018   2.072   8.306   4.856
29592WAT     H289019   2.072   8.163   4.936
29593WAT      O89020   4.442   0.877   3.419
29593WAT     H189021   4.345   0.853   3.431
29593WAT     H289022   4.487   0.880   3.508
29594WAT      O89023   3.662   8.450   2.291
29594WAT     H189024   3.623   8.506   2.217
29594WAT     H289025   3.655   8.353   2.266
29595WAT      O89026   7.504   0.043   5.234
29595WAT     H189027   7.440   0.111   5.271
29595WAT     H289028   7.456  -0.042   5.215
29596WAT      O89029   9.336   6.289   3.345
29596WAT     H189030   9.377   6.313   3.433
29596WAT     H289031   9.338   6.190   3.333
29597WAT      O89032   3.789   9.191   8.507
29597WAT     H189033   3.715   9.125   8.496
29597WAT     H289034   3.751   9.280   8.533
29598WAT      O89035   6.705   1.374   8.262
29598WAT     H189036   6.745   1.340   8.347
29598WAT     H289037   6.625   1.431   8.283
29599WAT      O89038   8.472   2.258   7.128
29599WAT     H189039   8.495   2.164   7.154
29599WAT     H289040   8.544   2.320   7.157
29600WAT      O89041   1.599   1.416   4.101
29600WAT     H189042   1.537   1.391   4.026
29600WAT     H289043   1.568   1.502   4.142
29601WAT      O89044   6.601   1.196   1.906
29601WAT     H189045   6.600   1.114   1.850
29601WAT     H289046   6.659   1.181   1.986
29602WAT      O89047   3.145   8.368   4.260
29602WAT     H189048   3.175   8.336   4.350
29602WAT     H289049   3.051   8.400   4.265
29603WAT      O89050   8.194   3.304   2.523
29603WAT     H189051   8.132   3.243   2.473
29603WAT     H289052   8.277   3.254   2.548
29604WAT      O89053   6.643   0.919   3.516
29604WAT     H189054   6.557   0.935   3.468
29604WAT     H289055   6.641   0.829   3.559
29605WAT      O89056   7.757   4.865   8.478
29605WAT     H189057   7.718   4.945   8.432
29605WAT     H289058   7.695   4.834   8.549
29606WAT      O89059   4.035   6.712   0.197
29606WAT     H189060   3.971   6.676   0.264
29606WAT     H289061   4.128   6.685   0.220
29607WAT      O89062   8.853   2.349   0.738
29607WAT     H189063   8.895   2.398   0.814
29607WAT     H289064   8.795   2.412   0.686
29608WAT      O89065   3.213   1.781   8.913
29608WAT     H189066   3.208   1.844   8.835
29608WAT     H289067   3.235   1.689   8.880
29609WAT      O89068   8.028   6.655   7.030
29609WAT     H189069   7.936   6.677   6.997
29609WAT     H289070   8.069   6.736   7.071
29610WAT      O89071   8.031   2.826   6.915
29610WAT     H189072   8.083   2.868   6.841
29610WAT     H289073   8.089   2.759   6.962
29611WAT      O89074   5.473   9.027   9.672
29611WAT     H189075   5.559   8.987   9.640
29611WAT     H289076   5.469   9.021   9.772
29612WAT      O89077   7.016   0.932   4.366
29612WAT     H189078   7.018   0.835   4.391
29612WAT     H289079   6.930   0.953   4.321
29613WAT      O89080   6.849   1.685   9.857
29613WAT     H189081   6.781   1.656   9.789
29613WAT     H289082   6.828   1.641   9.944
29614WAT      O89083   3.705   5.034   5.234
29614WAT     H189084   3.789   5.046   5.286
29614WAT     H289085   3.631   5.006   5.295
29615WAT      O89086   9.853   9.129   1.377
29615WAT     H189087   9.866   9.103   1.472
29615WAT     H289088   9.900   9.216   1.359
29616WAT      O89089   7.983   8.026   1.750
29616WAT     H189090   7.992   8.109   1.696
29616WAT     H289091   7.942   8.047   1.839
29617WAT      O89092   5.951   8.367   2.602
29617WAT     H189093   5.994   8.338   2.688
29617WAT     H289094   6.016   8.424   2.551
29618WAT      O89095   9.110   6.006   9.242
29618WAT     H189096   9.018   6.046   9.242
29618WAT     H289097   9.177   6.078   9.261
29619WAT      O89098   1.856   2.282   0.511
29619WAT     H189099   1.874   2.194   0.467
29619WAT     H289100   1.781   2.272   0.576
29620WAT      O89101   8.149   8.418   5.555
29620WAT     H189102   8.059   8.414   5.513
29620WAT     H289103   8.168   8.512   5.586
29621WAT      O89104   3.207   5.183   2.209
29621WAT     H189105   3.144   5.202   2.134
29621WAT     H289106   3.157   5.182   2.295
29622WAT      O89107   1.625   8.879   9.327
29622WAT     H189108   1.636   8.791   9.374
29622WAT     H289109   1.561   8.936   9.379
29623WAT      O89110   6.794   5.977   7.358
29623WAT     H189111   6.776   6.075   7.364
29623WAT     H289112   6.892   5.962   7.345
29624WAT      O89113   0.448   3.224   1.423
29624WAT     H189114   0.505   3.291   1.471
29624WAT     H289115   0.353   3.255   1.424
29625WAT      O89116   5.183   8.433   4.983
29625WAT     H189117   5.124   8.374   4.928
29625WAT     H289118   5.259   8.380   5.021
29626WAT      O89119   8.282   5.193   8.879
29626WAT     H189120   8.304   5.200   8.977
29626WAT     H289121   8.223   5.269   8.852
29627WAT      O89122   1.475   0.662   8.068
29627WAT     H189123   1.526   0.719   8.004
29627WAT     H289124   1.492   0.565   8.048
29628WAT      O89125   8.265   4.370   9.133
29628WAT     H189126   8.355   4.338   9.104
29628WAT     H289127   8.273   4.458   9.179
29629WAT      O89128   1.359   7.180   0.019
29629WAT     H189129   1.277   7.138   0.058
29629WAT     H289130   1.440   7.142   0.061
29630WAT      O89131   3.249   5.111   3.802
29630WAT     H189132   3.312   5.149   3.734
29630WAT     H289133   3.245   5.173   3.881
29631WAT      O89134   6.546   6.595   7.404
29631WAT     H189135   6.451   6.592   7.435
29631WAT     H289136   6.591   6.676   7.442
29632WAT      O89137   3.319   0.991   4.016
29632WAT     H189138   3.304   1.049   3.936
29632WAT     H289139   3.279   1.034   4.096
29633WAT      O89140   4.575   3.778   8.099
29633WAT     H189141   4.480   3.780   8.067
29633WAT     H289142   4.626   3.709   8.047
29634WAT      O89143   0.136   2.243   0.192
29634WAT     H189144   0.234   2.223   0.195
29634WAT     H289145   0.085   2.159   0.210
29635WAT      O89146   6.396   6.057   9.794
29635WAT     H189147   6.312   6.043   9.846
29635WAT     H289148   6.425   5.970   9.752
29636WAT      O89149   5.857   7.533   3.818
29636WAT     H189150   5.931   7.594   3.846
29636WAT     H289151   5.770   7.567   3.854
29637WAT      O89152   6.698   3.901   4.246
29637WAT     H189153   6.671   3.807   4.264
29637WAT     H289154   6.786   3.902   4.198
29638WAT      O89155   8.297   3.133   6.782
29638WAT     H189156   8.204   3.157   6.809
29638WAT     H289157   8.305   3.035   6.769
29639WAT      O89158   7.174   1.645   5.018
29639WAT     H189159   7.220   1.570   5.065
29639WAT     H289160   7.181   1.632   4.919
29640WAT      O89161   6.274   0.906   7.599
29640WAT     H189162   6.221   0.989   7.581
29640WAT     H289163   6.259   0.877   7.694
29641WAT      O89164   8.137   5.669   5.964
29641WAT     H189165   8.038   5.667   5.975
29641WAT     H289166   8.177   5.729   6.033
29642WAT      O89167   3.792   0.300   8.598
29642WAT     H189168   3.810   0.291   8.696
29642WAT     H289169   3.846   0.376   8.562
29643WAT      O89170   3.623   8.418   3.501
29643WAT     H189171   3.702   8.471   3.470
29643WAT     H289172   3.610   8.431   3.599
29644WAT      O89173   7.159   2.814   3.350
29644WAT     H189174   7.155   2.778   3.257
29644WAT     H289175   7.174   2.739   3.414
29645WAT      O89176   9.598   1.269   5.883
29645WAT     H189177   9.533   1.204   5.921
29645WAT     H289178   9.555   1.321   5.810
29646WAT      O89179   8.180   1.514   1.970
29646WAT     H189180   8.163   1.516   2.069
29646WAT     H289181   8.234   1.594   1.944
29647WAT      O89182   4.088   2.920   8.765
29647WAT     H189183   4.129   3.010   8.782
29647WAT     H289184   4.014   2.929   8.699
29648WAT      O89185   5.127   0.233   6.351
29648WAT     H189186   5.062   0.255   6.425
29648WAT     H289187   5.097   0.150   6.305
29649WAT      O89188   5.285   8.789   7.878
29649WAT     H189189   5.203   8.804   7.932
29649WAT     H289190   5.267   8.721   7.807
29650WAT      O89191   8.430   1.398   7.769
29650WAT     H189192   8.338   1.369   7.795
29650WAT     H289193   8.496   1.325   7.788
29651WAT      O89194   0.256   4.512   5.965
29651WAT     H189195   0.345   4.545   5.995
29651WAT     H289196   0.262   4.415   5.941
29652WAT      O89197   3.536   0.851   9.567
29652WAT     H189198   3.633   0.873   9.579
29652WAT     H289199   3.508   0.786   9.638
29653WAT      O89200   2.966   1.020   5.793
29653WAT     H189201   2.995   1.106   5.752
29653WAT     H289202   3.037   0.951   5.777
29654WAT      O89203   3.729   6.531   3.009
29654WAT     H189204   3.647   6.530   3.067
29654WAT     H289205   3.810   6.529   3.067
29655WAT      O89206   7.725   2.104   4.533
29655WAT     H189207   7.819   2.127   4.556
29655WAT     H289208   7.723   2.022   4.476
29656WAT      O89209   5.549   9.616   7.714
29656WAT     H189210   5.647   9.598   7.719
29656WAT     H289211   5.499   9.530   7.704
29657WAT      O89212   8.757   5.855   5.642
29657WAT     H189213   8.795   5.849   5.734
29657WAT     H289214   8.804   5.927   5.592
29658WAT      O89215   5.366   0.668   7.846
29658WAT     H189216   5.354   0.621   7.933
29658WAT     H289217   5.460   0.704   7.839
29659WAT      O89218   1.017   4.415   4.769
29659WAT     H189219   1.077   4.481   4.724
29659WAT     H289220   0.922   4.447   4.764
29660WAT      O89221   3.499   4.391   1.335
29660WAT     H189222   3.461   4.439   1.255
29660WAT     H289223   3.448   4.417   1.417
29661WAT      O89224   5.464   2.812   3.868
29661WAT     H189225   5.502   2.815   3.960
29661WAT     H289226   5.388   2.877   3.861
29662WAT      O89227   6.192   3.579   7.211
29662WAT     H189228   6.189   3.610   7.116
29662WAT     H289229   6.237   3.490   7.215
29663WAT      O89230   4.097   3.196   1.369
29663WAT     H189231   4.141   3.145   1.294
29663WAT     H289232   4.036   3.136   1.419
29664WAT      O89233   2.123   5.518   2.130
29664WAT     H189234   2.152   5.538   2.224
29664WAT     H289235   2.139   5.422   2.110
29665WAT      O89236   6.912   5.433   7.728
29665WAT     H189237   6.825   5.393   7.698
29665WAT     H289238   6.974   5.441   7.650
29666WAT      O89239   7.496   5.887   0.743
29666WAT     H189240   7.521   5.816   0.809
29666WAT     H289241   7.421   5.854   0.685
29667WAT      O89242   9.157   7.574   4.080
29667WAT     H189243   9.215   7.495   4.064
29667WAT     H289244   9.122   7.572   4.173
29668WAT      O89245   3.168   7.924   2.437
29668WAT     H189246   3.092   7.948   2.376
29668WAT     H289247   3.247   7.897   2.382
29669WAT      O89248   6.545   9.464   8.642
29669WAT     H189249   6.480   9.513   8.584
29669WAT     H289250   6.496   9.420   8.718
29670WAT      O89251   3.046   5.405   3.668
29670WAT     H189252   3.090   5.403   3.579
29670WAT     H289253   3.035   5.311   3.702
29671WAT      O89254   5.174   5.410   0.621
29671WAT     H189255   5.188   5.338   0.690
29671WAT     H289256   5.182   5.500   0.665
29672WAT      O89257   0.133   3.830   5.943
29672WAT     H189258   0.193   3.864   5.870
29672WAT     H289259   0.059   3.895   5.958
29673WAT      O89260   6.536   5.575   1.541
29673WAT     H189261   6.524   5.526   1.455
29673WAT     H289262   6.504   5.669   1.531
29674WAT      O89263   6.629   3.200   1.168
29674WAT     H189264   6.722   3.232   1.151
29674WAT     H289265   6.617   3.109   1.129
29675WAT      O89266   9.354   1.753   9.219
29675WAT     H189267   9.305   1.696   9.153
29675WAT     H289268   9.418   1.696   9.271
29676WAT      O89269   6.205   8.011   0.794
29676WAT     H189270   6.221   8.018   0.893
29676WAT     H289271   6.278   7.958   0.752
29677WAT      O89272   9.249   1.931   4.346
29677WAT     H189273   9.289   1.990   4.416
29677WAT     H289274   9.166   1.974   4.309
29678WAT      O89275   6.233   0.413   7.069
29678WAT     H189276   6.184   0.439   6.985
29678WAT     H289277   6.217   0.483   7.139
29679WAT      O89278   1.916   2.220   1.435
29679WAT     H189279   1.828   2.219   1.483
29679WAT     H289280   1.902   2.195   1.340
29680WAT      O89281   5.521   7.244   2.178
29680WAT     H189282   5.438   7.293   2.152
29680WAT     H289283   5.509   7.202   2.268
29681WAT      O89284   6.693   8.836   9.455
29681WAT     H189285   6.656   8.831   9.363
29681WAT     H289286   6.635   8.896   9.511
29682WAT      O89287   3.904   9.266   9.194
29682WAT     H189288   3.968   9.205   9.241
29682WAT     H289289   3.822   9.278   9.251
29683WAT      O89290   9.847   7.232   0.696
29683WAT     H189291   9.754   7.265   0.713
29683WAT     H289292   9.845   7.132   0.688
29684WAT      O89293   3.173   9.577   9.243
29684WAT     H189294   3.096   9.640   9.250
29684WAT     H289295   3.253   9.626   9.208
29685WAT      O89296   5.233   2.063   9.000
29685WAT     H189297   5.158   1.997   8.987
29685WAT     H289298   5.234   2.094   9.095
29686WAT      O89299   2.135   2.291   8.512
29686WAT     H189300   2.224   2.276   8.469
29686WAT     H289301   2.125   2.229   8.590
29687WAT      O89302   7.575   5.590   5.455
29687WAT     H189303   7.583   5.529   5.376
29687WAT     H289304   7.579   5.685   5.423
29688WAT      O89305   1.518   2.099   2.966
29688WAT     H189306   1.435   2.144   2.998
29688WAT     H289307   1.494   2.027   2.899
29689WAT      O89308   3.468   4.211   2.585
29689WAT     H189309   3.568   4.200   2.582
29689WAT     H289310   3.440   4.227   2.680
29690WAT      O89311   1.376   2.385   8.377
29690WAT     H189312   1.424   2.446   8.315
29690WAT     H289313   1.341   2.437   8.455
29691WAT      O89314   1.276   1.453   9.322
29691WAT     H189315   1.267   1.400   9.237
29691WAT     H289316   1.255   1.549   9.304
29692WAT      O89317   2.616   0.739   9.865
29692WAT     H189318   2.676   0.803   9.817
29692WAT     H289319   2.542   0.789   9.909
29693WAT      O89320   8.507   3.302   6.799
29693WAT     H189321   8.430   3.238   6.792
29693WAT     H289322   8.588   3.261   6.756
29694WAT      O89323   9.458   3.992   1.837
29694WAT     H189324   9.412   4.002   1.749
29694WAT     H289325   9.550   4.031   1.831
29695WAT      O89326   5.055   0.933   2.762
29695WAT     H189327   5.094   0.929   2.854
29695WAT     H289328   4.979   0.998   2.761
29696WAT      O89329   9.608   4.374   3.489
29696WAT     H189330   9.598   4.276   3.470
29696WAT     H289331   9.669   4.386   3.568
29697WAT      O89332   6.185   2.119   7.943
29697WAT     H189333   6.246   2.065   7.884
29697WAT     H289334   6.186   2.214   7.914
29698WAT      O89335   5.368   1.514   0.839
29698WAT     H189336   5.411   1.524   0.749
29698WAT     H289337   5.270   1.499   0.826
29699WAT      O89338   0.952   5.250   1.067
29699WAT     H189339   1.020   5.176   1.075
29699WAT     H289340   0.873   5.227   1.123
29700WAT      O89341   2.031   4.814   9.347
29700WAT     H189342   2.057   4.851   9.258
29700WAT     H289343   2.107   4.761   9.385
29701WAT      O89344   0.109   3.547   2.861
29701WAT     H189345   0.097   3.631   2.808
29701WAT     H289346   0.024   3.494   2.860
29702WAT      O89347   0.290   9.371   8.960
29702WAT     H189348   0.336   9.336   9.041
29702WAT     H289349   0.342   9.344   8.878
29703WAT      O89350   4.730   1.403   5.691
29703WAT     H189351   4.696   1.469   5.624
29703WAT     H289352   4.653   1.365   5.742
29704WAT      O89353   0.014   5.217   2.399
29704WAT     H189354   0.082   5.191   2.331
29704WAT     H289355  -0.060   5.268   2.355
29705WAT      O89356   9.069   1.868   4.584
29705WAT     H189357   9.160   1.833   4.561
29705WAT     H289358   9.000   1.803   4.553
29706WAT      O89359   2.920   3.150   2.530
29706WAT     H189360   2.917   3.240   2.574
29706WAT     H289361   2.837   3.099   2.553
29707WAT      O89362   3.396   3.469   0.351
29707WAT     H189363   3.391   3.550   0.409
29707WAT     H289364   3.404   3.387   0.407
29708WAT      O89365   7.176   3.140   0.191
29708WAT     H189366   7.273   3.131   0.213
29708WAT     H289367   7.166   3.166   0.095
29709WAT      O89368   2.680   7.882   0.628
29709WAT     H189369   2.774   7.849   0.620
29709WAT     H289370   2.656   7.934   0.547
29710WAT      O89371   0.375   7.938   0.821
29710WAT     H189372   0.306   8.010   0.815
29710WAT     H289373   0.462   7.978   0.850
29711WAT      O89374   0.287   9.538   8.409
29711WAT     H189375   0.211   9.601   8.389
29711WAT     H289376   0.252   9.456   8.454
29712WAT      O89377   6.705   4.006   0.519
29712WAT     H189378   6.734   3.911   0.519
29712WAT     H289379   6.689   4.036   0.424
29713WAT      O89380   4.400   8.587   4.197
29713WAT     H189381   4.486   8.539   4.184
29713WAT     H289382   4.354   8.599   4.109
29714WAT      O89383   2.909   1.810   0.891
29714WAT     H189384   2.943   1.860   0.970
29714WAT     H289385   2.952   1.845   0.808
29715WAT      O89386   4.591   9.372   7.792
29715WAT     H189387   4.527   9.344   7.719
29715WAT     H289388   4.564   9.327   7.877
29716WAT      O89389   4.270   4.854   6.522
29716WAT     H189390   4.183   4.879   6.478
29716WAT     H289391   4.305   4.932   6.573
29717WAT      O89392   4.618   6.677   0.546
29717WAT     H189393   4.683   6.602   0.529
29717WAT     H289394   4.612   6.694   0.645
29718WAT      O89395   7.054   4.492   1.209
29718WAT     H189396   6.998   4.505   1.291
29718WAT     H289397   7.132   4.434   1.231
29719WAT      O89398   6.492   5.301   3.635
29719WAT     H189399   6.449   5.215   3.665
29719WAT     H289400   6.568   5.323   3.695
29720WAT      O89401   9.420   1.651   8.964
29720WAT     H189402   9.512   1.613   8.974
29720WAT     H289403   9.357   1.602   9.024
29721WAT      O89404   0.508   5.629   8.027
29721WAT     H189405   0.557   5.715   8.041
29721WAT     H289406   0.538   5.561   8.094
29722WAT      O89407   9.108   9.055   7.762
29722WAT     H189408   9.123   9.153   7.750
29722WAT     H289409   9.010   9.035   7.754
29723WAT      O89410   8.977   8.733   3.926
29723WAT     H189411   8.993   8.748   4.024
29723WAT     H289412   8.899   8.672   3.914
29724WAT      O89413   3.744   1.723   8.786
29724WAT     H189414   3.791   1.700   8.700
29724WAT     H289415   3.648   1.746   8.766
29725WAT      O89416   6.239   2.439   2.705
29725WAT     H189417   6.201   2.366   2.762
29725WAT     H289418   6.178   2.458   2.629
29726WAT      O89419   9.448   9.313   3.799
29726WAT     H189420   9.442   9.317   3.699
29726WAT     H289421   9.356   9.307   3.838
29727WAT      O89422   2.268   4.732   9.446
29727WAT     H189423   2.328   4.813   9.444
29727WAT     H289424   2.299   4.669   9.517
29728WAT      O89425   9.341   5.635   7.509
29728WAT     H189426   9.293   5.679   7.585
29728WAT     H289427   9.295   5.549   7.485
29729WAT      O89428   0.682   4.880   4.596
29729WAT     H189429   0.697   4.860   4.693
29729WAT     H289430   0.648   4.798   4.550
29730WAT      O89431   2.549   5.583   0.116
29730WAT     H189432   2.587   5.537   0.036
29730WAT     H289433   2.623   5.604   0.180
29731WAT      O89434   4.038   2.459   6.737
29731WAT     H189435   4.052   2.444   6.639
29731WAT     H289436   3.945   2.491   6.753
29732WAT      O89437   1.718   1.122   1.084
29732WAT     H189438   1.643   1.186   1.069
29732WAT     H289439   1.706   1.076   1.171
29733WAT      O89440   3.529   3.579   2.045
29733WAT     H189441   3.568   3.662   2.006
29733WAT     H289442   3.589   3.545   2.118
29734WAT      O89443   6.910   1.008   3.519
29734WAT     H189444   6.947   0.917   3.501
29734WAT     H289445   6.815   1.000   3.549
29735WAT      O89446   7.300   8.978   9.191
29735WAT     H189447   7.299   8.894   9.136
29735WAT     H289448   7.394   9.010   9.201
29736WAT      O89449   2.696   7.898   0.143
29736WAT     H189450   2.744   7.816   0.175
29736WAT     H289451   2.757   7.952   0.087
29737WAT      O89452   6.931   0.661   1.531
29737WAT     H189453   6.933   0.564   1.507
29737WAT     H289454   7.016   0.704   1.502
29738WAT      O89455   1.176   2.616   5.269
29738WAT     H189456   1.224   2.703   5.255
29738WAT     H289457   1.125   2.593   5.186
29739WAT      O89458   5.384   6.986   5.987
29739WAT     H189459   5.294   7.027   6.001
29739WAT     H289460   5.374   6.888   5.970
29740WAT      O89461   0.150   8.456   0.057
29740WAT     H189462   0.084   8.385   0.031
29740WAT     H289463   0.197   8.489  -0.025
29741WAT      O89464   9.302   9.506   1.790
29741WAT     H189465   9.277   9.572   1.860
29741WAT     H289466   9.390   9.465   1.813
29742WAT      O89467   1.988   0.750   1.953
29742WAT     H189468   2.058   0.816   1.925
29742WAT     H289469   1.976   0.682   1.881
29743WAT      O89470   2.891   0.715   0.105
29743WAT     H189471   2.899   0.814   0.115
29743WAT     H289472   2.794   0.689   0.108
29744WAT      O89473   4.983   3.077   5.355
29744WAT     H189474   5.059   3.048   5.414
29744WAT     H289475   5.001   3.170   5.322
29745WAT      O89476   5.731   1.299   6.482
29745WAT     H189477   5.633   1.317   6.475
29745WAT     H289478   5.770   1.288   6.391
29746WAT      O89479   4.144   6.333   6.825
29746WAT     H189480   4.186   6.389   6.754
29746WAT     H289481   4.155   6.236   6.802
29747WAT      O89482   3.964   2.934   5.455
29747WAT     H189483   3.974   2.845   5.500
29747WAT     H289484   4.010   2.931   5.366
29748WAT      O89485   1.970   8.492   1.302
29748WAT     H189486   1.918   8.555   1.359
29748WAT     H289487   2.029   8.435   1.360
29749WAT      O89488   7.646   9.643   3.168
29749WAT     H189489   7.644   9.567   3.103
29749WAT     H289490   7.563   9.641   3.224
29750WAT      O89491   8.504   4.414   2.548
29750WAT     H189492   8.420   4.366   2.521
29750WAT     H289493   8.496   4.511   2.525
29751WAT      O89494   7.366   2.220   3.281
29751WAT     H189495   7.411   2.140   3.322
29751WAT     H289496   7.386   2.222   3.183
29752WAT      O89497   6.536   4.664   7.531
29752WAT     H189498   6.540   4.684   7.628
29752WAT     H289499   6.625   4.629   7.500
29753WAT      O89500   6.582   8.789   4.543
29753WAT     H189501   6.539   8.700   4.525
29753WAT     H289502   6.567   8.849   4.465
29754WAT      O89503   0.334   6.728   4.900
29754WAT     H189504   0.427   6.702   4.873
29754WAT     H289505   0.271   6.700   4.828
29755WAT      O89506   4.324   1.974   9.585
29755WAT     H189507   4.329   2.029   9.669
29755WAT     H289508   4.243   1.999   9.533
29756WAT      O89509   7.619   0.284   0.255
29756WAT     H189510   7.623   0.189   0.222
29756WAT     H289511   7.677   0.294   0.336
29757WAT      O89512   1.597   4.713   9.593
29757WAT     H189513   1.639   4.799   9.563
29757WAT     H289514   1.660   4.637   9.571
29758WAT      O89515   4.056   8.597   5.060
29758WAT     H189516   4.102   8.542   5.129
29758WAT     H289517   4.117   8.612   4.983
29759WAT      O89518   7.113   3.686   4.563
29759WAT     H189519   7.022   3.645   4.570
29759WAT     H289520   7.108   3.769   4.507
29760WAT      O89521   6.729   3.564   6.714
29760WAT     H189522   6.685   3.651   6.735
29760WAT     H289523   6.812   3.580   6.662
29761WAT      O89524   4.778   7.087   6.215
29761WAT     H189525   4.691   7.098   6.262
29761WAT     H289526   4.781   7.147   6.135
29762WAT      O89527   5.771   7.142   4.649
29762WAT     H189528   5.748   7.143   4.746
29762WAT     H289529   5.869   7.130   4.638
29763WAT      O89530   1.286   0.805   5.997
29763WAT     H189531   1.192   0.840   5.997
29763WAT     H289532   1.284   0.705   5.995
29764WAT      O89533   2.995   9.770   0.035
29764WAT     H189534   2.910   9.812   0.002
29764WAT     H289535   3.071   9.833   0.017
29765WAT      O89536   7.015   8.569   5.544
29765WAT     H189537   6.927   8.585   5.589
29765WAT     H289538   6.999   8.550   5.447
29766WAT      O89539   0.832   8.758   6.792
29766WAT     H189540   0.778   8.750   6.876
29766WAT     H289541   0.851   8.855   6.773
29767WAT      O89542   5.489   5.091   1.349
29767WAT     H189543   5.441   5.026   1.408
29767WAT     H289544   5.527   5.042   1.270
29768WAT      O89545   6.059   3.904   8.761
29768WAT     H189546   6.068   3.882   8.664
29768WAT     H289547   6.049   4.002   8.773
29769WAT      O89548   5.300   0.412   6.248
29769WAT     H189549   5.292   0.385   6.152
29769WAT     H289550   5.252   0.346   6.305
29770WAT      O89551   1.404   5.658   3.928
29770WAT     H189552   1.361   5.596   3.861
29770WAT     H289553   1.464   5.722   3.880
29771WAT      O89554   6.396   0.674   6.813
29771WAT     H189555   6.370   0.749   6.752
29771WAT     H289556   6.473   0.624   6.773
29772WAT      O89557   6.440   4.442   3.904
29772WAT     H189558   6.409   4.537   3.908
29772WAT     H289559   6.410   4.401   3.819
29773WAT      O89560   1.029   6.266   4.390
29773WAT     H189561   1.040   6.329   4.313
29773WAT     H289562   0.957   6.300   4.450
29774WAT      O89563   7.380   4.203   3.710
29774WAT     H189564   7.341   4.230   3.798
29774WAT     H289565   7.478   4.218   3.711
29775WAT      O89566   7.884   5.069   6.714
29775WAT     H189567   7.916   5.151   6.762
29775WAT     H289568   7.931   5.061   6.626
29776WAT      O89569   2.009   7.448   6.398
29776WAT     H189570   1.961   7.367   6.432
29776WAT     H289571   1.973   7.530   6.443
29777WAT      O89572   2.562   3.916   3.553
29777WAT     H189573   2.578   3.888   3.458
29777WAT     H289574   2.637   3.885   3.610
29778WAT      O89575   4.107   5.443   7.825
29778WAT     H189576   4.144   5.381   7.755
29778WAT     H289577   4.109   5.537   7.790
29779WAT      O89578   9.369   3.080   3.335
29779WAT     H189579   9.438   3.087   3.407
29779WAT     H289580   9.304   3.156   3.344
29780WAT      O89581   7.516   1.708   2.685
29780WAT     H189582   7.444   1.683   2.749
29780WAT     H289583   7.477   1.728   2.595
29781WAT      O89584   6.919   0.068   5.291
29781WAT     H189585   6.953   0.121   5.368
29781WAT     H289586   6.989   0.002   5.263
29782WAT      O89587   6.927   5.422   8.016
29782WAT     H189588   6.989   5.345   8.030
29782WAT     H289589   6.889   5.417   7.923
29783WAT      O89590   2.512   1.600   5.554
29783WAT     H189591   2.439   1.536   5.530
29783WAT     H289592   2.594   1.579   5.500
29784WAT      O89593   1.298   0.990   4.680
29784WAT     H189594   1.204   0.990   4.645
29784WAT     H289595   1.300   1.033   4.770
29785WAT      O89596   1.072   4.128   6.310
29785WAT     H189597   1.059   4.045   6.256
29785WAT     H289598   0.999   4.193   6.288
29786WAT      O89599   8.823   7.805   2.098
29786WAT     H189600   8.922   7.799   2.110
29786WAT     H289601   8.781   7.720   2.130
29787WAT      O89602   5.101   7.665   8.161
29787WAT     H189603   5.139   7.723   8.089
29787WAT     H289604   5.151   7.682   8.246
29788WAT      O89605   2.825   2.698   8.750
29788WAT     H189606   2.816   2.745   8.662
29788WAT     H289607   2.868   2.759   8.817
29789WAT      O89608   9.613   5.121   3.401
29789WAT     H189609   9.674   5.111   3.323
29789WAT     H289610   9.602   5.032   3.446
29790WAT      O89611   0.729   0.665   6.523
29790WAT     H189612   0.759   0.583   6.571
29790WAT     H289613   0.786   0.742   6.550
29791WAT      O89614   7.923   6.487   8.703
29791WAT     H189615   7.828   6.515   8.711
29791WAT     H289616   7.938   6.404   8.757
29792WAT      O89617   0.062   1.867   4.491
29792WAT     H189618   0.028   1.912   4.409
29792WAT     H289619   0.081   1.936   4.561
29793WAT      O89620   1.838   6.423   8.813
29793WAT     H189621   1.820   6.331   8.850
29793WAT     H289622   1.860   6.416   8.716
29794WAT      O89623   0.046   1.202   7.404
29794WAT     H189624   0.059   1.127   7.339
29794WAT     H289625  -0.044   1.243   7.390
29795WAT      O89626   2.646   9.292   4.940
29795WAT     H189627   2.571   9.353   4.916
29795WAT     H289628   2.650   9.282   5.039
29796WAT      O89629   3.661   4.265   0.781
29796WAT     H189630   3.633   4.270   0.685
29796WAT     H289631   3.745   4.319   0.794
29797WAT      O89632   6.968   4.491   0.073
29797WAT     H189633   7.004   4.410   0.119
29797WAT     H289634   6.893   4.464   0.013
29798WAT      O89635   0.550   7.609   6.280
29798WAT     H189636   0.647   7.586   6.287
29798WAT     H289637   0.530   7.638   6.186
29799WAT      O89638   9.107   5.446   5.262
29799WAT     H189639   9.052   5.477   5.340
29799WAT     H289640   9.096   5.509   5.186
29800WAT      O89641   4.300   3.817   0.053
29800WAT     H189642   4.368   3.875   0.008
29800WAT     H289643   4.215   3.818   0.001
29801WAT      O89644   5.170   4.633   0.790
29801WAT     H189645   5.100   4.637   0.718
29801WAT     H289646   5.245   4.574   0.761
29802WAT      O89647   4.421   1.252   4.704
29802WAT     H189648   4.366   1.216   4.629
29802WAT     H289649   4.387   1.342   4.731
29803WAT      O89650   5.136   6.302   1.502
29803WAT     H189651   5.149   6.394   1.465
29803WAT     H289652   5.210   6.243   1.471
29804WAT      O89653   6.813   3.032   8.154
29804WAT     H189654   6.813   2.965   8.079
29804WAT     H289655   6.886   3.098   8.139
29805WAT      O89656   1.737   5.521   4.784
29805WAT     H189657   1.722   5.454   4.711
29805WAT     H289658   1.668   5.510   4.854
29806WAT      O89659   9.369   5.889   0.945
29806WAT     H189660   9.409   5.859   0.858
29806WAT     H289661   9.367   5.989   0.948
29807WAT      O89662   3.588   9.713   3.897
29807WAT     H189663   3.656   9.654   3.940
29807WAT     H289664   3.634   9.775   3.833
29808WAT      O89665   7.968   0.249   4.432
29808WAT     H189666   8.034   0.293   4.494
29808WAT     H289667   7.875   0.271   4.462
29809WAT      O89668   1.259   2.910   8.750
29809WAT     H189669   1.309   2.996   8.744
29809WAT     H289670   1.282   2.864   8.836
29810WAT      O89671   5.218   2.085   0.639
29810WAT     H189672   5.128   2.042   0.632
29810WAT     H289673   5.210   2.170   0.690
29811WAT      O89674   1.559   8.376   3.237
29811WAT     H189675   1.565   8.283   3.200
29811WAT     H289676   1.481   8.383   3.299
29812WAT      O89677   0.203   4.108   0.823
29812WAT     H189678   0.199   4.170   0.902
29812WAT     H289679   0.139   4.032   0.837
29813WAT      O89680   5.050   2.669   3.605
29813WAT     H189681   5.096   2.721   3.677
29813WAT     H289682   5.052   2.571   3.628
29814WAT      O89683   3.043   9.534   8.969
29814WAT     H189684   3.002   9.608   9.022
29814WAT     H289685   3.142   9.538   8.977
29815WAT      O89686   5.547   4.709   3.889
29815WAT     H189687   5.455   4.695   3.926
29815WAT     H289688   5.553   4.801   3.851
29816WAT      O89689   3.054   0.393   4.135
29816WAT     H189690   3.089   0.480   4.169
29816WAT     H289691   3.115   0.358   4.064
29817WAT      O89692   1.678   4.875   7.727
29817WAT     H189693   1.761   4.931   7.719
29817WAT     H289694   1.635   4.868   7.637
29818WAT      O89695   9.639   7.486   8.307
29818WAT     H189696   9.688   7.519   8.387
29818WAT     H289697   9.573   7.416   8.334
29819WAT      O89698   6.459   2.457   9.167
29819WAT     H189699   6.536   2.416   9.216
29819WAT     H289700   6.400   2.506   9.231
29820WAT      O89701   3.736   8.017   6.194
29820WAT     H189702   3.780   7.976   6.115
29820WAT     H289703   3.806   8.050   6.258
29821WAT      O89704   3.967   3.673   2.665
29821WAT     H189705   3.875   3.712   2.669
29821WAT     H289706   3.990   3.632   2.754
29822WAT      O89707   8.424   3.556   6.420
29822WAT     H189708   8.413   3.646   6.462
29822WAT     H289709   8.471   3.565   6.332
29823WAT      O89710   1.047   9.578   1.716
29823WAT     H189711   1.038   9.596   1.618
29823WAT     H289712   1.118   9.637   1.754
29824WAT      O89713   2.663   8.085   8.498
29824WAT     H189714   2.727   8.160   8.517
29824WAT     H289715   2.706   7.998   8.520
29825WAT      O89716   4.125   4.759   2.270
29825WAT     H189717   4.057   4.813   2.320
29825WAT     H289718   4.176   4.702   2.334
29826WAT      O89719   3.417   1.858   8.409
29826WAT     H189720   3.381   1.892   8.322
29826WAT     H289721   3.371   1.773   8.433
29827WAT      O89722   9.469   4.245   4.195
29827WAT     H189723   9.544   4.185   4.219
29827WAT     H289724   9.496   4.305   4.119
29828WAT      O89725   9.605   1.944   0.122
29828WAT     H189726   9.578   1.921   0.216
29828WAT     H289727   9.525   1.979   0.072
29829WAT      O89728   4.600   1.245   0.635
29829WAT     H189729   4.658   1.306   0.689
29829WAT     H289730   4.657   1.195   0.569
29830WAT      O89731   8.208   0.200   9.878
29830WAT     H189732   8.179   0.132   9.810
29830WAT     H289733   8.307   0.215   9.869
29831WAT      O89734   9.566   0.329   2.457
29831WAT     H189735   9.489   0.284   2.412
29831WAT     H289736   9.619   0.261   2.508
29832WAT      O89737   0.726   7.388   1.542
29832WAT     H189738   0.650   7.356   1.597
29832WAT     H289739   0.811   7.347   1.575
29833WAT      O89740   8.133   6.009   9.740
29833WAT     H189741   8.191   6.083   9.774
29833WAT     H289742   8.129   6.013   9.640
29834WAT      O89743   6.528   9.464   1.810
29834WAT     H189744   6.604   9.399   1.818
29834WAT     H289745   6.488   9.480   1.901
29835WAT      O89746   0.827   0.771   5.382
29835WAT     H189747   0.892   0.845   5.401
29835WAT     H289748   0.829   0.749   5.284
29836WAT      O89749   9.380   8.228   4.918
29836WAT     H189750   9.349   8.319   4.890
29836WAT     H289751   9.401   8.228   5.015
29837WAT      O89752   4.154   8.396   7.497
29837WAT     H189753   4.125   8.475   7.552
29837WAT     H289754   4.233   8.422   7.442
29838WAT      O89755   5.154   1.693   6.368
29838WAT     H189756   5.231   1.725   6.423
29838WAT     H289757   5.075   1.676   6.427
29839WAT      O89758   2.946   4.947   5.290
29839WAT     H189759   3.018   4.986   5.348
29839WAT     H289760   2.928   5.009   5.214
29840WAT      O89761   2.026   2.679   6.051
29840WAT     H189762   2.122   2.681   6.024
29840WAT     H289763   1.970   2.719   5.979
29841WAT      O89764   1.060   2.017   7.084
29841WAT     H189765   1.098   2.109   7.083
29841WAT     H289766   1.112   1.959   7.021
29842WAT      O89767   1.441   1.302   3.919
29842WAT     H189768   1.367   1.362   3.890
29842WAT     H289769   1.409   1.241   3.991
29843WAT      O89770   1.206   7.364   1.752
29843WAT     H189771   1.288   7.417   1.772
29843WAT     H289772   1.228   7.293   1.685
29844WAT      O89773   2.389   1.128   6.918
29844WAT     H189774   2.335   1.115   6.835
29844WAT     H289775   2.350   1.204   6.970
29845WAT      O89776   4.731   7.876   3.603
29845WAT     H189777   4.679   7.895   3.686
29845WAT     H289778   4.724   7.779   3.581
29846WAT      O89779   5.097   5.014   7.418
29846WAT     H189780   5.161   4.955   7.468
29846WAT     H289781   5.047   4.959   7.351
29847WAT      O89782   3.847   0.605   3.372
29847WAT     H189783   3.753   0.574   3.366
29847WAT     H289784   3.863   0.648   3.461
29848WAT      O89785   7.261   5.384   7.306
29848WAT     H189786   7.176   5.378   7.253
29848WAT     H289787   7.332   5.331   7.259
29849WAT      O89788   7.161   0.730   2.240
29849WAT     H189789   7.212   0.645   2.224
29849WAT     H289790   7.070   0.708   2.277
29850WAT      O89791   5.873   0.452   4.136
29850WAT     H189792   5.806   0.494   4.198
29850WAT     H289793   5.866   0.494   4.046
29851WAT      O89794   4.732   7.419   9.683
29851WAT     H189795   4.721   7.374   9.771
29851WAT     H289796   4.740   7.350   9.611
29852WAT      O89797   0.766   5.488   3.911
29852WAT     H189798   0.791   5.568   3.965
29852WAT     H289799   0.744   5.412   3.972
29853WAT      O89800   7.679   7.936   1.533
29853WAT     H189801   7.726   7.873   1.594
29853WAT     H289802   7.710   8.029   1.550
29854WAT      O89803   6.940   2.654   6.386
29854WAT     H189804   7.019   2.598   6.409
29854WAT     H289805   6.970   2.736   6.336
29855WAT      O89806   6.756   3.888   5.948
29855WAT     H189807   6.796   3.976   5.923
29855WAT     H289808   6.717   3.893   6.040
29856WAT      O89809   6.839   4.144   5.911
29856WAT     H189810   6.852   4.193   5.825
29856WAT     H289811   6.847   4.207   5.987
29857WAT      O89812   4.225   0.169   6.009
29857WAT     H189813   4.209   0.267   5.995
29857WAT     H289814   4.280   0.133   5.934
29858WAT      O89815   8.203   2.183   4.036
29858WAT     H189816   8.233   2.129   3.958
29858WAT     H289817   8.122   2.140   4.077
29859WAT      O89818   3.119   4.697   6.988
29859WAT     H189819   3.170   4.672   6.906
29859WAT     H289820   3.032   4.648   6.990
29860WAT      O89821   0.840   4.951   3.009
29860WAT     H189822   0.744   4.967   2.989
29860WAT     H289823   0.855   4.853   3.027
29861WAT      O89824   6.604   7.787   4.693
29861WAT     H189825   6.651   7.844   4.625
29861WAT     H289826   6.627   7.691   4.676
29862WAT      O89827   8.089   5.911   2.115
29862WAT     H189828   8.188   5.913   2.132
29862WAT     H289829   8.041   5.947   2.194
29863WAT      O89830   1.832   6.450   5.793
29863WAT     H189831   1.802   6.513   5.721
29863WAT     H289832   1.932   6.448   5.796
29864WAT      O89833   6.230   1.585   9.579
29864WAT     H189834   6.185   1.610   9.494
29864WAT     H289835   6.227   1.663   9.642
29865WAT      O89836   5.717   7.131   7.330
29865WAT     H189837   5.647   7.060   7.337
29865WAT     H289838   5.766   7.137   7.417
29866WAT      O89839   4.608   8.800   9.755
29866WAT     H189840   4.685   8.864   9.746
29866WAT     H289841   4.569   8.809   9.847
29867WAT      O89842   8.084   0.322   8.616
29867WAT     H189843   8.181   0.338   8.599
29867WAT     H289844   8.059   0.230   8.584
29868WAT      O89845   2.273   3.335   8.747
29868WAT     H189846   2.260   3.372   8.655
29868WAT     H289847   2.343   3.388   8.795
29869WAT      O89848   4.471   3.052   5.347
29869WAT     H189849   4.385   3.062   5.398
29869WAT     H289850   4.506   2.960   5.360
29870WAT      O89851   3.568   2.373   1.043
29870WAT     H189852   3.563   2.468   1.012
29870WAT     H289853   3.637   2.364   1.115
29871WAT      O89854   1.586   3.069   0.987
29871WAT     H189855   1.641   2.993   0.952
29871WAT     H289856   1.508   3.032   1.037
29872WAT      O89857   6.364   5.039   8.079
29872WAT     H189858   6.276   5.018   8.036
29872WAT     H289859   6.349   5.097   8.159
29873WAT      O89860   5.018   1.425   6.293
29873WAT     H189861   4.925   1.448   6.322
29873WAT     H289862   5.082   1.491   6.332
29874WAT      O89863   8.090   5.557   5.006
29874WAT     H189864   8.160   5.581   5.073
29874WAT     H289865   8.133   5.509   4.929
29875WAT      O89866   5.948   2.214   5.147
29875WAT     H189867   5.940   2.177   5.054
29875WAT     H289868   5.861   2.254   5.175
29876WAT      O89869   2.310   3.337   1.898
29876WAT     H189870   2.309   3.427   1.941
29876WAT     H289871   2.218   3.311   1.870
29877WAT      O89872   0.731   3.334   8.090
29877WAT     H189873   0.713   3.379   8.002
29877WAT     H289874   0.670   3.372   8.159
29878WAT      O89875   5.404   0.973   0.307
29878WAT     H189876   5.461   1.028   0.247
29878WAT     H289877   5.461   0.909   0.359
29879WAT      O89878   3.448   5.557   2.473
29879WAT     H189879   3.377   5.616   2.511
29879WAT     H289880   3.536   5.604   2.475
29880WAT      O89881   5.225   1.349   5.738
29880WAT     H189882   5.132   1.365   5.770
29880WAT     H289883   5.286   1.340   5.816
29881WAT      O89884   1.047   1.293   6.751
29881WAT     H189885   0.969   1.350   6.726
29881WAT     H289886   1.124   1.313   6.690
29882WAT      O89887   9.100   7.288   5.095
29882WAT     H189888   9.012   7.242   5.104
29882WAT     H289889   9.085   7.387   5.089
29883WAT      O89890   0.475   8.399   7.440
29883WAT     H189891   0.542   8.380   7.369
29883WAT     H289892   0.521   8.433   7.522
29884WAT      O89893   0.700   1.273   1.234
29884WAT     H189894   0.798   1.255   1.230
29884WAT     H289895   0.661   1.225   1.312
29885WAT      O89896   4.346   0.540   6.406
29885WAT     H189897   4.315   0.631   6.379
29885WAT     H289898   4.270   0.475   6.399
29886WAT      O89899   5.913   1.349   2.047
29886WAT     H189900   5.927   1.445   2.021
29886WAT     H289901   5.992   1.295   2.017
29887WAT      O89902   7.480   2.195   7.857
29887WAT     H189903   7.448   2.199   7.763
29887WAT     H289904   7.490   2.100   7.885
29888WAT      O89905   5.650   2.285   3.228
29888WAT     H189906   5.587   2.345   3.279
29888WAT     H289907   5.743   2.297   3.264
29889WAT      O89908   1.189   8.005   5.500
29889WAT     H189909   1.278   8.007   5.454
29889WAT     H289910   1.157   8.099   5.514
29890WAT      O89911   6.506   6.408   2.909
29890WAT     H189912   6.559   6.418   2.993
29890WAT     H289913   6.458   6.494   2.889
29891WAT      O89914   0.573   7.078   8.104
29891WAT     H189915   0.573   6.978   8.115
29891WAT     H289916   0.649   7.105   8.044
29892WAT      O89917   7.454   3.764   9.255
29892WAT     H189918   7.358   3.786   9.234
29892WAT     H289919   7.502   3.848   9.283
29893WAT      O89920   0.347   1.131   4.338
29893WAT     H189921   0.436   1.124   4.293
29893WAT     H289922   0.356   1.180   4.424
29894WAT      O89923   4.783   1.774   9.296
29894WAT     H189924   4.686   1.762   9.273
29894WAT     H289925   4.819   1.688   9.331
29895WAT      O89926   1.842   8.728   6.774
29895WAT     H189927   1.908   8.666   6.731
29895WAT     H289928   1.819   8.694   6.865
29896WAT      O89929   5.925   0.168   0.078
29896WAT     H189930   5.946   0.081   0.033
29896WAT     H289931   5.827   0.173   0.097
29897WAT      O89932   8.169   4.405   2.042
29897WAT     H189933   8.172   4.505   2.039
29897WAT     H289934   8.188   4.368   1.951
29898WAT      O89935   8.758   4.731   2.858
29898WAT     H189936   8.804   4.798   2.801
29898WAT     H289937   8.809   4.717   2.942
29899WAT      O89938   9.545   1.337   9.390
29899WAT     H189939   9.608   1.273   9.346
29899WAT     H289940   9.487   1.288   9.455
29900WAT      O89941   2.369   8.842   2.494
29900WAT     H189942   2.382   8.918   2.558
29900WAT     H289943   2.281   8.853   2.447
29901WAT      O89944   4.520   7.452   0.131
29901WAT     H189945   4.486   7.528   0.076
29901WAT     H289946   4.445   7.414   0.186
29902WAT      O89947   9.861   6.378   5.259
29902WAT     H189948   9.816   6.418   5.179
29902WAT     H289949   9.815   6.410   5.342
29903WAT      O89950   6.492   6.981   3.816
29903WAT     H189951   6.409   7.023   3.779
29903WAT     H289952   6.519   7.029   3.900
29904WAT      O89953   3.408   3.809   8.354
29904WAT     H189954   3.359   3.789   8.439
29904WAT     H289955   3.357   3.878   8.302
29905WAT      O89956   9.772   1.840   5.912
29905WAT     H189957   9.869   1.816   5.921
29905WAT     H289958   9.722   1.801   5.989
29906WAT      O89959   7.737   3.568   7.024
29906WAT     H189960   7.813   3.612   6.977
29906WAT     H289961   7.773   3.512   7.100
29907WAT      O89962   0.301   4.003   7.752
29907WAT     H189963   0.227   3.973   7.811
29907WAT     H289964   0.387   3.960   7.781
29908WAT      O89965   8.302   6.201   0.285
29908WAT     H189966   8.368   6.197   0.360
29908WAT     H289967   8.253   6.115   0.279
29909WAT      O89968   7.528   5.816   8.237
29909WAT     H189969   7.473   5.789   8.158
29909WAT     H289970   7.468   5.830   8.316
29910WAT      O89971   4.804   9.194   8.264
29910WAT     H189972   4.839   9.183   8.357
29910WAT     H289973   4.877   9.226   8.204
29911WAT      O89974   9.312   3.062   8.163
29911WAT     H189975   9.280   3.156   8.150
29911WAT     H289976   9.402   3.051   8.121
29912WAT      O89977   2.092   3.923   1.937
29912WAT     H189978   2.059   3.989   1.870
29912WAT     H289979   2.159   3.966   1.997
29913WAT      O89980   2.930   1.656   1.476
29913WAT     H189981   2.856   1.722   1.465
29913WAT     H289982   2.943   1.637   1.573
29914WAT      O89983   8.649   6.697   0.849
29914WAT     H189984   8.668   6.611   0.801
29914WAT     H289985   8.728   6.722   0.905
29915WAT      O89986   4.216   8.678   6.040
29915WAT     H189987   4.152   8.602   6.054
29915WAT     H289988   4.310   8.643   6.049
29916WAT      O89989   9.658   5.061   8.237
29916WAT     H189990   9.660   5.158   8.217
29916WAT     H289991   9.752   5.027   8.250
29917WAT      O89992   0.278   0.995   5.143
29917WAT     H189993   0.216   1.070   5.166
29917WAT     H289994   0.229   0.926   5.089
29918WAT      O89995   3.806   7.583   9.311
29918WAT     H189996   3.840   7.637   9.234
29918WAT     H289997   3.742   7.638   9.365
29919WAT      O89998   9.107   0.320   6.173
29919WAT     H189999   9.065   0.270   6.249
29919WAT     H290000   9.199   0.349   6.199
29920WAT      O90001   7.007   9.506   2.198
29920WAT     H190002   7.026   9.604   2.190
29920WAT     H290003   7.068   9.465   2.266
29921WAT      O90004   7.987   6.339   3.853
29921WAT     H190005   8.076   6.307   3.822
29921WAT     H290006   7.946   6.270   3.913
29922WAT      O90007   1.762   6.812   4.668
29922WAT     H190008   1.724   6.754   4.741
29922WAT     H290009   1.687   6.853   4.616
29923WAT      O90010   4.069   1.131   7.429
29923WAT     H190011   4.043   1.078   7.509
29923WAT     H290012   4.116   1.073   7.364
29924WAT      O90013   8.573   5.176   6.181
29924WAT     H190014   8.646   5.128   6.231
29924WAT     H290015   8.490   5.121   6.183
29925WAT      O90016   8.100   7.669   5.369
29925WAT     H190017   8.111   7.715   5.281
29925WAT     H290018   8.190   7.648   5.407
29926WAT      O90019   3.876   6.082   6.806
29926WAT     H190020   3.826   6.139   6.740
29926WAT     H290021   3.812   6.032   6.863
29927WAT      O90022   6.180   6.587   7.698
29927WAT     H190023   6.110   6.647   7.737
29927WAT     H290024   6.263   6.592   7.753
29928WAT      O90025   0.189   0.850   7.952
29928WAT     H190026   0.168   0.806   7.864
29928WAT     H290027   0.150   0.796   8.026
29929WAT      O90028   6.619   3.535   1.899
29929WAT     H190029   6.668   3.457   1.861
29929WAT     H290030   6.526   3.507   1.925
29930WAT      O90031   7.938   8.124   2.920
29930WAT     H190032   8.034   8.120   2.893
29930WAT     H290033   7.918   8.213   2.960
29931WAT      O90034   1.285   4.635   0.057
29931WAT     H190035   1.218   4.704   0.082
29931WAT     H290036   1.240   4.546   0.049
29932WAT      O90037   2.348   5.349   1.493
29932WAT     H190038   2.437   5.364   1.537
29932WAT     H290039   2.291   5.291   1.551
29933WAT      O90040   2.835   9.117   9.046
29933WAT     H190041   2.831   9.193   9.112
29933WAT     H290042   2.780   9.041   9.080
29934WAT      O90043   5.968   8.144   4.459
29934WAT     H190044   5.959   8.243   4.451
29934WAT     H290045   6.026   8.109   4.385
29935WAT      O90046   3.815   7.965   7.791
29935WAT     H190047   3.728   8.014   7.780
29935WAT     H290048   3.818   7.921   7.880
29936WAT      O90049   4.280   2.219   3.743
29936WAT     H190050   4.339   2.296   3.717
29936WAT     H290051   4.195   2.223   3.689
29937WAT      O90052   9.416   6.896   2.289
29937WAT     H190053   9.398   6.947   2.373
29937WAT     H290054   9.388   6.801   2.302
29938WAT      O90055   7.611   8.617   0.581
29938WAT     H190056   7.610   8.540   0.645
29938WAT     H290057   7.583   8.586   0.491
29939WAT      O90058   2.358   5.904   7.828
29939WAT     H190059   2.271   5.930   7.788
29939WAT     H290060   2.362   5.935   7.924
29940WAT      O90061   1.869   7.424   3.594
29940WAT     H190062   1.939   7.496   3.599
29940WAT     H290063   1.896   7.356   3.526
29941WAT      O90064   8.391   3.255   8.211
29941WAT     H190065   8.334   3.235   8.131
29941WAT     H290066   8.343   3.228   8.294
29942WAT      O90067   3.059   8.891   9.073
29942WAT     H190068   3.126   8.936   9.014
29942WAT     H290069   2.972   8.940   9.069
29943WAT      O90070   6.882   3.799   2.029
29943WAT     H190071   6.934   3.733   1.975
29943WAT     H290072   6.801   3.828   1.977
29944WAT      O90073   6.884   4.576   5.242
29944WAT     H190074   6.869   4.590   5.144
29944WAT     H290075   6.836   4.647   5.293
29945WAT      O90076   2.102   2.516   2.275
29945WAT     H190077   2.200   2.534   2.281
29945WAT     H290078   2.059   2.584   2.215
29946WAT      O90079   7.992   5.328   7.396
29946WAT     H190080   7.917   5.311   7.332
29946WAT     H290081   7.958   5.381   7.474
29947WAT      O90082   7.115   6.535   6.018
29947WAT     H190083   7.194   6.504   6.071
29947WAT     H290084   7.057   6.456   5.997
29948WAT      O90085   4.282   6.570   0.607
29948WAT     H190086   4.253   6.650   0.659
29948WAT     H290087   4.206   6.505   0.601
29949WAT      O90088   1.065   4.930   2.852
29949WAT     H190089   0.968   4.939   2.875
29949WAT     H290090   1.093   4.835   2.862
29950WAT      O90091   9.849   6.293   4.788
29950WAT     H190092   9.762   6.277   4.741
29950WAT     H290093   9.865   6.220   4.854
29951WAT      O90094   2.980   1.270   1.617
29951WAT     H190095   2.883   1.253   1.603
29951WAT     H290096   3.034   1.201   1.568
29952WAT      O90097   1.700   1.132   5.470
29952WAT     H190098   1.623   1.193   5.454
29952WAT     H290099   1.667   1.039   5.486
29953WAT      O90100   2.590   0.594   6.842
29953WAT     H190101   2.499   0.614   6.879
29953WAT     H290102   2.594   0.624   6.746
29954WAT      O90103   7.749   8.755   2.409
29954WAT     H190104   7.704   8.782   2.323
29954WAT     H290105   7.751   8.655   2.414
29955WAT      O90106   4.559   1.248   9.611
29955WAT     H190107   4.599   1.178   9.670
29955WAT     H290108   4.552   1.334   9.662
29956WAT      O90109   2.986   4.601   8.265
29956WAT     H190110   3.023   4.586   8.173
29956WAT     H290111   3.006   4.695   8.294
29957WAT      O90112   3.452   4.333   0.208
29957WAT     H190113   3.398   4.396   0.152
29957WAT     H290114   3.435   4.239   0.178
29958WAT      O90115   0.505   3.970   9.736
29958WAT     H190116   0.541   4.009   9.820
29958WAT     H290117   0.424   3.914   9.757
29959WAT      O90118   3.642   0.973   0.971
29959WAT     H190119   3.726   1.016   0.939
29959WAT     H290120   3.627   0.998   1.067
29960WAT      O90121   2.915   1.352   4.553
29960WAT     H190122   3.005   1.391   4.536
29960WAT     H290123   2.905   1.329   4.650
29961WAT      O90124   9.881   1.935   9.797
29961WAT     H190125   9.911   1.843   9.770
29961WAT     H290126   9.802   1.962   9.741
29962WAT      O90127   8.029   3.290   7.216
29962WAT     H190128   8.106   3.227   7.206
29962WAT     H290129   8.030   3.329   7.308
29963WAT      O90130   7.320   8.714   1.934
29963WAT     H190131   7.227   8.702   1.899
29963WAT     H290132   7.386   8.679   1.867
29964WAT      O90133   2.953   5.129   4.611
29964WAT     H190134   2.997   5.043   4.637
29964WAT     H290135   2.900   5.115   4.527
29965WAT      O90136   0.933   5.941   4.187
29965WAT     H190137   0.846   5.991   4.184
29965WAT     H290138   0.980   5.961   4.273
29966WAT      O90139   0.704   5.204   3.501
29966WAT     H190140   0.783   5.167   3.551
29966WAT     H290141   0.694   5.301   3.522
29967WAT      O90142   3.988   8.836   8.126
29967WAT     H190143   3.973   8.888   8.210
29967WAT     H290144   4.040   8.892   8.061
29968WAT      O90145   3.031   9.595   1.031
29968WAT     H190146   2.960   9.556   0.972
29968WAT     H290147   3.085   9.661   0.979
29969WAT      O90148   4.021   6.542   1.945
29969WAT     H190149   4.089   6.517   2.013
29969WAT     H290150   4.018   6.472   1.873
29970WAT      O90151   6.730   3.982   5.364
29970WAT     H190152   6.663   3.912   5.388
29970WAT     H290153   6.796   3.992   5.438
29971WAT      O90154   0.412   3.433   2.016
29971WAT     H190155   0.361   3.351   2.043
29971WAT     H290156   0.455   3.474   2.096
29972WAT      O90157   3.100   5.990   2.445
29972WAT     H190158   3.087   5.907   2.391
29972WAT     H290159   3.011   6.024   2.476
29973WAT      O90160   5.715   8.471   4.534
29973WAT     H190161   5.766   8.431   4.458
29973WAT     H290162   5.622   8.492   4.505
29974WAT      O90163   2.992   2.928   7.146
29974WAT     H190164   3.065   2.932   7.214
29974WAT     H290165   3.027   2.886   7.062
29975WAT      O90166   4.100   8.659   9.380
29975WAT     H190167   4.160   8.581   9.395
29975WAT     H290168   4.027   8.633   9.317
29976WAT      O90169   2.604   8.456   2.940
29976WAT     H190170   2.657   8.480   2.858
29976WAT     H290171   2.667   8.443   3.017
29977WAT      O90172   0.872   6.863   0.974
29977WAT     H190173   0.905   6.814   1.054
29977WAT     H290174   0.801   6.809   0.928
29978WAT      O90175   9.150   6.493   9.707
29978WAT     H190176   9.205   6.514   9.626
29978WAT     H290177   9.082   6.566   9.721
29979WAT      O90178   6.435   7.946   8.777
29979WAT     H190179   6.471   7.879   8.712
29979WAT     H290180   6.373   7.901   8.840
29980WAT      O90181   0.310   4.443   8.076
29980WAT     H190182   0.286   4.363   8.021
29980WAT     H290183   0.242   4.515   8.060
29981WAT      O90184   6.306   0.895   4.840
29981WAT     H190185   6.287   0.923   4.934
29981WAT     H290186   6.239   0.826   4.812
29982WAT      O90187   3.314   6.636   4.461
29982WAT     H190188   3.268   6.701   4.400
29982WAT     H290189   3.290   6.543   4.435
29983WAT      O90190   9.570   7.933   0.565
29983WAT     H190191   9.565   8.024   0.607
29983WAT     H290192   9.653   7.926   0.509
29984WAT      O90193   8.706   1.504   1.849
29984WAT     H190194   8.715   1.564   1.928
29984WAT     H290195   8.692   1.410   1.879
29985WAT      O90196   0.108   7.251   6.694
29985WAT     H190197   0.174   7.298   6.753
29985WAT     H290198   0.152   7.173   6.649
29986WAT      O90199   2.816   1.524   5.808
29986WAT     H190200   2.773   1.585   5.875
29986WAT     H290201   2.857   1.446   5.855
29987WAT      O90202   9.645   5.332   8.198
29987WAT     H190203   9.596   5.405   8.245
29987WAT     H290204   9.632   5.341   8.099
29988WAT      O90205   5.960   7.107   9.870
29988WAT     H190206   5.997   7.015   9.860
29988WAT     H290207   6.012   7.170   9.813
29989WAT      O90208   9.119   5.416   6.877
29989WAT     H190209   9.118   5.478   6.798
29989WAT     H290210   9.213   5.399   6.904
29990WAT      O90211   0.550   2.659   0.482
29990WAT     H190212   0.492   2.600   0.426
29990WAT     H290213   0.640   2.617   0.493
29991WAT      O90214   7.078   3.727   8.787
29991WAT     H190215   7.144   3.785   8.835
29991WAT     H290216   6.989   3.772   8.786
29992WAT      O90217   5.252   8.191   7.727
29992WAT     H190218   5.183   8.183   7.656
29992WAT     H290219   5.230   8.129   7.802
29993WAT      O90220   6.363   5.454   2.950
29993WAT     H190221   6.452   5.486   2.916
29993WAT     H290222   6.353   5.481   3.046
29994WAT      O90223   4.833   9.782   4.457
29994WAT     H190224   4.748   9.774   4.510
29994WAT     H290225   4.874   9.872   4.472
29995WAT      O90226   7.358   6.977   8.245
29995WAT     H190227   7.400   6.973   8.154
29995WAT     H290228   7.339   6.884   8.277
29996WAT      O90229   5.969   5.610   2.111
29996WAT     H190230   5.941   5.514   2.113
29996WAT     H290231   5.944   5.651   2.023
29997WAT      O90232   7.390   3.393   5.956
29997WAT     H190233   7.414   3.365   6.049
29997WAT     H290234   7.397   3.314   5.895
29998WAT      O90235   7.254   0.696   9.597
29998WAT     H190236   7.279   0.662   9.506
29998WAT     H290237   7.318   0.659   9.665
29999WAT      O90238   1.206   4.710   1.122
29999WAT     H190239   1.297   4.710   1.081
29999WAT     H290240   1.138   4.730   1.052
30000WAT      O90241   0.022   2.578   0.488
30000WAT     H190242   0.051   2.603   0.395
30000WAT     H290243  -0.028   2.491   0.485
30001WAT      O90244   5.831   1.939   3.950
30001WAT     H190245   5.731   1.934   3.941
30001WAT     H290246   5.868   1.997   3.878
30002WAT      O90247   8.679   5.060   3.372
30002WAT     H190248   8.689   5.134   3.439
30002WAT     H290249   8.741   5.077   3.296
30003WAT      O90250   1.188   5.455   7.324
30003WAT     H190251   1.249   5.488   7.396
30003WAT     H290252   1.230   5.375   7.280
30004WAT      O90253   9.014   0.553   1.902
30004WAT     H190254   9.069   0.562   1.985
30004WAT     H290255   9.038   0.626   1.838
30005WAT      O90256   4.925   1.373   5.092
30005WAT     H190257   4.968   1.444   5.149
30005WAT     H290258   4.949   1.389   4.996
30006WAT      O90259   5.919   9.247   4.864
30006WAT     H190260   5.957   9.336   4.837
30006WAT     H290261   5.895   9.195   4.783
30007WAT      O90262   6.851   3.557   4.528
30007WAT     H190263   6.806   3.471   4.551
30007WAT     H290264   6.797   3.633   4.563
30008WAT      O90265   1.444   6.669   8.234
30008WAT     H190266   1.436   6.762   8.198
30008WAT     H290267   1.474   6.673   8.329
30009WAT      O90268   1.843   4.075   6.663
30009WAT     H190269   1.745   4.059   6.676
30009WAT     H290270   1.885   3.996   6.620
30010WAT      O90271   0.917   1.344   3.492
30010WAT     H190272   0.943   1.283   3.417
30010WAT     H290273   0.851   1.297   3.552
30011WAT      O90274   8.131   7.142   5.051
30011WAT     H190275   8.042   7.132   5.006
30011WAT     H290276   8.184   7.212   5.004
30012WAT      O90277   4.192   0.516   0.253
30012WAT     H190278   4.147   0.453   0.317
30012WAT     H290279   4.278   0.548   0.293
30013WAT      O90280   8.599   7.788   3.425
30013WAT     H190281   8.577   7.750   3.515
30013WAT     H290282   8.697   7.806   3.419
30014WAT      O90283   0.087   3.408   3.790
30014WAT     H190284   0.162   3.432   3.729
30014WAT     H290285   0.072   3.309   3.787
30015WAT      O90286   0.509   3.410   6.994
30015WAT     H190287   0.606   3.432   6.986
30015WAT     H290288   0.498   3.311   7.000
30016WAT      O90289   3.184   6.409   8.426
30016WAT     H190290   3.104   6.400   8.367
30016WAT     H290291   3.256   6.460   8.378
30017WAT      O90292   0.472   8.069   2.392
30017WAT     H190293   0.557   8.038   2.349
30017WAT     H290294   0.457   8.016   2.476
30018WAT      O90295   7.881   6.216   6.225
30018WAT     H190296   7.843   6.178   6.309
30018WAT     H290297   7.822   6.193   6.148
30019WAT      O90298   7.057   6.620   7.988
30019WAT     H190299   7.056   6.621   8.088
30019WAT     H290300   7.095   6.534   7.955
30020WAT      O90301   8.844   3.490   4.198
30020WAT     H190302   8.911   3.477   4.125
30020WAT     H290303   8.885   3.467   4.286
30021WAT      O90304   7.579   4.198   4.036
30021WAT     H190305   7.676   4.195   4.061
30021WAT     H290306   7.527   4.137   4.096
30022WAT      O90307   6.549   4.713   6.122
30022WAT     H190308   6.470   4.745   6.069
30022WAT     H290309   6.604   4.651   6.065
30023WAT      O90310   9.074   0.352   9.056
30023WAT     H190311   9.051   0.389   8.966
30023WAT     H290312   9.032   0.262   9.067
30024WAT      O90313   4.044   4.070   9.601
30024WAT     H190314   4.116   4.067   9.670
30024WAT     H290315   3.970   4.009   9.627
30025WAT      O90316   3.858   9.426   1.301
30025WAT     H190317   3.890   9.339   1.339
30025WAT     H290318   3.926   9.497   1.320
30026WAT      O90319   0.827   7.384   8.384
30026WAT     H190320   0.779   7.382   8.297
30026WAT     H290321   0.888   7.464   8.388
30027WAT      O90322   2.187   0.989   9.636
30027WAT     H190323   2.159   0.995   9.540
30027WAT     H290324   2.257   1.058   9.655
30028WAT      O90325   6.205   5.518   2.381
30028WAT     H190326   6.127   5.495   2.324
30028WAT     H290327   6.183   5.498   2.477
30029WAT      O90328   1.427   2.031   8.616
30029WAT     H190329   1.508   1.985   8.651
30029WAT     H290330   1.383   1.975   8.546
30030WAT      O90331   3.760   7.106   6.131
30030WAT     H190332   3.795   7.015   6.155
30030WAT     H290333   3.829   7.156   6.079
30031WAT      O90334   6.278   1.559   4.409
30031WAT     H190335   6.366   1.600   4.434
30031WAT     H290336   6.240   1.608   4.331
30032WAT      O90337   6.151   1.677   8.192
30032WAT     H190338   6.161   1.722   8.103
30032WAT     H290339   6.190   1.585   8.188
30033WAT      O90340   2.632   4.994   4.072
30033WAT     H190341   2.635   4.895   4.089
30033WAT     H290342   2.572   5.037   4.139
30034WAT      O90343   9.087   4.965   3.868
30034WAT     H190344   8.990   4.987   3.866
30034WAT     H290345   9.114   4.942   3.962
30035WAT      O90346   2.220   0.956   3.010
30035WAT     H190347   2.143   1.012   3.042
30035WAT     H290348   2.222   0.958   2.910
30036WAT      O90349   3.117   4.893   7.956
30036WAT     H190350   3.077   4.816   8.006
30036WAT     H290351   3.201   4.863   7.910
30037WAT      O90352   4.952   4.095   1.912
30037WAT     H190353   4.861   4.053   1.914
30037WAT     H290354   4.961   4.151   1.830
30038WAT      O90355   5.188   4.530   0.039
30038WAT     H190356   5.168   4.434   0.061
30038WAT     H290357   5.285   4.539   0.019
30039WAT      O90358   5.999   1.163   1.229
30039WAT     H190359   5.931   1.206   1.288
30039WAT     H290360   6.074   1.227   1.212
30040WAT      O90361   2.121   5.919   3.389
30040WAT     H190362   2.032   5.897   3.348
30040WAT     H290363   2.145   6.013   3.365
30041WAT      O90364   1.542   3.003   3.163
30041WAT     H190365   1.496   2.939   3.225
30041WAT     H290366   1.510   2.987   3.069
30042WAT      O90367   9.113   2.131   8.443
30042WAT     H190368   9.158   2.209   8.402
30042WAT     H290369   9.142   2.122   8.539
30043WAT      O90370   8.065   0.559   6.207
30043WAT     H190371   8.020   0.479   6.167
30043WAT     H290372   8.022   0.581   6.295
30044WAT      O90373   8.861   4.976   2.009
30044WAT     H190374   8.952   4.962   1.971
30044WAT     H290375   8.822   5.061   1.973
30045WAT      O90376   0.576   6.278   0.819
30045WAT     H190377   0.542   6.193   0.858
30045WAT     H290378   0.501   6.342   0.806
30046WAT      O90379   8.249   0.301   6.103
30046WAT     H190380   8.279   0.255   6.187
30046WAT     H290381   8.202   0.387   6.127
30047WAT      O90382   0.352   0.900   3.336
30047WAT     H190383   0.296   0.832   3.382
30047WAT     H290384   0.324   0.908   3.240
30048WAT      O90385   0.487   4.294   1.666
30048WAT     H190386   0.561   4.356   1.690
30048WAT     H290387   0.490   4.274   1.568
30049WAT      O90388   2.430   1.197   6.266
30049WAT     H190389   2.520   1.241   6.271
30049WAT     H290390   2.378   1.238   6.192
30050WAT      O90391   1.534   7.542   8.092
30050WAT     H190392   1.459   7.593   8.049
30050WAT     H290393   1.510   7.522   8.187
30051WAT      O90394   7.963   9.549   2.580
30051WAT     H190395   8.001   9.494   2.654
30051WAT     H290396   7.902   9.492   2.524
30052WAT      O90397   3.267   0.664   7.449
30052WAT     H190398   3.339   0.724   7.482
30052WAT     H290399   3.190   0.719   7.416
30053WAT      O90400   6.773   1.520   3.799
30053WAT     H190401   6.757   1.604   3.748
30053WAT     H290402   6.846   1.534   3.866
30054WAT      O90403   7.084   4.908   5.307
30054WAT     H190404   7.131   4.966   5.374
30054WAT     H290405   7.141   4.900   5.225
30055WAT      O90406   3.668   4.841   0.213
30055WAT     H190407   3.616   4.912   0.260
30055WAT     H290408   3.663   4.857   0.114
30056WAT      O90409   4.160   1.200   1.930
30056WAT     H190410   4.253   1.204   1.894
30056WAT     H290411   4.153   1.123   1.994
30057WAT      O90412   8.550   9.108   1.860
30057WAT     H190413   8.611   9.031   1.879
30057WAT     H290414   8.539   9.118   1.761
30058WAT      O90415   5.682   8.598   8.742
30058WAT     H190416   5.777   8.623   8.759
30058WAT     H290417   5.677   8.543   8.659
30059WAT      O90418   1.734   9.575   3.864
30059WAT     H190419   1.697   9.503   3.922
30059WAT     H290420   1.720   9.664   3.908
30060WAT      O90421   3.073   7.607   8.483
30060WAT     H190422   3.003   7.599   8.412
30060WAT     H290423   3.164   7.604   8.441
30061WAT      O90424   0.870   5.232   2.620
30061WAT     H190425   0.954   5.208   2.669
30061WAT     H290426   0.821   5.302   2.672
30062WAT      O90427   4.008   3.581   6.018
30062WAT     H190428   3.991   3.675   5.988
30062WAT     H290429   3.924   3.527   6.008
30063WAT      O90430   6.972   0.204   9.481
30063WAT     H190431   7.044   0.207   9.411
30063WAT     H290432   6.958   0.296   9.517
30064WAT      O90433   6.820   7.233   6.910
30064WAT     H190434   6.844   7.212   6.815
30064WAT     H290435   6.832   7.330   6.926
30065WAT      O90436   4.255   4.181   3.878
30065WAT     H190437   4.350   4.207   3.867
30065WAT     H290438   4.227   4.195   3.973
30066WAT      O90439   4.285   4.158   6.963
30066WAT     H190440   4.190   4.147   6.933
30066WAT     H290441   4.315   4.076   7.011
30067WAT      O90442   3.932   2.644   4.823
30067WAT     H190443   3.902   2.549   4.818
30067WAT     H290444   4.006   2.659   4.758
30068WAT      O90445   9.628   6.969   0.952
30068WAT     H190446   9.667   7.035   1.017
30068WAT     H290447   9.533   6.951   0.976
30069WAT      O90448   7.256   7.617   4.800
30069WAT     H190449   7.289   7.680   4.870
30069WAT     H290450   7.221   7.534   4.843
30070WAT      O90451   1.543   8.260   3.914
30070WAT     H190452   1.557   8.161   3.919
30070WAT     H290453   1.631   8.307   3.917
30071WAT      O90454   0.912   5.193   7.663
30071WAT     H190455   0.871   5.224   7.748
30071WAT     H290456   0.918   5.270   7.599
30072WAT      O90457   9.773   6.224   3.247
30072WAT     H190458   9.865   6.233   3.208
30072WAT     H290459   9.780   6.207   3.345
30073WAT      O90460   6.993   8.673   4.516
30073WAT     H190461   6.948   8.605   4.458
30073WAT     H290462   7.088   8.648   4.531
30074WAT      O90463   3.010   9.291   8.453
30074WAT     H190464   3.060   9.277   8.539
30074WAT     H290465   3.072   9.328   8.384
30075WAT      O90466   8.783   7.202   5.534
30075WAT     H190467   8.807   7.298   5.522
30075WAT     H290468   8.815   7.170   5.624
30076WAT      O90469   2.959   4.051   6.193
30076WAT     H190470   2.870   4.067   6.151
30076WAT     H290471   2.946   4.017   6.286
30077WAT      O90472   1.704   2.439   4.510
30077WAT     H190473   1.733   2.363   4.569
30077WAT     H290474   1.739   2.525   4.548
30078WAT      O90475   2.687   1.846   7.380
30078WAT     H190476   2.655   1.760   7.339
30078WAT     H290477   2.778   1.867   7.345
30079WAT      O90478   2.151   5.527   5.495
30079WAT     H190479   2.108   5.617   5.490
30079WAT     H290480   2.223   5.521   5.426
30080WAT      O90481   0.957   3.176   4.363
30080WAT     H190482   0.958   3.149   4.267
30080WAT     H290483   0.933   3.273   4.370
30081WAT      O90484   8.118   6.787   6.589
30081WAT     H190485   8.085   6.878   6.613
30081WAT     H290486   8.172   6.792   6.505
30082WAT      O90487   5.542   1.987   9.633
30082WAT     H190488   5.587   2.060   9.582
30082WAT     H290489   5.592   1.901   9.621
30083WAT      O90490   9.825   4.119   7.443
30083WAT     H190491   9.771   4.162   7.515
30083WAT     H290492   9.763   4.086   7.371
30084WAT      O90493   7.730   2.373   3.256
30084WAT     H190494   7.661   2.427   3.208
30084WAT     H290495   7.787   2.324   3.190
30085WAT      O90496   5.369   4.394   2.707
30085WAT     H190497   5.467   4.382   2.718
30085WAT     H290498   5.332   4.318   2.654
30086WAT      O90499   0.997   5.450   6.004
30086WAT     H190500   1.084   5.443   5.956
30086WAT     H290501   1.007   5.421   6.099
30087WAT      O90502   8.546   6.185   5.719
30087WAT     H190503   8.522   6.195   5.623
30087WAT     H290504   8.641   6.214   5.733
30088WAT      O90505   9.534   8.108   7.970
30088WAT     H190506   9.600   8.057   7.915
30088WAT     H290507   9.539   8.205   7.945
30089WAT      O90508   7.781   1.386   4.187
30089WAT     H190509   7.789   1.292   4.223
30089WAT     H290510   7.690   1.397   4.147
30090WAT      O90511   5.566   2.507   2.942
30090WAT     H190512   5.483   2.463   2.977
30090WAT     H290513   5.645   2.449   2.962
30091WAT      O90514   0.878   4.140   4.551
30091WAT     H190515   0.820   4.064   4.523
30091WAT     H290516   0.943   4.110   4.620
30092WAT      O90517   6.113   9.595   3.172
30092WAT     H190518   6.036   9.532   3.170
30092WAT     H290519   6.102   9.665   3.101
30093WAT      O90520   3.264   8.890   5.025
30093WAT     H190521   3.345   8.841   4.992
30093WAT     H290522   3.276   8.913   5.122
30094WAT      O90523   2.013   1.844   8.653
30094WAT     H190524   1.976   1.933   8.680
30094WAT     H290525   2.058   1.851   8.565
30095WAT      O90526   3.307   8.222   8.415
30095WAT     H190527   3.341   8.282   8.487
30095WAT     H290528   3.207   8.217   8.420
30096WAT      O90529   6.546   0.003   9.547
30096WAT     H190530   6.600   0.043   9.473
30096WAT     H290531   6.502  -0.081   9.515
30097WAT      O90532   6.804   6.514   3.480
30097WAT     H190533   6.901   6.523   3.503
30097WAT     H290534   6.757   6.600   3.501
30098WAT      O90535   8.720   0.904   4.520
30098WAT     H190536   8.765   0.884   4.433
30098WAT     H290537   8.738   0.830   4.584
30099WAT      O90538   1.638   2.711   4.188
30099WAT     H190539   1.722   2.659   4.174
30099WAT     H290540   1.581   2.706   4.106
30100WAT      O90541   0.483   2.223   3.088
30100WAT     H190542   0.434   2.306   3.062
30100WAT     H290543   0.539   2.241   3.168
30101WAT      O90544   0.960   8.275   2.178
30101WAT     H190545   0.935   8.365   2.142
30101WAT     H290546   1.044   8.243   2.132
30102WAT      O90547   5.110   6.094   9.654
30102WAT     H190548   5.201   6.119   9.623
30102WAT     H290549   5.075   6.018   9.599
30103WAT      O90550   7.941   3.663   6.881
30103WAT     H190551   7.966   3.617   6.796
30103WAT     H290552   8.021   3.670   6.940
30104WAT      O90553   7.712   4.621   4.748
30104WAT     H190554   7.632   4.681   4.763
30104WAT     H290555   7.709   4.586   4.654
30105WAT      O90556   5.434   9.673   0.334
30105WAT     H190557   5.470   9.627   0.253
30105WAT     H290558   5.488   9.754   0.353
30106WAT      O90559   5.163   6.737   4.188
30106WAT     H190560   5.258   6.757   4.164
30106WAT     H290561   5.115   6.821   4.211
30107WAT      O90562   8.599   2.083   4.465
30107WAT     H190563   8.642   2.004   4.508
30107WAT     H290564   8.669   2.149   4.438
30108WAT      O90565   2.711   0.037   9.095
30108WAT     H190566   2.627   0.060   9.045
30108WAT     H290567   2.730   0.108   9.162
30109WAT      O90568   4.349   2.704   3.303
30109WAT     H190569   4.395   2.704   3.214
30109WAT     H290570   4.289   2.624   3.309
30110WAT      O90571   7.525   6.042   7.132
30110WAT     H190572   7.469   6.115   7.093
30110WAT     H290573   7.476   5.955   7.125
30111WAT      O90574   0.306   8.527   5.399
30111WAT     H190575   0.334   8.534   5.494
30111WAT     H290576   0.301   8.618   5.358
30112WAT      O90577   3.953   2.352   1.088
30112WAT     H190578   3.984   2.381   0.998
30112WAT     H290579   4.032   2.323   1.143
30113WAT      O90580   7.879   0.102   7.055
30113WAT     H190581   7.790   0.070   7.086
30113WAT     H290582   7.867   0.168   6.981
30114WAT      O90583   3.123   0.640   5.932
30114WAT     H190584   3.202   0.608   5.984
30114WAT     H290585   3.053   0.672   5.995
30115WAT      O90586   4.134   5.376   4.181
30115WAT     H190587   4.107   5.299   4.123
30115WAT     H290588   4.084   5.458   4.153
30116WAT      O90589   9.027   8.224   4.682
30116WAT     H190590   8.938   8.241   4.725
30116WAT     H290591   9.079   8.159   4.737
30117WAT      O90592   7.959   9.403   6.559
30117WAT     H190593   8.047   9.432   6.520
30117WAT     H290594   7.954   9.303   6.557
30118WAT      O90595   6.252   2.777   6.107
30118WAT     H190596   6.253   2.875   6.087
30118WAT     H290597   6.206   2.761   6.194
30119WAT      O90598   4.430   7.860   9.054
30119WAT     H190599   4.429   7.871   8.954
30119WAT     H290600   4.499   7.921   9.093
30120WAT      O90601   1.167   0.995   1.510
30120WAT     H190602   1.091   1.033   1.563
30120WAT     H290603   1.178   1.047   1.425
30121WAT      O90604   0.640   2.896   4.213
30121WAT     H190605   0.692   2.886   4.128
30121WAT     H290606   0.678   2.972   4.266
30122WAT      O90607   7.035   2.047   9.188
30122WAT     H190608   7.126   2.026   9.225
30122WAT     H290609   7.035   2.030   9.090
30123WAT      O90610   2.108   8.177   6.883
30123WAT     H190611   2.058   8.104   6.838
30123WAT     H290612   2.191   8.197   6.831
30124WAT      O90613   0.284   0.839   3.069
30124WAT     H190614   0.309   0.827   2.973
30124WAT     H290615   0.185   0.833   3.079
30125WAT      O90616   1.108   3.245   5.561
30125WAT     H190617   1.049   3.198   5.626
30125WAT     H290618   1.187   3.187   5.540
30126WAT      O90619   2.808   0.264   6.621
30126WAT     H190620   2.903   0.288   6.641
30126WAT     H290621   2.787   0.174   6.662
30127WAT      O90622   9.038   9.122   6.540
30127WAT     H190623   8.943   9.151   6.528
30127WAT     H290624   9.097   9.174   6.479
30128WAT      O90625   6.904   8.490   4.320
30128WAT     H190626   6.912   8.391   4.332
30128WAT     H290627   6.916   8.514   4.224
30129WAT      O90628   2.225   3.768   1.078
30129WAT     H190629   2.236   3.723   0.989
30129WAT     H290630   2.129   3.766   1.105
30130WAT      O90631   1.878   1.123   6.756
30130WAT     H190632   1.951   1.120   6.688
30130WAT     H290633   1.915   1.098   6.846
30131WAT      O90634   4.353   0.195   3.573
30131WAT     H190635   4.338   0.153   3.484
30131WAT     H290636   4.379   0.125   3.640
30132WAT      O90637   4.640   5.939   9.668
30132WAT     H190638   4.681   5.899   9.586
30132WAT     H290639   4.676   5.892   9.749
30133WAT      O90640   2.752   9.010   2.427
30133WAT     H190641   2.817   8.939   2.453
30133WAT     H290642   2.764   9.089   2.486
30134WAT      O90643   5.869   3.357   7.563
30134WAT     H190644   5.877   3.425   7.636
30134WAT     H290645   5.878   3.402   7.474
30135WAT      O90646   9.058   8.233   7.967
30135WAT     H190647   9.100   8.229   7.877
30135WAT     H290648   9.010   8.321   7.977
30136WAT      O90649   3.453   1.069   2.940
30136WAT     H190650   3.403   1.057   2.855
30136WAT     H290651   3.398   1.121   3.005
30137WAT      O90652   2.951   6.935   1.531
30137WAT     H190653   3.002   6.968   1.611
30137WAT     H290654   2.860   6.906   1.560
30138WAT      O90655   4.981   9.566   3.363
30138WAT     H190656   5.037   9.616   3.298
30138WAT     H290657   5.012   9.471   3.368
30139WAT      O90658   5.962   9.686   4.188
30139WAT     H190659   5.955   9.593   4.152
30139WAT     H290660   5.872   9.718   4.216
30140WAT      O90661   8.632   5.636   4.179
30140WAT     H190662   8.546   5.614   4.133
30140WAT     H290663   8.679   5.710   4.130
30141WAT      O90664   4.074   9.404   2.406
30141WAT     H190665   3.988   9.415   2.355
30141WAT     H290666   4.150   9.436   2.349
30142WAT      O90667   9.688   1.720   0.810
30142WAT     H190668   9.604   1.671   0.833
30142WAT     H290669   9.766   1.658   0.816
30143WAT      O90670   2.601   0.611   6.558
30143WAT     H190671   2.521   0.670   6.559
30143WAT     H290672   2.573   0.515   6.549
30144WAT      O90673   5.042   0.019   6.205
30144WAT     H190674   4.976  -0.026   6.145
30144WAT     H290675   5.118  -0.043   6.223
30145WAT      O90676   4.522   7.819   6.336
30145WAT     H190677   4.439   7.775   6.304
30145WAT     H290678   4.500   7.907   6.378
30146WAT      O90679   3.300   4.241   7.908
30146WAT     H190680   3.354   4.312   7.864
30146WAT     H290681   3.244   4.194   7.840
30147WAT      O90682   4.669   2.267   2.770
30147WAT     H190683   4.717   2.294   2.854
30147WAT     H290684   4.735   2.226   2.706
30148WAT      O90685   4.785   3.055   0.239
30148WAT     H190686   4.790   2.956   0.231
30148WAT     H290687   4.777   3.080   0.336
30149WAT      O90688   1.166   4.800   8.921
30149WAT     H190689   1.173   4.745   9.004
30149WAT     H290690   1.103   4.755   8.857
30150WAT      O90691   0.558   0.400   8.219
30150WAT     H190692   0.519   0.337   8.151
30150WAT     H290693   0.622   0.350   8.277
30151WAT      O90694   9.480   2.366   5.797
30151WAT     H190695   9.504   2.426   5.873
30151WAT     H290696   9.450   2.277   5.832
30152WAT      O90697   0.158   6.442   1.961
30152WAT     H190698   0.257   6.432   1.958
30152WAT     H290699   0.116   6.356   1.988
30153WAT      O90700   3.437   0.545   2.725
30153WAT     H190701   3.531   0.510   2.718
30153WAT     H290702   3.437   0.642   2.703
30154WAT      O90703   2.631   7.244   5.253
30154WAT     H190704   2.580   7.167   5.291
30154WAT     H290705   2.601   7.261   5.159
30155WAT      O90706   4.237   1.433   9.273
30155WAT     H190707   4.312   1.439   9.207
30155WAT     H290708   4.269   1.466   9.362
30156WAT      O90709   1.221   0.938   9.135
30156WAT     H190710   1.295   0.902   9.192
30156WAT     H290711   1.250   1.023   9.092
30157WAT      O90712   9.101   0.630   5.168
30157WAT     H190713   9.081   0.727   5.183
30157WAT     H290714   9.193   0.610   5.201
30158WAT      O90715   6.927   3.716   7.721
30158WAT     H190716   6.901   3.778   7.647
30158WAT     H290717   6.863   3.726   7.797
30159WAT      O90718   5.410   2.279   2.295
30159WAT     H190719   5.445   2.191   2.265
30159WAT     H290720   5.384   2.334   2.215
30160WAT      O90721   9.112   2.658   1.233
30160WAT     H190722   9.097   2.564   1.202
30160WAT     H290723   9.207   2.683   1.218
30161WAT      O90724   7.135   7.439   1.912
30161WAT     H190725   7.093   7.521   1.952
30161WAT     H290726   7.192   7.394   1.981
30162WAT      O90727   8.029   2.905   8.656
30162WAT     H190728   8.040   2.818   8.609
30162WAT     H290729   8.117   2.950   8.665
30163WAT      O90730   7.628   3.629   0.574
30163WAT     H190731   7.691   3.559   0.608
30163WAT     H290732   7.659   3.719   0.605
30164WAT      O90733   3.600   4.204   8.973
30164WAT     H190734   3.639   4.279   8.918
30164WAT     H290735   3.627   4.216   9.068
30165WAT      O90736   1.753   9.743   5.871
30165WAT     H190737   1.757   9.828   5.818
30165WAT     H290738   1.835   9.690   5.854
30166WAT      O90739   0.082   2.377   8.259
30166WAT     H190740   0.102   2.285   8.292
30166WAT     H290741   0.162   2.436   8.273
30167WAT      O90742   8.156   0.545   2.398
30167WAT     H190743   8.228   0.534   2.330
30167WAT     H290744   8.195   0.531   2.489
30168WAT      O90745   8.873   9.576   7.617
30168WAT     H190746   8.847   9.617   7.704
30168WAT     H290747   8.866   9.477   7.624
30169WAT      O90748   7.761   0.156   1.246
30169WAT     H190749   7.677   0.126   1.202
30169WAT     H290750   7.826   0.081   1.249
30170WAT      O90751   5.436   3.729   5.696
30170WAT     H190752   5.493   3.810   5.683
30170WAT     H290753   5.348   3.744   5.651
30171WAT      O90754   1.784   1.606   0.428
30171WAT     H190755   1.736   1.522   0.452
30171WAT     H290756   1.879   1.599   0.459
30172WAT      O90757   8.449   2.742   1.280
30172WAT     H190758   8.524   2.682   1.309
30172WAT     H290759   8.420   2.716   1.188
30173WAT      O90760   4.027   3.926   6.741
30173WAT     H190761   4.064   3.863   6.810
30173WAT     H290762   3.971   3.996   6.786
30174WAT      O90763   5.287   8.770   8.483
30174WAT     H190764   5.278   8.777   8.582
30174WAT     H290765   5.258   8.679   8.454
30175WAT      O90766   2.407   5.983   2.037
30175WAT     H190767   2.346   6.061   2.052
30175WAT     H290768   2.502   6.012   2.049
30176WAT      O90769   2.150   1.906   0.149
30176WAT     H190770   2.236   1.933   0.106
30176WAT     H290771   2.086   1.983   0.146
30177WAT      O90772   7.127   6.848   8.631
30177WAT     H190773   7.112   6.895   8.719
30177WAT     H290774   7.211   6.881   8.590
30178WAT      O90775   2.153   0.505   5.552
30178WAT     H190776   2.161   0.432   5.620
30178WAT     H290777   2.105   0.471   5.471
30179WAT      O90778   6.850   3.047   2.368
30179WAT     H190779   6.937   3.074   2.326
30179WAT     H290780   6.794   3.129   2.384
30180WAT      O90781   1.628   7.572   4.687
30180WAT     H190782   1.582   7.591   4.774
30180WAT     H290783   1.639   7.657   4.636
30181WAT      O90784   8.520   9.800   0.033
30181WAT     H190785   8.567   9.860  -0.032
30181WAT     H290786   8.435   9.768  -0.007
30182WAT      O90787   5.640   4.015   6.683
30182WAT     H190788   5.630   3.934   6.625
30182WAT     H290789   5.677   4.090   6.629
30183WAT      O90790   7.343   2.022   2.169
30183WAT     H190791   7.336   2.121   2.165
30183WAT     H290792   7.252   1.982   2.183
30184WAT      O90793   4.001   4.219   5.767
30184WAT     H190794   4.038   4.309   5.792
30184WAT     H290795   3.924   4.198   5.827
30185WAT      O90796   5.723   9.165   7.598
30185WAT     H190797   5.770   9.117   7.672
30185WAT     H290798   5.732   9.113   7.513
30186WAT      O90799   8.134   6.161   8.629
30186WAT     H190800   8.091   6.201   8.710
30186WAT     H290801   8.107   6.065   8.622
30187WAT      O90802   5.471   5.072   8.913
30187WAT     H190803   5.519   4.994   8.953
30187WAT     H290804   5.373   5.052   8.909
30188WAT      O90805   6.632   5.193   1.046
30188WAT     H190806   6.543   5.238   1.054
30188WAT     H290807   6.692   5.224   1.120
30189WAT      O90808   8.586   7.121   6.402
30189WAT     H190809   8.569   7.099   6.307
30189WAT     H290810   8.509   7.174   6.438
30190WAT      O90811   0.619   1.430   3.624
30190WAT     H190812   0.624   1.445   3.525
30190WAT     H290813   0.673   1.349   3.648
30191WAT      O90814   8.367   6.896   0.480
30191WAT     H190815   8.430   6.878   0.405
30191WAT     H290816   8.342   6.992   0.482
30192WAT      O90817   2.241   9.740   6.980
30192WAT     H190818   2.264   9.775   7.070
30192WAT     H290819   2.244   9.816   6.914
30193WAT      O90820   4.008   2.942   2.907
30193WAT     H190821   4.055   2.962   2.821
30193WAT     H290822   4.075   2.931   2.980
30194WAT      O90823   1.809   9.404   4.400
30194WAT     H190824   1.717   9.366   4.405
30194WAT     H290825   1.835   9.415   4.304
30195WAT      O90826   3.322   9.279   3.565
30195WAT     H190827   3.267   9.321   3.494
30195WAT     H290828   3.342   9.346   3.636
30196WAT      O90829   9.254   6.615   5.938
30196WAT     H190830   9.352   6.604   5.920
30196WAT     H290831   9.219   6.534   5.985
30197WAT      O90832   2.938   3.562   4.219
30197WAT     H190833   3.001   3.485   4.227
30197WAT     H290834   2.983   3.636   4.169
30198WAT      O90835   9.473   0.143   9.135
30198WAT     H190836   9.477   0.214   9.205
30198WAT     H290837   9.381   0.105   9.131
30199WAT      O90838   6.792   6.773   9.042
30199WAT     H190839   6.711   6.728   9.079
30199WAT     H290840   6.814   6.853   9.098
30200WAT      O90841   3.588   7.210   9.865
30200WAT     H190842   3.490   7.197   9.878
30200WAT     H290843   3.612   7.193   9.770
30201WAT      O90844   4.128   0.788   5.442
30201WAT     H190845   4.105   0.854   5.371
30201WAT     H290846   4.072   0.706   5.432
30202WAT      O90847   0.026   5.030   7.970
30202WAT     H190848   0.049   5.016   8.066
30202WAT     H290849   0.076   5.108   7.934
30203WAT      O90850   3.104   4.324   1.565
30203WAT     H190851   3.140   4.343   1.657
30203WAT     H290852   3.165   4.260   1.518
30204WAT      O90853   9.358   6.570   7.505
30204WAT     H190854   9.397   6.533   7.421
30204WAT     H290855   9.259   6.579   7.494
30205WAT      O90856   5.092   3.951   2.634
30205WAT     H190857   5.030   3.952   2.556
30205WAT     H290858   5.139   3.863   2.638
30206WAT      O90859   6.236   5.471   5.401
30206WAT     H190860   6.267   5.548   5.346
30206WAT     H290861   6.137   5.476   5.414
30207WAT      O90862   2.932   0.750   2.164
30207WAT     H190863   2.856   0.758   2.229
30207WAT     H290864   2.905   0.690   2.089
30208WAT      O90865   1.035   4.256   7.860
30208WAT     H190866   1.123   4.295   7.832
30208WAT     H290867   1.046   4.159   7.879
30209WAT      O90868   2.743   7.677   0.978
30209WAT     H190869   2.770   7.772   0.960
30209WAT     H290870   2.646   7.665   0.957
30210WAT      O90871   0.340   9.668   0.482
30210WAT     H190872   0.324   9.611   0.562
30210WAT     H290873   0.386   9.613   0.411
30211WAT      O90874   8.272   1.440   0.652
30211WAT     H190875   8.256   1.526   0.698
30211WAT     H290876   8.329   1.456   0.571
30212WAT      O90877   8.353   1.901   0.713
30212WAT     H190878   8.376   1.840   0.788
30212WAT     H290879   8.384   1.994   0.734
30213WAT      O90880   6.648   1.915   2.328
30213WAT     H190881   6.576   1.895   2.395
30213WAT     H290882   6.639   1.852   2.251
30214WAT      O90883   7.199   6.698   5.070
30214WAT     H190884   7.157   6.733   4.986
30214WAT     H290885   7.249   6.771   5.116
30215WAT      O90886   2.446   1.211   7.271
30215WAT     H190887   2.355   1.240   7.242
30215WAT     H290888   2.495   1.288   7.310
30216WAT      O90889   4.602   3.533   9.116
30216WAT     H190890   4.596   3.434   9.101
30216WAT     H290891   4.604   3.580   9.028
30217WAT      O90892   6.105   4.442   1.613
30217WAT     H190893   6.162   4.504   1.559
30217WAT     H290894   6.123   4.348   1.586
30218WAT      O90895   0.790   3.037   8.544
30218WAT     H190896   0.880   3.059   8.580
30218WAT     H290897   0.743   2.976   8.607
30219WAT      O90898   5.871   0.224   0.700
30219WAT     H190899   5.830   0.312   0.723
30219WAT     H290900   5.853   0.159   0.773
30220WAT      O90901   2.273   5.165   0.987
30220WAT     H190902   2.260   5.066   0.976
30220WAT     H290903   2.251   5.191   1.080
30221WAT      O90904   3.556   8.193   5.639
30221WAT     H190905   3.498   8.197   5.720
30221WAT     H290906   3.635   8.134   5.657
30222WAT      O90907   6.907   9.498   3.009
30222WAT     H190908   6.912   9.581   3.065
30222WAT     H290909   6.886   9.419   3.068
30223WAT      O90910   6.842   3.509   6.094
30223WAT     H190911   6.889   3.421   6.100
30223WAT     H290912   6.848   3.556   6.183
30224WAT      O90913   3.207   9.082   7.835
30224WAT     H190914   3.292   9.067   7.886
30224WAT     H290915   3.131   9.090   7.899
30225WAT      O90916   0.712   6.113   4.228
30225WAT     H190917   0.725   6.188   4.163
30225WAT     H290918   0.619   6.078   4.219
30226WAT      O90919   5.529   7.103   7.719
30226WAT     H190920   5.612   7.055   7.747
30226WAT     H290921   5.554   7.180   7.660
30227WAT      O90922   6.554   4.507   5.509
30227WAT     H190923   6.458   4.486   5.530
30227WAT     H290924   6.558   4.595   5.461
30228WAT      O90925   1.427   3.504   0.195
30228WAT     H190926   1.476   3.490   0.110
30228WAT     H290927   1.456   3.435   0.262
30229WAT      O90928   9.316   1.112   7.933
30229WAT     H190929   9.278   1.182   7.993
30229WAT     H290930   9.414   1.129   7.920
30230WAT      O90931   0.113   9.510   1.112
30230WAT     H190932   0.160   9.464   1.037
30230WAT     H290933   0.014   9.492   1.106
30231WAT      O90934   7.405   3.804   1.476
30231WAT     H190935   7.478   3.807   1.408
30231WAT     H290936   7.328   3.751   1.440
30232WAT      O90937   2.645   6.524   1.040
30232WAT     H190938   2.676   6.440   0.995
30232WAT     H290939   2.641   6.510   1.139
30233WAT      O90940   3.869   1.267   7.752
30233WAT     H190941   3.797   1.282   7.684
30233WAT     H290942   3.958   1.283   7.711
30234WAT      O90943   2.634   8.755   2.616
30234WAT     H190944   2.639   8.824   2.688
30234WAT     H290945   2.540   8.751   2.581
30235WAT      O90946   4.509   0.456   2.547
30235WAT     H190947   4.518   0.517   2.469
30235WAT     H290948   4.565   0.490   2.623
30236WAT      O90949   4.954   6.610   4.345
30236WAT     H190950   5.021   6.630   4.273
30236WAT     H290951   4.872   6.666   4.330
30237WAT      O90952   3.822   6.038   8.898
30237WAT     H190953   3.806   6.002   8.806
30237WAT     H290954   3.792   6.134   8.902
30238WAT      O90955   4.780   7.041   5.030
30238WAT     H190956   4.871   7.001   5.044
30238WAT     H290957   4.736   7.056   5.119
30239WAT      O90958   4.975   0.809   6.862
30239WAT     H190959   4.955   0.794   6.765
30239WAT     H290960   4.901   0.771   6.917
30240WAT      O90961   8.380   8.166   0.729
30240WAT     H190962   8.453   8.235   0.723
30240WAT     H290963   8.355   8.137   0.636
30241WAT      O90964   5.819   1.790   8.486
30241WAT     H190965   5.829   1.856   8.560
30241WAT     H290966   5.832   1.697   8.522
30242WAT      O90967   2.586   1.732   9.239
30242WAT     H190968   2.675   1.758   9.203
30242WAT     H290969   2.532   1.688   9.167
30243WAT      O90970   5.950   5.724   1.836
30243WAT     H190971   5.889   5.784   1.887
30243WAT     H290972   5.908   5.700   1.749
30244WAT      O90973   4.105   7.586   9.278
30244WAT     H190974   4.039   7.640   9.329
30244WAT     H290975   4.151   7.644   9.211
30245WAT      O90976   2.953   1.015   2.986
30245WAT     H190977   2.938   1.085   2.916
30245WAT     H290978   2.954   1.058   3.077
30246WAT      O90979   4.186   9.334   0.018
30246WAT     H190980   4.108   9.376  -0.027
30246WAT     H290981   4.219   9.257  -0.036
30247WAT      O90982   6.862   4.353   2.180
30247WAT     H190983   6.806   4.362   2.098
30247WAT     H290984   6.940   4.293   2.161
30248WAT      O90985   0.518   2.465   4.580
30248WAT     H190986   0.534   2.423   4.491
30248WAT     H290987   0.442   2.419   4.626
30249WAT      O90988   2.448   7.667   0.100
30249WAT     H190989   2.355   7.689   0.070
30249WAT     H290990   2.513   7.724   0.049
30250WAT      O90991   7.244   6.504   4.882
30250WAT     H190992   7.205   6.544   4.799
30250WAT     H290993   7.243   6.572   4.956
30251WAT      O90994   6.455   2.965   1.065
30251WAT     H190995   6.389   2.995   1.134
30251WAT     H290996   6.410   2.961   0.975
30252WAT      O90997   8.048   1.873   9.287
30252WAT     H190998   8.103   1.896   9.368
30252WAT     H290999   8.092   1.799   9.237
30253WAT      O91000   3.629   0.208   3.395
30253WAT     H191001   3.612   0.170   3.305
30253WAT     H291002   3.570   0.162   3.462
30254WAT      O91003   0.204   4.142   2.768
30254WAT     H191004   0.188   4.200   2.688
30254WAT     H291005   0.118   4.098   2.795
30255WAT      O91006   9.293   7.056   2.090
30255WAT     H191007   9.349   6.997   2.147
30255WAT     H291008   9.246   7.123   2.147
30256WAT      O91009   8.744   2.618   0.985
30256WAT     H191010   8.708   2.588   1.073
30256WAT     H291011   8.831   2.571   0.968
30257WAT      O91012   6.232   3.590   0.790
30257WAT     H191013   6.288   3.613   0.710
30257WAT     H291014   6.289   3.589   0.872
30258WAT      O91015   3.470   2.988   7.562
30258WAT     H191016   3.454   3.082   7.591
30258WAT     H291017   3.385   2.935   7.572
30259WAT      O91018   6.312   1.884   3.784
30259WAT     H191019   6.221   1.924   3.773
30259WAT     H291020   6.381   1.956   3.778
30260WAT      O91021   7.459   5.456   7.805
30260WAT     H191022   7.513   5.540   7.799
30260WAT     H291023   7.364   5.479   7.830
30261WAT      O91024   1.183   1.871   6.889
30261WAT     H191025   1.209   1.938   6.820
30261WAT     H291026   1.142   1.791   6.845
30262WAT      O91027   5.724   1.426   4.170
30262WAT     H191028   5.811   1.463   4.136
30262WAT     H291029   5.712   1.333   4.134
30263WAT      O91030   0.128   9.535   0.069
30263WAT     H191031   0.200   9.480   0.111
30263WAT     H291032   0.170   9.616   0.026
30264WAT      O91033   8.614   5.551   1.653
30264WAT     H191034   8.595   5.596   1.565
30264WAT     H291035   8.586   5.612   1.728
30265WAT      O91036   2.850   8.756   8.438
30265WAT     H191037   2.941   8.788   8.465
30265WAT     H291038   2.783   8.828   8.455
30266WAT      O91039   2.114   3.072   6.790
30266WAT     H191040   2.165   3.012   6.728
30266WAT     H291041   2.108   3.164   6.750
30267WAT      O91042   1.735   8.514   9.229
30267WAT     H191043   1.710   8.456   9.306
30267WAT     H291044   1.810   8.574   9.256
30268WAT      O91045   8.459   9.394   3.209
30268WAT     H191046   8.551   9.357   3.220
30268WAT     H291047   8.397   9.346   3.271
30269WAT      O91048   1.125   0.889   3.580
30269WAT     H191049   1.161   0.897   3.487
30269WAT     H291050   1.162   0.963   3.636
30270WAT      O91051   7.196   9.048   1.831
30270WAT     H191052   7.104   9.075   1.805
30270WAT     H291053   7.245   9.012   1.752
30271WAT      O91054   6.866   2.861   4.798
30271WAT     H191055   6.787   2.915   4.827
30271WAT     H291056   6.837   2.792   4.732
30272WAT      O91057   2.210   7.358   5.097
30272WAT     H191058   2.281   7.427   5.107
30272WAT     H291059   2.205   7.328   5.002
30273WAT      O91060   2.463   6.293   2.951
30273WAT     H191061   2.465   6.339   2.863
30273WAT     H291062   2.438   6.358   3.023
30274WAT      O91063   7.709   8.170   5.568
30274WAT     H191064   7.800   8.158   5.527
30274WAT     H291065   7.644   8.109   5.524
30275WAT      O91066   7.539   1.342   4.054
30275WAT     H191067   7.578   1.280   3.987
30275WAT     H291068   7.500   1.422   4.008
30276WAT      O91069   8.444   3.131   3.254
30276WAT     H191070   8.512   3.137   3.181
30276WAT     H291071   8.400   3.041   3.253
30277WAT      O91072   9.805   2.163   5.576
30277WAT     H191073   9.893   2.207   5.593
30277WAT     H291074   9.775   2.116   5.659
30278WAT      O91075   8.938   8.730   2.957
30278WAT     H191076   8.922   8.825   2.981
30278WAT     H291077   8.967   8.724   2.862
30279WAT      O91078   9.237   3.525   8.674
30279WAT     H191079   9.279   3.436   8.688
30279WAT     H291080   9.244   3.579   8.758
30280WAT      O91081   0.057   3.974   6.302
30280WAT     H191082   0.072   3.875   6.298
30280WAT     H291083   0.086   4.016   6.216
30281WAT      O91084   2.008   5.017   1.929
30281WAT     H191085   2.024   5.102   1.881
30281WAT     H291086   2.095   4.973   1.950
30282WAT      O91087   5.010   6.014   8.212
30282WAT     H191088   5.057   6.031   8.126
30282WAT     H291089   5.061   5.947   8.266
30283WAT      O91090   4.957   9.128   0.740
30283WAT     H191091   4.995   9.220   0.750
30283WAT     H291092   5.016   9.062   0.788
30284WAT      O91093   8.257   5.107   2.418
30284WAT     H191094   8.216   5.195   2.442
30284WAT     H291095   8.188   5.047   2.379
30285WAT      O91096   2.445   6.170   3.634
30285WAT     H191097   2.442   6.167   3.534
30285WAT     H291098   2.455   6.077   3.670
30286WAT      O91099   4.189   8.243   0.759
30286WAT     H191100   4.232   8.157   0.789
30286WAT     H291101   4.135   8.281   0.834
30287WAT      O91102   1.306   2.497   1.689
30287WAT     H191103   1.399   2.520   1.720
30287WAT     H291104   1.245   2.575   1.703
30288WAT      O91105   8.788   2.198   2.116
30288WAT     H191106   8.873   2.234   2.078
30288WAT     H291107   8.806   2.154   2.203
30289WAT      O91108   7.504   0.594   8.818
30289WAT     H191109   7.555   0.662   8.765
30289WAT     H291110   7.477   0.634   8.905
30290WAT      O91111   6.747   6.623   7.994
30290WAT     H191112   6.657   6.660   7.970
30290WAT     H291113   6.804   6.696   8.032
30291WAT      O91114   7.165   0.036   1.109
30291WAT     H191115   7.091  -0.028   1.089
30291WAT     H291116   7.126   0.126   1.131
30292WAT      O91117   3.436   8.964   1.051
30292WAT     H191118   3.399   9.057   1.046
30292WAT     H291119   3.535   8.968   1.055
30293WAT      O91120   2.341   8.841   6.139
30293WAT     H191121   2.273   8.779   6.178
30293WAT     H291122   2.431   8.797   6.142
30294WAT      O91123   5.779   3.479   2.788
30294WAT     H191124   5.684   3.470   2.757
30294WAT     H291125   5.793   3.572   2.822
30295WAT      O91126   3.911   5.850   0.570
30295WAT     H191127   4.005   5.867   0.541
30295WAT     H291128   3.875   5.932   0.615
30296WAT      O91129   9.000   2.237   0.410
30296WAT     H191130   8.984   2.297   0.488
30296WAT     H291131   9.047   2.289   0.338
30297WAT      O91132   5.598   4.114   1.465
30297WAT     H191133   5.564   4.087   1.375
30297WAT     H291134   5.691   4.079   1.478
30298WAT      O91135   5.076   0.240   9.743
30298WAT     H191136   5.159   0.268   9.792
30298WAT     H291137   5.023   0.179   9.801
30299WAT      O91138   5.471   5.273   2.760
30299WAT     H191139   5.556   5.316   2.730
30299WAT     H291140   5.486   5.224   2.846
30300WAT      O91141   2.466   5.228   9.046
30300WAT     H191142   2.407   5.305   9.066
30300WAT     H291143   2.556   5.243   9.087
30301WAT      O91144   0.916   9.390   5.152
30301WAT     H191145   0.855   9.409   5.229
30301WAT     H291146   0.865   9.394   5.067
30302WAT      O91147   2.216   9.505   8.764
30302WAT     H191148   2.263   9.593   8.757
30302WAT     H291149   2.234   9.465   8.854
30303WAT      O91150   3.893   6.217   7.241
30303WAT     H191151   3.853   6.287   7.180
30303WAT     H291152   3.823   6.150   7.265
30304WAT      O91153   6.594   5.729   6.106
30304WAT     H191154   6.568   5.713   6.201
30304WAT     H291155   6.683   5.775   6.102
30305WAT      O91156   4.583   8.758   7.401
30305WAT     H191157   4.598   8.685   7.334
30305WAT     H291158   4.493   8.746   7.444
30306WAT      O91159   7.839   2.607   4.870
30306WAT     H191160   7.789   2.672   4.813
30306WAT     H291161   7.796   2.602   4.960
30307WAT      O91162   5.737   0.468   1.718
30307WAT     H191163   5.811   0.493   1.656
30307WAT     H291164   5.658   0.527   1.701
30308WAT      O91165   0.232   7.429   0.347
30308WAT     H191166   0.312   7.479   0.314
30308WAT     H291167   0.190   7.480   0.422
30309WAT      O91168   7.245   3.545   1.920
30309WAT     H191169   7.204   3.634   1.897
30309WAT     H291170   7.202   3.473   1.866
30310WAT      O91171   3.615   0.468   3.293
30310WAT     H191172   3.588   0.482   3.198
30310WAT     H291173   3.588   0.376   3.322
30311WAT      O91174   1.621   4.766   1.444
30311WAT     H191175   1.567   4.690   1.408
30311WAT     H291176   1.561   4.830   1.492
30312WAT      O91177   8.213   6.751   8.586
30312WAT     H191178   8.262   6.696   8.518
30312WAT     H291179   8.239   6.847   8.575
30313WAT      O91180   5.545   7.306   0.006
30313WAT     H191181   5.538   7.316  -0.093
30313WAT     H291182   5.480   7.237   0.038
30314WAT      O91183   1.446   5.290   5.807
30314WAT     H191184   1.386   5.268   5.729
30314WAT     H291185   1.518   5.353   5.776
30315WAT      O91186   9.192   6.366   8.188
30315WAT     H191187   9.169   6.457   8.221
30315WAT     H291188   9.278   6.336   8.229
30316WAT      O91189   6.494   2.049   4.036
30316WAT     H191190   6.530   1.956   4.046
30316WAT     H291191   6.473   2.066   3.940
30317WAT      O91192   1.966   8.310   9.503
30317WAT     H191193   2.023   8.314   9.421
30317WAT     H291194   1.870   8.300   9.477
30318WAT      O91195   1.284   3.141   1.858
30318WAT     H191196   1.359   3.091   1.902
30318WAT     H291197   1.247   3.209   1.921
30319WAT      O91198   4.446   2.308   6.900
30319WAT     H191199   4.361   2.262   6.874
30319WAT     H291200   4.432   2.407   6.899
30320WAT      O91201   8.915   0.858   3.089
30320WAT     H191202   8.819   0.885   3.081
30320WAT     H291203   8.952   0.892   3.175
30321WAT      O91204   6.341   6.807   0.535
30321WAT     H191205   6.401   6.803   0.615
30321WAT     H291206   6.389   6.774   0.454
30322WAT      O91207   8.850   6.865   2.886
30322WAT     H191208   8.803   6.820   2.962
30322WAT     H291209   8.846   6.964   2.899
30323WAT      O91210   9.392   3.053   0.685
30323WAT     H191211   9.427   2.980   0.744
30323WAT     H291212   9.466   3.084   0.625
30324WAT      O91213   5.254   6.786   5.647
30324WAT     H191214   5.347   6.770   5.613
30324WAT     H291215   5.235   6.724   5.723
30325WAT      O91216   9.088   1.428   0.419
30325WAT     H191217   9.147   1.495   0.375
30325WAT     H291218   9.036   1.471   0.493
30326WAT      O91219   0.927   0.905   9.756
30326WAT     H191220   0.866   0.944   9.826
30326WAT     H291221   0.977   0.828   9.794
30327WAT      O91222   7.188   5.512   6.919
30327WAT     H191223   7.163   5.418   6.942
30327WAT     H291224   7.184   5.524   6.820
30328WAT      O91225   5.219   1.641   7.807
30328WAT     H191226   5.277   1.720   7.789
30328WAT     H291227   5.222   1.618   7.904
30329WAT      O91228   8.030   3.217   7.578
30329WAT     H191229   8.040   3.304   7.529
30329WAT     H291230   7.958   3.162   7.535
30330WAT      O91231   5.926   4.597   9.465
30330WAT     H191232   5.963   4.587   9.373
30330WAT     H291233   5.826   4.600   9.461
30331WAT      O91234   8.395   6.159   8.640
30331WAT     H191235   8.425   6.249   8.608
30331WAT     H291236   8.295   6.154   8.635
30332WAT      O91237   5.804   4.049   2.202
30332WAT     H191238   5.861   4.004   2.133
30332WAT     H291239   5.823   4.010   2.292
30333WAT      O91240   1.775   1.458   3.622
30333WAT     H191241   1.838   1.431   3.695
30333WAT     H291242   1.720   1.380   3.594
30334WAT      O91243   7.372   4.985   0.112
30334WAT     H191244   7.345   5.039   0.032
30334WAT     H291245   7.323   5.019   0.192
30335WAT      O91246   3.311   8.250   5.513
30335WAT     H191247   3.275   8.181   5.451
30335WAT     H291248   3.398   8.219   5.550
30336WAT      O91249   4.244   1.331   0.755
30336WAT     H191250   4.190   1.298   0.676
30336WAT     H291251   4.315   1.265   0.776
30337WAT      O91252   8.669   8.138   6.645
30337WAT     H191253   8.587   8.083   6.659
30337WAT     H291254   8.701   8.174   6.732
30338WAT      O91255   0.995   6.932   1.613
30338WAT     H191256   0.911   6.896   1.653
30338WAT     H291257   0.977   6.960   1.518
30339WAT      O91258   1.621   6.249   1.313
30339WAT     H191259   1.521   6.243   1.302
30339WAT     H291260   1.648   6.345   1.308
30340WAT      O91261   4.789   7.784   0.754
30340WAT     H191262   4.700   7.738   0.763
30340WAT     H291263   4.777   7.883   0.763
30341WAT      O91264   2.858   1.148   0.912
30341WAT     H191265   2.918   1.097   0.850
30341WAT     H291266   2.766   1.108   0.910
30342WAT      O91267   7.961   5.010   4.270
30342WAT     H191268   8.032   4.971   4.211
30342WAT     H291269   7.911   5.081   4.220
30343WAT      O91270   2.741   3.678   2.753
30343WAT     H191271   2.804   3.629   2.812
30343WAT     H291272   2.661   3.621   2.734
30344WAT      O91273   9.801   6.149   0.413
30344WAT     H191274   9.722   6.162   0.473
30344WAT     H291275   9.853   6.234   0.407
30345WAT      O91276   1.581   8.126   7.602
30345WAT     H191277   1.572   8.083   7.512
30345WAT     H291278   1.630   8.212   7.593
30346WAT      O91279   6.285   4.805   2.804
30346WAT     H191280   6.217   4.814   2.731
30346WAT     H291281   6.376   4.806   2.764
30347WAT      O91282   4.848   2.725   5.937
30347WAT     H191283   4.921   2.749   5.872
30347WAT     H291284   4.777   2.795   5.934
30348WAT      O91285   3.854   3.412   6.216
30348WAT     H191286   3.821   3.487   6.274
30348WAT     H291287   3.814   3.422   6.124
30349WAT      O91288   6.318   9.453   8.325
30349WAT     H191289   6.383   9.522   8.358
30349WAT     H291290   6.369   9.378   8.283
30350WAT      O91291   7.458   6.818   0.659
30350WAT     H191292   7.397   6.782   0.729
30350WAT     H291293   7.422   6.797   0.568
30351WAT      O91294   6.565   4.851   3.479
30351WAT     H191295   6.583   4.896   3.567
30351WAT     H291296   6.602   4.758   3.481
30352WAT      O91297   1.114   6.365   8.323
30352WAT     H191298   1.160   6.435   8.269
30352WAT     H291299   1.094   6.286   8.265
30353WAT      O91300   1.178   8.228   1.974
30353WAT     H191301   1.210   8.322   1.971
30353WAT     H291302   1.236   8.174   2.036
30354WAT      O91303   7.396   4.069   4.607
30354WAT     H191304   7.326   4.080   4.536
30354WAT     H291305   7.481   4.038   4.565
30355WAT      O91306   2.733   1.038   7.582
30355WAT     H191307   2.761   1.016   7.676
30355WAT     H291308   2.750   0.959   7.523
30356WAT      O91309   7.585   9.666   1.485
30356WAT     H191310   7.577   9.648   1.387
30356WAT     H291311   7.599   9.580   1.534
30357WAT      O91312   4.150   3.365   6.897
30357WAT     H191313   4.139   3.277   6.851
30357WAT     H291314   4.103   3.436   6.844
30358WAT      O91315   2.351   5.870   3.243
30358WAT     H191316   2.266   5.889   3.292
30358WAT     H291317   2.343   5.904   3.149
30359WAT      O91318   3.376   8.602   5.192
30359WAT     H191319   3.282   8.626   5.168
30359WAT     H291320   3.437   8.679   5.170
30360WAT      O91321   9.837   7.799   7.970
30360WAT     H191322   9.927   7.787   8.013
30360WAT     H291323   9.768   7.755   8.027
30361WAT      O91324   6.011   5.427   7.125
30361WAT     H191325   5.973   5.503   7.073
30361WAT     H291326   6.055   5.362   7.062
30362WAT      O91327   9.029   8.191   9.588
30362WAT     H191328   9.092   8.263   9.560
30362WAT     H291329   9.064   8.102   9.559
30363WAT      O91330   1.959   4.682   8.789
30363WAT     H191331   1.918   4.634   8.867
30363WAT     H291332   2.057   4.662   8.786
30364WAT      O91333   2.901   0.228   5.128
30364WAT     H191334   2.991   0.268   5.111
30364WAT     H291335   2.863   0.266   5.212
30365WAT      O91336   4.257   0.375   2.585
30365WAT     H191337   4.243   0.334   2.675
30365WAT     H291338   4.351   0.408   2.577
30366WAT      O91339   8.127   6.244   5.976
30366WAT     H191340   8.085   6.279   6.059
30366WAT     H291341   8.078   6.279   5.896
30367WAT      O91342   2.217   0.993   9.031
30367WAT     H191343   2.132   1.013   8.982
30367WAT     H291344   2.255   0.907   8.998
30368WAT      O91345   5.789   6.044   3.014
30368WAT     H191346   5.768   5.953   3.048
30368WAT     H291347   5.767   6.050   2.917
30369WAT      O91348   8.704   5.942   2.458
30369WAT     H191349   8.782   5.985   2.503
30369WAT     H291350   8.654   5.885   2.524
30370WAT      O91351   5.569   8.909   5.952
30370WAT     H191352   5.482   8.866   5.928
30370WAT     H291353   5.551   8.997   5.997
30371WAT      O91354   9.402   2.118   5.851
30371WAT     H191355   9.315   2.072   5.833
30371WAT     H291356   9.477   2.066   5.809
30372WAT      O91357   3.358   7.119   0.071
30372WAT     H191358   3.296   7.080   0.002
30372WAT     H291359   3.313   7.198   0.115
30373WAT      O91360   5.170   6.773   7.252
30373WAT     H191361   5.200   6.708   7.182
30373WAT     H291362   5.082   6.743   7.290
30374WAT      O91363   2.097   5.426   7.988
30374WAT     H191364   2.014   5.479   7.976
30374WAT     H291365   2.147   5.459   8.068
30375WAT      O91366   4.708   0.434   5.689
30375WAT     H191367   4.621   0.396   5.721
30375WAT     H291368   4.694   0.481   5.602
30376WAT      O91369   9.424   4.223   7.679
30376WAT     H191370   9.517   4.187   7.676
30376WAT     H291371   9.364   4.167   7.622
30377WAT      O91372   3.898   1.628   8.572
30377WAT     H191373   3.949   1.542   8.583
30377WAT     H291374   3.891   1.650   8.474
30378WAT      O91375   4.711   8.722   8.518
30378WAT     H191376   4.709   8.784   8.439
30378WAT     H291377   4.644   8.649   8.505
30379WAT      O91378   6.777   5.749   9.876
30379WAT     H191379   6.847   5.677   9.872
30379WAT     H291380   6.740   5.764   9.785
30380WAT      O91381   7.525   9.548   8.925
30380WAT     H191382   7.612   9.551   8.974
30380WAT     H291383   7.524   9.470   8.863
30381WAT      O91384   3.010   9.736   3.584
30381WAT     H191385   3.051   9.776   3.501
30381WAT     H291386   3.078   9.734   3.657
30382WAT      O91387   3.177   0.780   1.339
30382WAT     H191388   3.226   0.832   1.409
30382WAT     H291389   3.207   0.810   1.248
30383WAT      O91390   8.397   2.072   9.658
30383WAT     H191391   8.321   2.088   9.596
30383WAT     H291392   8.374   2.107   9.749
30384WAT      O91393   7.047   4.025   1.681
30384WAT     H191394   7.125   4.071   1.724
30384WAT     H291395   6.964   4.079   1.696
30385WAT      O91396   2.828   9.576   6.637
30385WAT     H191397   2.736   9.607   6.661
30385WAT     H291398   2.852   9.496   6.693
30386WAT      O91399   7.365   5.518   5.853
30386WAT     H191400   7.350   5.508   5.754
30386WAT     H291401   7.339   5.433   5.899
30387WAT      O91402   3.547   3.574   1.189
30387WAT     H191403   3.587   3.523   1.265
30387WAT     H291404   3.618   3.627   1.144
30388WAT      O91405   2.722   0.397   2.995
30388WAT     H191406   2.638   0.436   3.033
30388WAT     H291407   2.757   0.326   3.056
30389WAT      O91408   4.309   6.979   2.166
30389WAT     H191409   4.324   7.077   2.174
30389WAT     H291410   4.375   6.930   2.223
30390WAT      O91411   4.871   7.237   1.222
30390WAT     H191412   4.957   7.186   1.224
30390WAT     H291413   4.890   7.335   1.222
30391WAT      O91414   6.969   1.880   1.694
30391WAT     H191415   6.905   1.951   1.666
30391WAT     H291416   6.968   1.805   1.627
30392WAT      O91417   0.397   6.435   6.309
30392WAT     H191418   0.419   6.375   6.231
30392WAT     H291419   0.375   6.526   6.274
30393WAT      O91420   5.874   6.651   3.937
30393WAT     H191421   5.804   6.661   4.007
30393WAT     H291422   5.831   6.646   3.847
30394WAT      O91423   2.457   8.057   8.683
30394WAT     H191424   2.417   7.965   8.690
30394WAT     H291425   2.533   8.055   8.618
30395WAT      O91426   7.488   1.675   5.321
30395WAT     H191427   7.468   1.768   5.289
30395WAT     H291428   7.417   1.646   5.386
30396WAT      O91429   5.383   6.557   7.999
30396WAT     H191430   5.349   6.646   8.031
30396WAT     H291431   5.338   6.484   8.049
30397WAT      O91432   8.254   3.685   1.700
30397WAT     H191433   8.335   3.646   1.745
30397WAT     H291434   8.209   3.614   1.646
30398WAT      O91435   4.599   8.507   0.454
30398WAT     H191436   4.664   8.556   0.513
30398WAT     H291437   4.560   8.571   0.388
30399WAT      O91438   1.706   1.223   3.509
30399WAT     H191439   1.780   1.197   3.446
30399WAT     H291440   1.646   1.145   3.524
30400WAT      O91441   0.708   1.955   7.334
30400WAT     H191442   0.685   1.990   7.243
30400WAT     H291443   0.729   2.032   7.395
30401WAT      O91444   4.833   2.437   9.850
30401WAT     H191445   4.927   2.403   9.865
30401WAT     H291446   4.768   2.368   9.883
30402WAT      O91447   3.751   9.288   4.279
30402WAT     H191448   3.682   9.328   4.339
30402WAT     H291449   3.818   9.358   4.255
30403WAT      O91450   8.394   7.625   6.883
30403WAT     H191451   8.361   7.715   6.914
30403WAT     H291452   8.476   7.638   6.828
30404WAT      O91453   1.065   7.159   9.690
30404WAT     H191454   1.077   7.098   9.769
30404WAT     H291455   1.154   7.188   9.656
30405WAT      O91456   4.509   2.876   4.139
30405WAT     H191457   4.595   2.910   4.177
30405WAT     H291458   4.488   2.787   4.178
30406WAT      O91459   2.239   9.125   5.244
30406WAT     H191460   2.258   9.164   5.334
30406WAT     H291461   2.153   9.164   5.209
30407WAT      O91462   1.176   4.682   7.238
30407WAT     H191463   1.099   4.629   7.203
30407WAT     H291464   1.206   4.643   7.325
30408WAT      O91465   0.664   6.551   6.306
30408WAT     H191466   0.758   6.521   6.318
30408WAT     H291467   0.602   6.473   6.312
30409WAT      O91468   6.870   7.832   3.370
30409WAT     H191469   6.919   7.893   3.308
30409WAT     H291470   6.935   7.787   3.431
30410WAT      O91471   4.789   2.364   3.003
30410WAT     H191472   4.749   2.433   3.063
30410WAT     H291473   4.883   2.390   2.979
30411WAT      O91474   5.570   5.995   8.019
30411WAT     H191475   5.577   6.050   8.102
30411WAT     H291476   5.662   5.964   7.992
30412WAT      O91477   7.963   3.463   6.255
30412WAT     H191478   8.004   3.478   6.165
30412WAT     H291479   8.034   3.443   6.321
30413WAT      O91480   4.746   6.586   3.896
30413WAT     H191481   4.840   6.587   3.930
30413WAT     H291482   4.747   6.574   3.797
30414WAT      O91483   2.571   1.077   9.849
30414WAT     H191484   2.536   1.012   9.916
30414WAT     H291485   2.495   1.121   9.801
30415WAT      O91486   0.096   1.037   3.513
30415WAT     H191487   0.051   1.109   3.459
30415WAT     H291488   0.046   1.025   3.599
30416WAT      O91489   9.177   0.637   1.644
30416WAT     H191490   9.150   0.600   1.555
30416WAT     H291491   9.270   0.674   1.637
30417WAT      O91492   8.739   7.564   9.204
30417WAT     H191493   8.745   7.501   9.281
30417WAT     H291494   8.774   7.654   9.232
30418WAT      O91495   5.167   3.211   0.637
30418WAT     H191496   5.250   3.161   0.664
30418WAT     H291497   5.191   3.305   0.616
30419WAT      O91498   4.790   1.463   4.461
30419WAT     H191499   4.753   1.471   4.368
30419WAT     H291500   4.769   1.372   4.497
30420WAT      O91501   6.322   1.659   3.620
30420WAT     H191502   6.368   1.607   3.693
30420WAT     H291503   6.302   1.751   3.653
30421WAT      O91504   8.108   5.372   8.741
30421WAT     H191505   8.138   5.348   8.648
30421WAT     H291506   8.012   5.397   8.740
30422WAT      O91507   6.103   1.673   4.585
30422WAT     H191508   6.011   1.648   4.556
30422WAT     H291509   6.170   1.618   4.536
30423WAT      O91510   5.271   7.619   8.407
30423WAT     H191511   5.297   7.585   8.497
30423WAT     H291512   5.353   7.636   8.353
30424WAT      O91513   7.680   6.822   7.439
30424WAT     H191514   7.681   6.918   7.467
30424WAT     H291515   7.739   6.768   7.499
30425WAT      O91516   7.901   7.057   9.687
30425WAT     H191517   7.898   7.096   9.779
30425WAT     H291518   7.965   7.109   9.631
30426WAT      O91519   3.960   6.783   4.245
30426WAT     H191520   4.013   6.755   4.166
30426WAT     H291521   3.928   6.702   4.295
30427WAT      O91522   8.809   1.465   0.743
30427WAT     H191523   8.861   1.442   0.825
30427WAT     H291524   8.712   1.446   0.759
30428WAT      O91525   7.264   1.938   0.524
30428WAT     H191526   7.179   1.904   0.482
30428WAT     H291527   7.246   2.026   0.569
30429WAT      O91528   6.872   2.168   2.667
30429WAT     H191529   6.957   2.116   2.660
30429WAT     H291530   6.851   2.184   2.763
30430WAT      O91531   8.373   1.572   8.308
30430WAT     H191532   8.316   1.653   8.326
30430WAT     H291533   8.399   1.570   8.212
30431WAT      O91534   0.941   1.903   6.209
30431WAT     H191535   0.984   1.868   6.125
30431WAT     H291536   0.988   1.864   6.289
30432WAT      O91537   9.768   1.938   8.931
30432WAT     H191538   9.778   2.036   8.947
30432WAT     H291539   9.673   1.911   8.946
30433WAT      O91540   5.941   8.835   5.649
30433WAT     H191541   5.880   8.784   5.710
30433WAT     H291542   5.892   8.858   5.565
30434WAT      O91543   3.968   7.162   4.806
30434WAT     H191544   3.984   7.135   4.901
30434WAT     H291545   4.055   7.156   4.755
30435WAT      O91546   8.249   2.567   2.440
30435WAT     H191547   8.150   2.577   2.436
30435WAT     H291548   8.276   2.540   2.533
30436WAT      O91549   3.527   2.574   6.913
30436WAT     H191550   3.498   2.512   6.840
30436WAT     H291551   3.589   2.526   6.975
30437WAT      O91552   0.773   7.354   0.919
30437WAT     H191553   0.726   7.269   0.939
30437WAT     H291554   0.871   7.344   0.940
30438WAT      O91555   1.161   7.352   2.184
30438WAT     H191556   1.259   7.339   2.172
30438WAT     H291557   1.117   7.354   2.094
30439WAT      O91558   3.165   7.005   6.879
30439WAT     H191559   3.210   6.924   6.918
30439WAT     H291560   3.129   7.062   6.953
30440WAT      O91561   9.078   1.942   0.389
30440WAT     H191562   9.072   2.041   0.385
30440WAT     H291563   9.076   1.912   0.484
30441WAT      O91564   1.544   4.604   8.647
30441WAT     H191565   1.624   4.546   8.664
30441WAT     H291566   1.565   4.670   8.574
30442WAT      O91567   8.747   7.137   2.479
30442WAT     H191568   8.822   7.114   2.541
30442WAT     H291569   8.738   7.237   2.474
30443WAT      O91570   6.185   7.426   5.006
30443WAT     H191571   6.233   7.345   4.972
30443WAT     H291572   6.098   7.436   4.958
30444WAT      O91573   2.189   2.935   3.430
30444WAT     H191574   2.282   2.903   3.411
30444WAT     H291575   2.180   3.030   3.401
30445WAT      O91576   5.020   2.704   8.760
30445WAT     H191577   4.928   2.745   8.767
30445WAT     H291578   5.023   2.620   8.813
30446WAT      O91579   6.742   4.996   4.878
30446WAT     H191580   6.810   4.923   4.884
30446WAT     H291581   6.781   5.074   4.827
30447WAT      O91582   7.814   8.901   6.594
30447WAT     H191583   7.842   8.810   6.562
30447WAT     H291584   7.719   8.918   6.567
30448WAT      O91585   6.388   5.213   5.791
30448WAT     H191586   6.317   5.164   5.739
30448WAT     H291587   6.437   5.275   5.731
30449WAT      O91588   4.601   3.710   0.982
30449WAT     H191589   4.674   3.778   0.979
30449WAT     H291590   4.525   3.745   1.037
30450WAT      O91591   5.087   7.058   2.505
30450WAT     H191592   5.003   7.022   2.466
30450WAT     H291593   5.146   6.982   2.532
30451WAT      O91594   4.057   9.696   0.194
30451WAT     H191595   4.004   9.676   0.276
30451WAT     H291596   4.150   9.661   0.205
30452WAT      O91597   3.406   6.397   0.585
30452WAT     H191598   3.482   6.347   0.545
30452WAT     H291599   3.434   6.491   0.606
30453WAT      O91600   3.449   2.380   1.532
30453WAT     H191601   3.431   2.352   1.626
30453WAT     H291602   3.547   2.373   1.513
30454WAT      O91603   7.019   8.186   2.478
30454WAT     H191604   7.011   8.152   2.385
30454WAT     H291605   7.003   8.285   2.479
30455WAT      O91606   4.236   4.698   5.748
30455WAT     H191607   4.316   4.639   5.738
30455WAT     H291608   4.221   4.749   5.663
30456WAT      O91609   8.082   9.330   6.153
30456WAT     H191610   8.022   9.405   6.182
30456WAT     H291611   8.027   9.250   6.131
30457WAT      O91612   6.208   0.664   9.133
30457WAT     H191613   6.124   0.689   9.181
30457WAT     H291614   6.255   0.591   9.183
30458WAT      O91615   3.089   3.666   9.422
30458WAT     H191616   2.998   3.626   9.417
30458WAT     H291617   3.144   3.633   9.345
30459WAT      O91618   4.850   4.972   7.533
30459WAT     H191619   4.942   5.009   7.544
30459WAT     H291620   4.811   4.950   7.622
30460WAT      O91621   6.527   0.126   5.743
30460WAT     H191622   6.619   0.100   5.713
30460WAT     H291623   6.459   0.077   5.687
30461WAT      O91624   9.425   0.604   3.880
30461WAT     H191625   9.486   0.593   3.959
30461WAT     H291626   9.439   0.693   3.838
30462WAT      O91627   3.956   3.682   3.347
30462WAT     H191628   3.995   3.715   3.261
30462WAT     H291629   3.987   3.739   3.422
30463WAT      O91630   1.278   3.580   9.753
30463WAT     H191631   1.283   3.484   9.780
30463WAT     H291632   1.223   3.631   9.819
30464WAT      O91633   3.424   9.574   1.737
30464WAT     H191634   3.358   9.500   1.752
30464WAT     H291635   3.381   9.645   1.682
30465WAT      O91636   1.463   0.917   0.242
30465WAT     H191637   1.466   0.917   0.342
30465WAT     H291638   1.548   0.878   0.207
30466WAT      O91639   5.122   9.612   7.248
30466WAT     H191640   5.127   9.579   7.154
30466WAT     H291641   5.124   9.712   7.249
30467WAT      O91642   6.684   0.770   9.561
30467WAT     H191643   6.770   0.732   9.526
30467WAT     H291644   6.625   0.796   9.485
30468WAT      O91645   8.782   0.815   8.520
30468WAT     H191646   8.696   0.860   8.545
30468WAT     H291647   8.848   0.884   8.491
30469WAT      O91648   9.739   1.937   1.937
30469WAT     H191649   9.692   1.910   2.021
30469WAT     H291650   9.770   1.855   1.888
30470WAT      O91651   0.131   4.345   0.602
30470WAT     H191652   0.132   4.445   0.607
30470WAT     H291653   0.191   4.307   0.673
30471WAT      O91654   0.959   4.042   8.286
30471WAT     H191655   0.973   4.012   8.380
30471WAT     H291656   1.046   4.037   8.236
30472WAT      O91657   8.318   7.451   6.162
30472WAT     H191658   8.378   7.477   6.087
30472WAT     H291659   8.253   7.382   6.130
30473WAT      O91660   4.589   4.106   3.647
30473WAT     H191661   4.569   4.044   3.724
30473WAT     H291662   4.515   4.173   3.638
30474WAT      O91663   5.783   2.148   5.504
30474WAT     H191664   5.779   2.192   5.414
30474WAT     H291665   5.694   2.109   5.526
30475WAT      O91666   7.724   7.030   0.065
30475WAT     H191667   7.791   6.970   0.020
30475WAT     H291668   7.632   6.991   0.054
30476WAT      O91669   9.424   5.295   9.638
30476WAT     H191670   9.417   5.265   9.734
30476WAT     H291671   9.518   5.324   9.620
30477WAT      O91672   2.270   3.927   7.024
30477WAT     H191673   2.335   3.989   7.068
30477WAT     H291674   2.313   3.885   6.945
30478WAT      O91675   7.635   5.273   9.065
30478WAT     H191676   7.647   5.364   9.105
30478WAT     H291677   7.654   5.276   8.967
30479WAT      O91678   8.072   2.906   1.428
30479WAT     H191679   7.997   2.953   1.474
30479WAT     H291680   8.088   2.947   1.338
30480WAT      O91681   5.945   3.401   0.305
30480WAT     H191682   6.030   3.373   0.351
30480WAT     H291683   5.924   3.495   0.329
30481WAT      O91684   1.806   0.561   4.152
30481WAT     H191685   1.737   0.626   4.182
30481WAT     H291686   1.858   0.529   4.231
30482WAT      O91687   9.614   8.410   4.448
30482WAT     H191688   9.661   8.372   4.369
30482WAT     H291689   9.679   8.464   4.502
30483WAT      O91690   7.836   1.207   9.281
30483WAT     H191691   7.915   1.268   9.273
30483WAT     H291692   7.753   1.254   9.251
30484WAT      O91693   6.974   7.055   5.520
30484WAT     H191694   6.890   7.048   5.466
30484WAT     H291695   6.958   7.019   5.612
30485WAT      O91696   3.688   0.164   7.165
30485WAT     H191697   3.594   0.199   7.175
30485WAT     H291698   3.704   0.094   7.234
30486WAT      O91699   5.564   2.615   8.196
30486WAT     H191700   5.498   2.651   8.263
30486WAT     H291701   5.657   2.636   8.227
30487WAT      O91702   8.740   2.163   7.329
30487WAT     H191703   8.818   2.219   7.300
30487WAT     H291704   8.767   2.106   7.408
30488WAT      O91705   6.197   9.784   5.645
30488WAT     H191706   6.212   9.756   5.550
30488WAT     H291707   6.250   9.726   5.706
30489WAT      O91708   0.435   4.418   4.205
30489WAT     H191709   0.462   4.369   4.121
30489WAT     H291710   0.427   4.354   4.280
30490WAT      O91711   5.194   7.423   3.089
30490WAT     H191712   5.202   7.337   3.140
30490WAT     H291713   5.121   7.478   3.128
30491WAT      O91714   3.450   4.733   4.879
30491WAT     H191715   3.454   4.739   4.780
30491WAT     H291716   3.371   4.784   4.913
30492WAT      O91717   9.452   8.379   9.683
30492WAT     H191718   9.525   8.370   9.616
30492WAT     H291719   9.472   8.456   9.744
30493WAT      O91720   3.443   8.469   7.890
30493WAT     H191721   3.385   8.526   7.949
30493WAT     H291722   3.466   8.385   7.938
30494WAT      O91723   0.788   9.581   8.203
30494WAT     H191724   0.879   9.584   8.246
30494WAT     H291725   0.769   9.669   8.160
30495WAT      O91726   2.033   9.264   7.936
30495WAT     H191727   2.061   9.343   7.882
30495WAT     H291728   2.067   9.273   8.029
30496WAT      O91729   8.912   6.753   4.831
30496WAT     H191730   8.967   6.675   4.800
30496WAT     H291731   8.969   6.835   4.835
30497WAT      O91732   2.310   2.934   2.442
30497WAT     H191733   2.402   2.947   2.478
30497WAT     H291734   2.263   2.863   2.495
30498WAT      O91735   9.162   0.048   6.521
30498WAT     H191736   9.197  -0.021   6.457
30498WAT     H291737   9.077   0.086   6.484
30499WAT      O91738   7.354   7.592   3.834
30499WAT     H191739   7.315   7.513   3.881
30499WAT     H291740   7.392   7.656   3.901
30500WAT      O91741   6.710   2.439   1.449
30500WAT     H191742   6.644   2.460   1.377
30500WAT     H291743   6.759   2.523   1.473
30501WAT      O91744   3.825   8.757   8.575
30501WAT     H191745   3.829   8.842   8.628
30501WAT     H291746   3.884   8.766   8.494
30502WAT      O91747   5.396   1.397   7.661
30502WAT     H191748   5.422   1.320   7.602
30502WAT     H291749   5.312   1.438   7.625
30503WAT      O91750   6.736   2.554   8.219
30503WAT     H191751   6.787   2.468   8.220
30503WAT     H291752   6.684   2.560   8.134
30504WAT      O91753   2.099   4.601   0.350
30504WAT     H191754   2.036   4.673   0.320
30504WAT     H291755   2.193   4.634   0.338
30505WAT      O91756   7.193   5.950   4.487
30505WAT     H191757   7.134   6.002   4.549
30505WAT     H291758   7.251   6.013   4.435
30506WAT      O91759   1.087   0.483   4.681
30506WAT     H191760   1.127   0.428   4.755
30506WAT     H291761   0.998   0.518   4.711
30507WAT      O91762   3.102   0.791   2.868
30507WAT     H191763   3.032   0.724   2.892
30507WAT     H291764   3.079   0.879   2.909
30508WAT      O91765   5.739   0.080   0.902
30508WAT     H191766   5.661   0.027   0.935
30508WAT     H291767   5.792   0.113   0.980
30509WAT      O91768   1.028   0.642   5.848
30509WAT     H191769   1.096   0.572   5.872
30509WAT     H291770   1.023   0.710   5.922
30510WAT      O91771   9.139   2.172   5.086
30510WAT     H191772   9.236   2.182   5.109
30510WAT     H291773   9.098   2.104   5.148
30511WAT      O91774   0.595   3.525   4.356
30511WAT     H191775   0.499   3.534   4.381
30511WAT     H291776   0.611   3.572   4.268
30512WAT      O91777   4.017   2.050   3.055
30512WAT     H191778   3.962   2.005   3.125
30512WAT     H291779   4.114   2.041   3.077
30513WAT      O91780   0.705   6.437   4.880
30513WAT     H191781   0.700   6.472   4.974
30513WAT     H291782   0.643   6.490   4.822
30514WAT      O91783   8.151   7.198   1.799
30514WAT     H191784   8.135   7.289   1.837
30514WAT     H291785   8.208   7.205   1.718
30515WAT      O91786   6.771   2.814   8.658
30515WAT     H191787   6.753   2.903   8.615
30515WAT     H291788   6.794   2.747   8.588
30516WAT      O91789   8.373   8.806   2.195
30516WAT     H191790   8.275   8.787   2.188
30516WAT     H291791   8.391   8.901   2.170
30517WAT      O91792   3.072   2.888   0.617
30517WAT     H191793   3.079   2.864   0.714
30517WAT     H291794   3.044   2.984   0.610
30518WAT      O91795   1.850   9.560   2.849
30518WAT     H191796   1.866   9.516   2.761
30518WAT     H291797   1.757   9.597   2.852
30519WAT      O91798   7.639   1.044   0.303
30519WAT     H191799   7.545   1.075   0.289
30519WAT     H291800   7.687   1.107   0.364
30520WAT      O91801   1.568   3.186   2.754
30520WAT     H191802   1.570   3.237   2.840
30520WAT     H291803   1.550   3.089   2.773
30521WAT      O91804   1.054   2.522   4.621
30521WAT     H191805   1.128   2.506   4.554
30521WAT     H291806   1.023   2.616   4.614
30522WAT      O91807   3.325   7.262   7.378
30522WAT     H191808   3.369   7.293   7.462
30522WAT     H291809   3.349   7.324   7.303
30523WAT      O91810   5.001   6.521   7.066
30523WAT     H191811   4.930   6.590   7.049
30523WAT     H291812   5.091   6.566   7.066
30524WAT      O91813   3.755   0.143   6.892
30524WAT     H191814   3.738   0.129   6.990
30524WAT     H291815   3.850   0.170   6.878
30525WAT      O91816   8.398   8.703   8.823
30525WAT     H191817   8.487   8.733   8.858
30525WAT     H291818   8.409   8.615   8.775
30526WAT      O91819   2.196   7.408   6.729
30526WAT     H191820   2.251   7.489   6.750
30526WAT     H291821   2.159   7.416   6.636
30527WAT      O91822   1.890   2.448   5.003
30527WAT     H191823   1.807   2.409   4.962
30527WAT     H291824   1.958   2.463   4.931
30528WAT      O91825   6.428   1.499   6.635
30528WAT     H191826   6.491   1.442   6.582
30528WAT     H291827   6.346   1.519   6.581
30529WAT      O91828   5.331   2.696   8.296
30529WAT     H191829   5.352   2.692   8.393
30529WAT     H291830   5.236   2.722   8.283
30530WAT      O91831   8.772   0.782   5.908
30530WAT     H191832   8.797   0.852   5.975
30530WAT     H291833   8.700   0.818   5.848
30531WAT      O91834   1.569   7.281   8.317
30531WAT     H191835   1.471   7.284   8.339
30531WAT     H291836   1.581   7.250   8.223
30532WAT      O91837   3.576   5.708   3.022
30532WAT     H191838   3.489   5.751   2.997
30532WAT     H291839   3.594   5.631   2.960
30533WAT      O91840   7.405   6.192   6.529
30533WAT     H191841   7.374   6.106   6.487
30533WAT     H291842   7.368   6.198   6.622
30534WAT      O91843   4.588   0.119   0.059
30534WAT     H191844   4.652   0.144   0.131
30534WAT     H291845   4.507   0.076   0.099
30535WAT      O91846   1.962   9.291   3.943
30535WAT     H191847   1.935   9.219   4.008
30535WAT     H291848   1.976   9.251   3.853
30536WAT      O91849   7.922   4.635   1.480
30536WAT     H191850   7.872   4.568   1.424
30536WAT     H291851   7.858   4.703   1.516
30537WAT      O91852   6.575   7.695   7.406
30537WAT     H191853   6.634   7.716   7.484
30537WAT     H291854   6.482   7.727   7.424
30538WAT      O91855   6.074   9.083   5.390
30538WAT     H191856   6.160   9.073   5.441
30538WAT     H291857   6.000   9.039   5.441
30539WAT      O91858   3.745   7.029   2.784
30539WAT     H191859   3.713   7.032   2.690
30539WAT     H291860   3.763   6.934   2.810
30540WAT      O91861   2.038   0.744   5.656
30540WAT     H191862   1.982   0.811   5.606
30540WAT     H291863   2.090   0.689   5.592
30541WAT      O91864   5.472   0.971   5.293
30541WAT     H191865   5.463   1.069   5.311
30541WAT     H291866   5.386   0.926   5.317
30542WAT      O91867   8.283   7.639   0.569
30542WAT     H191868   8.324   7.724   0.535
30542WAT     H291869   8.247   7.587   0.492
30543WAT      O91870   1.833   4.559   9.003
30543WAT     H191871   1.885   4.543   9.086
30543WAT     H291872   1.762   4.627   9.020
30544WAT      O91873   3.463   1.052   8.132
30544WAT     H191874   3.477   0.958   8.102
30544WAT     H291875   3.377   1.087   8.095
30545WAT      O91876   9.120   6.449   1.206
30545WAT     H191877   9.107   6.543   1.178
30545WAT     H291878   9.035   6.413   1.246
30546WAT      O91879   4.504   0.189   2.436
30546WAT     H191880   4.457   0.171   2.349
30546WAT     H291881   4.500   0.287   2.456
30547WAT      O91882   2.328   2.913   8.494
30547WAT     H191883   2.253   2.847   8.498
30547WAT     H291884   2.298   3.000   8.532
30548WAT      O91885   3.713   5.538   5.071
30548WAT     H191886   3.651   5.615   5.055
30548WAT     H291887   3.663   5.463   5.114
30549WAT      O91888   8.476   5.527   5.923
30549WAT     H191889   8.426   5.608   5.956
30549WAT     H291890   8.420   5.446   5.939
30550WAT      O91891   6.062   2.382   2.238
30550WAT     H191892   5.989   2.341   2.292
30550WAT     H291893   6.029   2.404   2.146
30551WAT      O91894   8.037   3.583   6.610
30551WAT     H191895   7.947   3.563   6.573
30551WAT     H291896   8.052   3.682   6.608
30552WAT      O91897   3.661   8.257   8.018
30552WAT     H191898   3.661   8.234   8.115
30552WAT     H291899   3.583   8.214   7.973
30553WAT      O91900   8.354   5.712   9.891
30553WAT     H191901   8.257   5.712   9.867
30553WAT     H291902   8.390   5.805   9.883
30554WAT      O91903   3.315   7.900   6.315
30554WAT     H191904   3.327   7.810   6.357
30554WAT     H291905   3.282   7.889   6.222
30555WAT      O91906   1.624   1.117   0.808
30555WAT     H191907   1.584   1.032   0.840
30555WAT     H291908   1.583   1.194   0.857
30556WAT      O91909   0.747   3.549   1.347
30556WAT     H191910   0.790   3.467   1.308
30556WAT     H291911   0.679   3.585   1.283
30557WAT      O91912   9.721   0.907   4.561
30557WAT     H191913   9.708   0.863   4.650
30557WAT     H291914   9.716   0.838   4.488
30558WAT      O91915   8.798   6.151   6.946
30558WAT     H191916   8.792   6.051   6.941
30558WAT     H291917   8.882   6.177   6.995
30559WAT      O91918   5.392   7.011   4.318
30559WAT     H191919   5.337   6.965   4.388
30559WAT     H291920   5.485   7.023   4.352
30560WAT      O91921   5.806   2.181   0.727
30560WAT     H191922   5.756   2.250   0.779
30560WAT     H291923   5.820   2.213   0.633
30561WAT      O91924   2.597   2.256   0.011
30561WAT     H191925   2.560   2.267   0.103
30561WAT     H291926   2.660   2.178   0.010
30562WAT      O91927   5.152   8.750   3.304
30562WAT     H191928   5.107   8.775   3.390
30562WAT     H291929   5.118   8.661   3.274
30563WAT      O91930   6.044   4.361   7.371
30563WAT     H191931   6.090   4.272   7.372
30563WAT     H291932   6.111   4.432   7.348
30564WAT      O91933   7.841   3.600   8.494
30564WAT     H191934   7.914   3.630   8.555
30564WAT     H291935   7.786   3.678   8.467
30565WAT      O91936   3.544   7.794   6.147
30565WAT     H191937   3.506   7.780   6.055
30565WAT     H291938   3.586   7.884   6.151
30566WAT      O91939   6.182   4.202   8.758
30566WAT     H191940   6.263   4.261   8.760
30566WAT     H291941   6.129   4.217   8.842
30567WAT      O91942   9.877   5.655   6.932
30567WAT     H191943   9.929   5.575   6.960
30567WAT     H291944   9.921   5.737   6.969
30568WAT      O91945   5.228   4.284   2.282
30568WAT     H191946   5.244   4.382   2.294
30568WAT     H291947   5.167   4.270   2.203
30569WAT      O91948   3.461   9.512   5.768
30569WAT     H191949   3.466   9.577   5.692
30569WAT     H291950   3.525   9.540   5.839
30570WAT      O91951   3.277   1.433   6.913
30570WAT     H191952   3.204   1.490   6.951
30570WAT     H291953   3.281   1.346   6.964
30571WAT      O91954   9.678   3.124   6.955
30571WAT     H191955   9.665   3.073   7.040
30571WAT     H291956   9.644   3.218   6.966
30572WAT      O91957   3.144   5.372   6.416
30572WAT     H191958   3.202   5.453   6.409
30572WAT     H291959   3.050   5.397   6.394
30573WAT      O91960   0.256   4.164   1.479
30573WAT     H191961   0.355   4.160   1.488
30573WAT     H291962   0.220   4.073   1.459
30574WAT      O91963   1.717   1.563   6.043
30574WAT     H191964   1.734   1.555   6.141
30574WAT     H291965   1.793   1.611   5.999
30575WAT      O91966   6.096   0.272   0.273
30575WAT     H191967   6.113   0.357   0.223
30575WAT     H291968   6.030   0.217   0.223
30576WAT      O91969   7.634   7.849   2.629
30576WAT     H191970   7.679   7.937   2.646
30576WAT     H291971   7.536   7.857   2.643
30577WAT      O91972   0.274   9.070   1.025
30577WAT     H191973   0.281   9.167   1.048
30577WAT     H291974   0.323   9.016   1.093
30578WAT      O91975   1.449   8.582   7.198
30578WAT     H191976   1.547   8.569   7.182
30578WAT     H291977   1.432   8.676   7.230
30579WAT      O91978   1.975   5.247   4.025
30579WAT     H191979   1.985   5.209   3.933
30579WAT     H291980   1.979   5.174   4.092
30580WAT      O91981   0.114   6.891   5.110
30580WAT     H191982   0.089   6.961   5.177
30580WAT     H291983   0.197   6.920   5.061
30581WAT      O91984   4.389   1.258   1.796
30581WAT     H191985   4.450   1.180   1.785
30581WAT     H291986   4.322   1.258   1.722
30582WAT      O91987   3.529   4.999   3.876
30582WAT     H191988   3.560   4.950   3.958
30582WAT     H291989   3.429   4.999   3.874
30583WAT      O91990   2.198   6.954   7.296
30583WAT     H191991   2.247   7.035   7.264
30583WAT     H291992   2.100   6.972   7.297
30584WAT      O91993   5.307   3.225   5.216
30584WAT     H191994   5.301   3.128   5.240
30584WAT     H291995   5.216   3.258   5.190
30585WAT      O91996   1.431   6.361   5.745
30585WAT     H191997   1.477   6.353   5.833
30585WAT     H291998   1.497   6.340   5.672
30586WAT      O91999   9.659   7.786   2.397
30586WAT     H192000   9.680   7.794   2.300
30586WAT     H292001   9.669   7.690   2.426
30587WAT      O92002   5.564   9.207   7.911
30587WAT     H192003   5.659   9.229   7.890
30587WAT     H292004   5.531   9.137   7.847
30588WAT      O92005   5.274   9.741   2.869
30588WAT     H192006   5.233   9.757   2.959
30588WAT     H292007   5.291   9.830   2.825
30589WAT      O92008   5.548   8.672   2.965
30589WAT     H192009   5.470   8.618   2.996
30589WAT     H292010   5.571   8.648   2.871
30590WAT      O92011   5.147   7.571   4.494
30590WAT     H192012   5.079   7.607   4.558
30590WAT     H292013   5.133   7.611   4.404
30591WAT      O92014   7.416   3.617   3.330
30591WAT     H192015   7.394   3.691   3.266
30591WAT     H292016   7.458   3.656   3.412
30592WAT      O92017   4.256   3.313   3.496
30592WAT     H192018   4.257   3.278   3.402
30592WAT     H292019   4.349   3.335   3.525
30593WAT      O92020   7.134   9.740   5.196
30593WAT     H192021   7.139   9.705   5.103
30593WAT     H292022   7.223   9.731   5.240
30594WAT      O92023   8.522   8.425   7.318
30594WAT     H192024   8.526   8.500   7.383
30594WAT     H292025   8.428   8.391   7.312
30595WAT      O92026   1.537   1.918   3.712
30595WAT     H192027   1.486   1.923   3.797
30595WAT     H292028   1.576   1.826   3.702
30596WAT      O92029   4.350   9.273   6.790
30596WAT     H192030   4.278   9.265   6.722
30596WAT     H292031   4.403   9.357   6.773
30597WAT      O92032   6.136   2.564   7.951
30597WAT     H192033   6.211   2.623   7.981
30597WAT     H292034   6.171   2.494   7.889
30598WAT      O92035   3.258   2.826   0.136
30598WAT     H192036   3.168   2.803   0.100
30598WAT     H292037   3.254   2.831   0.236
30599WAT      O92038   0.814   9.139   0.619
30599WAT     H192039   0.893   9.082   0.598
30599WAT     H292040   0.822   9.173   0.713
30600WAT      O92041   1.309   8.799   3.133
30600WAT     H192042   1.264   8.710   3.137
30600WAT     H292043   1.376   8.806   3.206
30601WAT      O92044   9.877   9.278   5.022
30601WAT     H192045   9.947   9.216   4.987
30601WAT     H292046   9.875   9.361   4.967
30602WAT      O92047   5.154   1.609   8.768
30602WAT     H192048   5.173   1.511   8.780
30602WAT     H292049   5.235   1.662   8.793
30603WAT      O92050   6.441   6.403   7.036
30603WAT     H192051   6.459   6.356   6.949
30603WAT     H292052   6.370   6.472   7.022
30604WAT      O92053   9.179   0.393   0.793
30604WAT     H192054   9.135   0.353   0.713
30604WAT     H292055   9.110   0.438   0.850
30605WAT      O92056   5.675   5.714   3.371
30605WAT     H192057   5.584   5.748   3.393
30605WAT     H292058   5.671   5.615   3.356
30606WAT      O92059   7.819   5.827   0.288
30606WAT     H192060   7.806   5.902   0.353
30606WAT     H292061   7.883   5.856   0.216
30607WAT      O92062   0.459   4.985   3.249
30607WAT     H192063   0.427   4.911   3.307
30607WAT     H292064   0.431   5.073   3.288
30608WAT      O92065   9.338   0.160   4.691
30608WAT     H192066   9.249   0.173   4.735
30608WAT     H292067   9.404   0.222   4.733
30609WAT      O92068   6.182   8.233   0.538
30609WAT     H192069   6.186   8.227   0.637
30609WAT     H292070   6.238   8.310   0.506
30610WAT      O92071   2.756   9.763   7.356
30610WAT     H192072   2.730   9.787   7.262
30610WAT     H292073   2.701   9.686   7.387
30611WAT      O92074   6.442   1.691   5.852
30611WAT     H192075   6.456   1.597   5.823
30611WAT     H292076   6.425   1.748   5.772
30612WAT      O92077   4.408   6.260   4.582
30612WAT     H192078   4.345   6.335   4.562
30612WAT     H292079   4.420   6.252   4.681
30613WAT      O92080   3.191   6.834   9.575
30613WAT     H192081   3.129   6.892   9.523
30613WAT     H292082   3.279   6.827   9.526
30614WAT      O92083   0.013   0.581   7.367
30614WAT     H192084   0.070   0.652   7.327
30614WAT     H292085   0.033   0.574   7.465
30615WAT      O92086   9.581   8.789   6.973
30615WAT     H192087   9.605   8.809   6.878
30615WAT     H292088   9.663   8.798   7.030
30616WAT      O92089   8.814   0.803   6.377
30616WAT     H192090   8.773   0.890   6.349
30616WAT     H292091   8.781   0.730   6.317
30617WAT      O92092   2.875   8.358   5.774
30617WAT     H192093   2.972   8.353   5.751
30617WAT     H292094   2.826   8.405   5.701
30618WAT      O92095   2.243   7.314   7.570
30618WAT     H192096   2.191   7.236   7.605
30618WAT     H292097   2.200   7.399   7.602
30619WAT      O92098   4.509   3.313   7.583
30619WAT     H192099   4.454   3.316   7.666
30619WAT     H292100   4.587   3.376   7.592
30620WAT      O92101   7.020   5.038   0.096
30620WAT     H192102   6.960   5.011   0.021
30620WAT     H292103   6.984   5.003   0.183
30621WAT      O92104   7.538   6.016   5.914
30621WAT     H192105   7.496   6.037   5.825
30621WAT     H292106   7.616   6.076   5.928
30622WAT      O92107   3.299   9.292   1.761
30622WAT     H192108   3.384   9.254   1.725
30622WAT     H292109   3.223   9.267   1.701
30623WAT      O92110   6.334   2.557   3.876
30623WAT     H192111   6.424   2.595   3.856
30623WAT     H292112   6.309   2.579   3.971
30624WAT      O92113   7.281   1.277   4.963
30624WAT     H192114   7.225   1.240   5.037
30624WAT     H292115   7.265   1.225   4.879
30625WAT      O92116   6.228   5.586   7.605
30625WAT     H192117   6.315   5.576   7.557
30625WAT     H292118   6.152   5.580   7.540
30626WAT      O92119   8.374   7.504   8.508
30626WAT     H192120   8.431   7.585   8.492
30626WAT     H292121   8.407   7.428   8.453
30627WAT      O92122   3.606   8.818   3.148
30627WAT     H192123   3.595   8.768   3.062
30627WAT     H292124   3.689   8.786   3.194
30628WAT      O92125   2.796   2.377   3.912
30628WAT     H192126   2.751   2.291   3.937
30628WAT     H292127   2.875   2.392   3.972
30629WAT      O92128   0.821   9.412   6.142
30629WAT     H192129   0.904   9.458   6.108
30629WAT     H292130   0.789   9.459   6.224
30630WAT      O92131   0.218   1.618   5.225
30630WAT     H192132   0.129   1.579   5.248
30630WAT     H292133   0.276   1.548   5.183
30631WAT      O92134   3.495   8.500   6.570
30631WAT     H192135   3.480   8.461   6.479
30631WAT     H292136   3.532   8.430   6.630
30632WAT      O92137   8.709   4.849   8.488
30632WAT     H192138   8.749   4.782   8.550
30632WAT     H292139   8.762   4.934   8.492
30633WAT      O92140   3.453   6.838   2.768
30633WAT     H192141   3.549   6.813   2.778
30633WAT     H292142   3.444   6.938   2.765
30634WAT      O92143   4.356   6.437   1.761
30634WAT     H192144   4.335   6.349   1.804
30634WAT     H292145   4.421   6.423   1.687
30635WAT      O92146   1.936   2.281   3.542
30635WAT     H192147   1.970   2.351   3.606
30635WAT     H292148   1.948   2.191   3.582
30636WAT      O92149   1.581   8.809   9.679
30636WAT     H192150   1.679   8.804   9.659
30636WAT     H292151   1.563   8.888   9.738
30637WAT      O92152   8.160   4.492   5.485
30637WAT     H192153   8.224   4.441   5.427
30637WAT     H292154   8.119   4.430   5.552
30638WAT      O92155   4.487   6.987   7.344
30638WAT     H192156   4.487   7.087   7.353
30638WAT     H292157   4.430   6.947   7.415
30639WAT      O92158   9.029   9.827   6.781
30639WAT     H192159   9.083   9.848   6.700
30639WAT     H292160   9.050   9.894   6.853
30640WAT      O92161   8.681   3.733   3.305
30640WAT     H192162   8.598   3.771   3.265
30640WAT     H292163   8.745   3.709   3.232
30641WAT      O92164   3.227   6.474   3.641
30641WAT     H192165   3.172   6.471   3.725
30641WAT     H292166   3.310   6.420   3.653
30642WAT      O92167   9.005   8.218   1.013
30642WAT     H192168   8.944   8.169   0.951
30642WAT     H292169   8.954   8.291   1.058
30643WAT      O92170   3.923   3.165   8.441
30643WAT     H192171   3.912   3.226   8.362
30643WAT     H292172   3.917   3.219   8.525
30644WAT      O92173   5.000   2.318   3.963
30644WAT     H192174   4.961   2.410   3.971
30644WAT     H292175   5.100   2.324   3.963
30645WAT      O92176   6.260   1.286   3.169
30645WAT     H192177   6.340   1.251   3.121
30645WAT     H292178   6.259   1.252   3.262
30646WAT      O92179   0.739   1.566   1.758
30646WAT     H192180   0.774   1.477   1.730
30646WAT     H292181   0.644   1.557   1.788
30647WAT      O92182   3.312   3.601   6.509
30647WAT     H192183   3.289   3.507   6.535
30647WAT     H292184   3.285   3.663   6.582
30648WAT      O92185   0.712   0.253   8.379
30648WAT     H192186   0.804   0.242   8.415
30648WAT     H292187   0.649   0.194   8.430
30649WAT      O92188   2.371   1.024   6.471
30649WAT     H192189   2.412   1.094   6.413
30649WAT     H292190   2.394   0.934   6.435
30650WAT      O92191   7.094   7.623   0.656
30650WAT     H192192   7.181   7.654   0.694
30650WAT     H292193   7.057   7.695   0.597
30651WAT      O92194   4.952   2.959   6.458
30651WAT     H192195   5.052   2.946   6.458
30651WAT     H292196   4.927   3.020   6.384
30652WAT      O92197   8.626   2.979   4.535
30652WAT     H192198   8.559   2.928   4.481
30652WAT     H292199   8.705   2.920   4.553
30653WAT      O92200   5.451   4.081   4.989
30653WAT     H192201   5.466   3.983   4.975
30653WAT     H292202   5.455   4.128   4.900
30654WAT      O92203   8.096   3.536   7.800
30654WAT     H192204   8.014   3.496   7.758
30654WAT     H292205   8.069   3.607   7.865
30655WAT      O92206   7.365   7.544   8.849
30655WAT     H192207   7.278   7.580   8.815
30655WAT     H292208   7.355   7.448   8.872
30656WAT      O92209   1.089   5.451   1.483
30656WAT     H192210   1.085   5.485   1.389
30656WAT     H292211   1.098   5.528   1.546
30657WAT      O92212   5.870   3.227   0.668
30657WAT     H192213   5.921   3.313   0.671
30657WAT     H292214   5.872   3.191   0.575
30658WAT      O92215   6.779   1.922   7.188
30658WAT     H192216   6.789   1.900   7.285
30658WAT     H292217   6.812   2.015   7.171
30659WAT      O92218   0.240   5.199   4.108
30659WAT     H192219   0.304   5.173   4.035
30659WAT     H292220   0.234   5.124   4.174
30660WAT      O92221   9.012   0.713   0.132
30660WAT     H192222   8.956   0.781   0.086
30660WAT     H292223   9.022   0.633   0.073
30661WAT      O92224   6.161   0.585   0.213
30661WAT     H192225   6.122   0.565   0.304
30661WAT     H292226   6.106   0.654   0.168
30662WAT      O92227   1.342   7.434   2.838
30662WAT     H192228   1.396   7.483   2.906
30662WAT     H292229   1.377   7.454   2.747
30663WAT      O92230   3.159   5.577   8.950
30663WAT     H192231   3.205   5.666   8.949
30663WAT     H292232   3.107   5.566   8.866
30664WAT      O92233   9.218   4.853   5.474
30664WAT     H192234   9.309   4.894   5.462
30664WAT     H292235   9.228   4.761   5.510
30665WAT      O92236   9.128   9.195   2.492
30665WAT     H192237   9.117   9.135   2.571
30665WAT     H292238   9.040   9.238   2.470
30666WAT      O92239   0.415   5.674   3.381
30666WAT     H192240   0.397   5.770   3.401
30666WAT     H292241   0.444   5.664   3.286
30667WAT      O92242   4.159   0.352   1.549
30667WAT     H192243   4.246   0.390   1.582
30667WAT     H292244   4.132   0.276   1.608
30668WAT      O92245   5.120   8.425   4.672
30668WAT     H192246   5.174   8.501   4.708
30668WAT     H292247   5.170   8.340   4.683
30669WAT      O92248   5.069   3.484   0.215
30669WAT     H192249   5.092   3.454   0.122
30669WAT     H292250   5.109   3.422   0.282
30670WAT      O92251   5.999   6.478   3.342
30670WAT     H192252   5.968   6.542   3.412
30670WAT     H292253   5.942   6.395   3.344
30671WAT      O92254   0.894   8.799   8.934
30671WAT     H192255   0.829   8.869   8.965
30671WAT     H292256   0.912   8.735   9.009
30672WAT      O92257   4.545   8.972   0.610
30672WAT     H192258   4.601   8.993   0.690
30672WAT     H292259   4.479   9.046   0.595
30673WAT      O92260   8.706   3.380   7.547
30673WAT     H192261   8.795   3.415   7.576
30673WAT     H292262   8.718   3.292   7.501
30674WAT      O92263   1.609   6.523   3.437
30674WAT     H192264   1.562   6.533   3.349
30674WAT     H292265   1.543   6.495   3.507
30675WAT      O92266   1.015   1.856   0.532
30675WAT     H192267   0.963   1.888   0.453
30675WAT     H292268   1.096   1.914   0.544
30676WAT      O92269   8.379   9.387   7.166
30676WAT     H192270   8.369   9.486   7.157
30676WAT     H292271   8.407   9.348   7.078
30677WAT      O92272   4.725   7.211   8.015
30677WAT     H192273   4.806   7.173   7.971
30677WAT     H292274   4.728   7.311   8.009
30678WAT      O92275   4.750   6.769   4.293
30678WAT     H192276   4.689   6.701   4.333
30678WAT     H292277   4.716   6.794   4.202
30679WAT      O92278   2.999   6.497   7.710
30679WAT     H192279   2.946   6.570   7.754
30679WAT     H292280   3.001   6.417   7.770
30680WAT      O92281   8.005   7.678   9.285
30680WAT     H192282   8.066   7.617   9.235
30680WAT     H292283   7.938   7.624   9.337
30681WAT      O92284   9.771   0.375   9.170
30681WAT     H192285   9.855   0.421   9.142
30681WAT     H292286   9.792   0.301   9.234
30682WAT      O92287   0.256   1.458   1.251
30682WAT     H192288   0.248   1.545   1.202
30682WAT     H292289   0.353   1.433   1.258
30683WAT      O92290   3.508   4.150   4.922
30683WAT     H192291   3.592   4.107   4.888
30683WAT     H292292   3.497   4.131   5.019
30684WAT      O92293   1.388   0.582   4.157
30684WAT     H192294   1.391   0.625   4.066
30684WAT     H292295   1.294   0.558   4.180
30685WAT      O92296   4.828   0.290   2.645
30685WAT     H192297   4.833   0.248   2.735
30685WAT     H292298   4.771   0.372   2.650
30686WAT      O92299   2.475   7.355   5.925
30686WAT     H192300   2.401   7.370   5.990
30686WAT     H292301   2.462   7.267   5.879
30687WAT      O92302   3.840   8.220   0.418
30687WAT     H192303   3.940   8.222   0.412
30687WAT     H292304   3.801   8.254   0.332
30688WAT      O92305   1.741   2.410   6.717
30688WAT     H192306   1.753   2.380   6.623
30688WAT     H292307   1.645   2.404   6.742
30689WAT      O92308   6.777   6.676   4.305
30689WAT     H192309   6.716   6.725   4.242
30689WAT     H292310   6.812   6.594   4.260
30690WAT      O92311   6.489   8.258   9.142
30690WAT     H192312   6.580   8.285   9.110
30690WAT     H292313   6.471   8.303   9.230
30691WAT      O92314   9.098   9.735   5.913
30691WAT     H192315   9.128   9.830   5.910
30691WAT     H292316   9.054   9.711   5.827
30692WAT      O92317   3.722   8.540   8.703
30692WAT     H192318   3.758   8.473   8.638
30692WAT     H292319   3.764   8.629   8.684
30693WAT      O92320   3.055   3.964   1.106
30693WAT     H192321   2.991   3.930   1.037
30693WAT     H292322   3.025   3.934   1.197
30694WAT      O92323   6.090   8.673   9.531
30694WAT     H192324   6.179   8.718   9.530
30694WAT     H292325   6.077   8.627   9.619
30695WAT      O92326   1.815   1.058   7.890
30695WAT     H192327   1.791   1.069   7.793
30695WAT     H292328   1.914   1.067   7.901
30696WAT      O92329   0.651   3.481   7.714
30696WAT     H192330   0.588   3.552   7.683
30696WAT     H292331   0.664   3.487   7.813
30697WAT      O92332   0.418   7.559   4.223
30697WAT     H192333   0.408   7.562   4.124
30697WAT     H292334   0.349   7.619   4.266
30698WAT      O92335   1.714   0.048   0.056
30698WAT     H192336   1.618   0.023   0.045
30698WAT     H292337   1.765  -0.030   0.092
30699WAT      O92338   1.796   2.363   6.446
30699WAT     H192339   1.852   2.327   6.371
30699WAT     H292340   1.711   2.401   6.409
30700WAT      O92341   9.451   8.431   0.842
30700WAT     H192342   9.387   8.434   0.765
30700WAT     H292343   9.406   8.468   0.923
30701WAT      O92344   2.128   5.952   7.208
30701WAT     H192345   2.164   5.976   7.299
30701WAT     H292346   2.126   6.034   7.151
30702WAT      O92347   2.680   5.508   9.787
30702WAT     H192348   2.775   5.521   9.757
30702WAT     H292349   2.631   5.454   9.720
30703WAT      O92350   1.814   3.554   2.137
30703WAT     H192351   1.863   3.597   2.061
30703WAT     H292352   1.862   3.574   2.222
30704WAT      O92353   9.329   0.377   2.797
30704WAT     H192354   9.403   0.331   2.747
30704WAT     H292355   9.338   0.356   2.894
30705WAT      O92356   9.185   5.466   8.344
30705WAT     H192357   9.175   5.367   8.336
30705WAT     H292358   9.253   5.499   8.279
30706WAT      O92359   2.529   0.580   3.748
30706WAT     H192360   2.451   0.638   3.723
30706WAT     H292361   2.591   0.631   3.807
30707WAT      O92362   9.341   4.386   9.475
30707WAT     H192363   9.370   4.313   9.413
30707WAT     H292364   9.422   4.435   9.508
30708WAT      O92365   0.440   2.587   0.874
30708WAT     H192366   0.404   2.555   0.786
30708WAT     H292367   0.516   2.528   0.902
30709WAT      O92368   6.542   8.558   2.607
30709WAT     H192369   6.542   8.468   2.651
30709WAT     H292370   6.517   8.548   2.510
30710WAT      O92371   8.724   1.407   3.921
30710WAT     H192372   8.688   1.500   3.915
30710WAT     H292373   8.806   1.407   3.979
30711WAT      O92374   4.989   6.915   5.169
30711WAT     H192375   4.961   6.819   5.176
30711WAT     H292376   4.991   6.956   5.260
30712WAT      O92377   5.264   2.196   5.075
30712WAT     H192378   5.289   2.222   4.981
30712WAT     H292379   5.248   2.279   5.129
30713WAT      O92380   7.556   1.348   3.004
30713WAT     H192381   7.642   1.298   3.015
30713WAT     H292382   7.576   1.444   2.987
30714WAT      O92383   8.911   8.781   4.385
30714WAT     H192384   8.849   8.710   4.352
30714WAT     H292385   8.868   8.870   4.378
30715WAT      O92386   0.067   6.698   3.102
30715WAT     H192387  -0.005   6.655   3.048
30715WAT     H292388   0.078   6.793   3.072
30716WAT      O92389   0.174   1.442   0.247
30716WAT     H192390   0.115   1.523   0.250
30716WAT     H292391   0.195   1.413   0.340
30717WAT      O92392   6.857   7.521   4.903
30717WAT     H192393   6.948   7.491   4.933
30717WAT     H292394   6.803   7.549   4.982
30718WAT      O92395   3.842   5.271   9.013
30718WAT     H192396   3.937   5.296   8.996
30718WAT     H292397   3.810   5.211   8.940
30719WAT      O92398   1.190   6.983   2.606
30719WAT     H192399   1.182   7.025   2.696
30719WAT     H292400   1.110   7.007   2.551
30720WAT      O92401   1.261   1.364   6.576
30720WAT     H192402   1.304   1.419   6.647
30720WAT     H292403   1.325   1.295   6.543
30721WAT      O92404   8.150   5.235   6.181
30721WAT     H192405   8.176   5.163   6.117
30721WAT     H292406   8.055   5.262   6.163
30722WAT      O92407   1.168   8.389   8.857
30722WAT     H192408   1.199   8.453   8.786
30722WAT     H292409   1.069   8.379   8.851
30723WAT      O92410   3.660   2.753   7.097
30723WAT     H192411   3.699   2.845   7.088
30723WAT     H292412   3.597   2.736   7.021
30724WAT      O92413   2.058   0.022   7.270
30724WAT     H192414   2.154  -0.003   7.264
30724WAT     H292415   2.004  -0.059   7.293
30725WAT      O92416   9.653   7.751   0.135
30725WAT     H192417   9.565   7.711   0.111
30725WAT     H292418   9.684   7.810   0.060
30726WAT      O92419   1.962   8.259   5.688
30726WAT     H192420   2.008   8.307   5.762
30726WAT     H292421   2.030   8.227   5.622
30727WAT      O92422   4.075   7.461   6.032
30727WAT     H192423   4.076   7.441   6.130
30727WAT     H292424   4.166   7.490   6.003
30728WAT      O92425   1.139   1.162   0.136
30728WAT     H192426   1.124   1.063   0.137
30728WAT     H292427   1.236   1.181   0.123
30729WAT      O92428   6.852   7.251   5.955
30729WAT     H192429   6.924   7.300   6.004
30729WAT     H292430   6.867   7.153   5.963
30730WAT      O92431   4.933   8.551   3.586
30730WAT     H192432   4.979   8.520   3.670
30730WAT     H292433   4.940   8.480   3.516
30731WAT      O92434   5.123   5.008   4.636
30731WAT     H192435   5.181   5.067   4.692
30731WAT     H292436   5.047   5.062   4.599
30732WAT      O92437   7.220   3.587   5.669
30732WAT     H192438   7.195   3.641   5.749
30732WAT     H292439   7.319   3.588   5.657
30733WAT      O92440   7.005   2.945   7.444
30733WAT     H192441   7.084   2.956   7.504
30733WAT     H292442   6.933   3.010   7.473
30734WAT      O92443   6.953   7.958   9.546
30734WAT     H192444   6.925   7.943   9.451
30734WAT     H292445   6.888   8.018   9.591
30735WAT      O92446   0.994   6.589   2.960
30735WAT     H192447   0.951   6.678   2.972
30735WAT     H292448   0.963   6.527   3.033
30736WAT      O92449   5.104   3.374   8.007
30736WAT     H192450   5.102   3.319   8.090
30736WAT     H292451   5.197   3.406   7.990
30737WAT      O92452   7.573   0.307   3.431
30737WAT     H192453   7.620   0.306   3.343
30737WAT     H292454   7.573   0.214   3.469
30738WAT      O92455   8.075   1.752   7.590
30738WAT     H192456   8.069   1.730   7.492
30738WAT     H292457   8.016   1.831   7.609
30739WAT      O92458   0.705   3.736   5.384
30739WAT     H192459   0.700   3.815   5.323
30739WAT     H292460   0.717   3.653   5.330
30740WAT      O92461   5.456   5.822   2.965
30740WAT     H192462   5.496   5.740   2.924
30740WAT     H292463   5.358   5.807   2.978
30741WAT      O92464   5.063   1.332   1.112
30741WAT     H192465   5.150   1.374   1.138
30741WAT     H292466   5.070   1.296   1.019
30742WAT      O92467   5.513   4.190   4.746
30742WAT     H192468   5.604   4.193   4.786
30742WAT     H292469   5.503   4.265   4.680
30743WAT      O92470   0.961   2.427   6.266
30743WAT     H192471   0.957   2.484   6.184
30743WAT     H292472   1.043   2.370   6.263
30744WAT      O92473   1.656   0.048   0.378
30744WAT     H192474   1.705  -0.037   0.399
30744WAT     H292475   1.570   0.050   0.429
30745WAT      O92476   1.975   9.053   2.442
30745WAT     H192477   2.025   9.083   2.524
30745WAT     H292478   1.941   9.134   2.393
30746WAT      O92479   5.790   8.929   9.746
30746WAT     H192480   5.835   9.018   9.751
30746WAT     H292481   5.765   8.910   9.651
30747WAT      O92482   3.827   3.957   3.524
30747WAT     H192483   3.840   4.030   3.456
30747WAT     H292484   3.915   3.916   3.546
30748WAT      O92485   7.124   9.002   1.130
30748WAT     H192486   7.199   8.958   1.082
30748WAT     H292487   7.151   9.022   1.224
30749WAT      O92488   3.982   7.385   6.291
30749WAT     H192489   4.001   7.292   6.323
30749WAT     H292490   3.883   7.398   6.287
30750WAT      O92491   9.567   1.122   2.557
30750WAT     H192492   9.637   1.170   2.610
30750WAT     H292493   9.478   1.137   2.598
30751WAT      O92494   3.691   1.856   2.658
30751WAT     H192495   3.652   1.765   2.647
30751WAT     H292496   3.772   1.865   2.601
30752WAT      O92497   4.017   5.577   4.013
30752WAT     H192498   4.020   5.515   3.934
30752WAT     H292499   4.036   5.670   3.982
30753WAT      O92500   9.173   2.808   5.939
30753WAT     H192501   9.090   2.754   5.950
30753WAT     H292502   9.227   2.773   5.863
30754WAT      O92503   7.954   0.558   3.410
30754WAT     H192504   7.982   0.644   3.454
30754WAT     H292505   7.923   0.577   3.317
30755WAT      O92506   5.794   3.302   9.705
30755WAT     H192507   5.832   3.345   9.787
30755WAT     H292508   5.719   3.357   9.669
30756WAT      O92509   3.415   6.152   2.872
30756WAT     H192510   3.339   6.098   2.837
30756WAT     H292511   3.499   6.128   2.822
30757WAT      O92512   4.558   6.419   5.007
30757WAT     H192513   4.578   6.496   4.946
30757WAT     H292514   4.627   6.415   5.079
30758WAT      O92515   3.892   8.984   6.623
30758WAT     H192516   3.971   8.981   6.684
30758WAT     H292517   3.922   8.974   6.528
30759WAT      O92518   9.522   4.504   1.821
30759WAT     H192519   9.463   4.425   1.839
30759WAT     H292520   9.618   4.477   1.832
30760WAT      O92521   7.786   1.137   8.229
30760WAT     H192522   7.810   1.199   8.304
30760WAT     H292523   7.845   1.056   8.233
30761WAT      O92524   0.638   8.472   4.945
30761WAT     H192525   0.736   8.475   4.962
30761WAT     H292526   0.597   8.560   4.970
30762WAT      O92527   0.912   8.274   1.686
30762WAT     H192528   0.858   8.239   1.609
30762WAT     H292529   0.959   8.357   1.658
30763WAT      O92530   2.547   2.160   0.615
30763WAT     H192531   2.503   2.231   0.560
30763WAT     H292532   2.638   2.193   0.643
30764WAT      O92533   3.552   5.022   8.010
30764WAT     H192534   3.490   4.950   7.981
30764WAT     H292535   3.634   5.020   7.953
30765WAT      O92536   4.487   5.122   9.863
30765WAT     H192537   4.538   5.059   9.922
30765WAT     H292538   4.430   5.181   9.919
30766WAT      O92539   2.768   8.363   2.716
30766WAT     H192540   2.845   8.427   2.708
30766WAT     H292541   2.802   8.273   2.742
30767WAT      O92542   1.426   0.641   9.014
30767WAT     H192543   1.351   0.575   9.002
30767WAT     H292544   1.506   0.609   8.962
30768WAT      O92545   9.389   0.746   8.941
30768WAT     H192546   9.309   0.761   8.883
30768WAT     H292547   9.373   0.786   9.031
30769WAT      O92548   1.465   2.292   7.102
30769WAT     H192549   1.491   2.273   7.007
30769WAT     H292550   1.450   2.391   7.114
30770WAT      O92551   1.892   8.168   5.288
30770WAT     H192552   1.974   8.172   5.344
30770WAT     H292553   1.905   8.102   5.214
30771WAT      O92554   1.148   3.528   1.277
30771WAT     H192555   1.138   3.463   1.353
30771WAT     H292556   1.211   3.601   1.304
30772WAT      O92557   6.715   3.699   2.701
30772WAT     H192558   6.786   3.712   2.771
30772WAT     H292559   6.665   3.614   2.720
30773WAT      O92560   1.763   0.874   1.872
30773WAT     H192561   1.703   0.932   1.929
30773WAT     H292562   1.848   0.855   1.922
30774WAT      O92563   0.933   2.961   5.122
30774WAT     H192564   0.880   2.962   5.037
30774WAT     H292565   1.030   2.965   5.101
30775WAT      O92566   2.253   2.587   6.722
30775WAT     H192567   2.192   2.515   6.757
30775WAT     H292568   2.315   2.548   6.654
30776WAT      O92569   8.593   4.253   1.581
30776WAT     H192570   8.653   4.188   1.533
30776WAT     H292571   8.565   4.324   1.517
30777WAT      O92572   9.879   5.334   0.195
30777WAT     H192573   9.796   5.390   0.202
30777WAT     H292574   9.894   5.286   0.282
30778WAT      O92575   7.608   4.616   5.325
30778WAT     H192576   7.638   4.547   5.260
30778WAT     H292577   7.670   4.616   5.404
30779WAT      O92578   1.360   8.528   7.464
30779WAT     H192579   1.372   8.537   7.365
30779WAT     H292580   1.380   8.617   7.507
30780WAT      O92581   2.922   6.070   6.727
30780WAT     H192582   2.875   6.158   6.728
30780WAT     H292583   3.021   6.085   6.737
30781WAT      O92584   5.106   1.308   4.443
30781WAT     H192585   5.108   1.408   4.456
30781WAT     H292586   5.170   1.265   4.506
30782WAT      O92587   7.770   0.105   5.724
30782WAT     H192588   7.805   0.090   5.816
30782WAT     H292589   7.705   0.033   5.700
30783WAT      O92590   4.209   9.435   1.619
30783WAT     H192591   4.230   9.337   1.622
30783WAT     H292592   4.113   9.449   1.644
30784WAT      O92593   9.217   6.724   0.464
30784WAT     H192594   9.287   6.741   0.395
30784WAT     H292595   9.231   6.785   0.542
30785WAT      O92596   0.266   1.089   8.311
30785WAT     H192597   0.314   1.004   8.330
30785WAT     H292598   0.294   1.124   8.221
30786WAT      O92599   8.534   1.867   9.578
30786WAT     H192600   8.487   1.943   9.623
30786WAT     H292601   8.495   1.852   9.488
30787WAT      O92602   0.158   2.283   9.777
30787WAT     H192603   0.143   2.208   9.712
30787WAT     H292604   0.145   2.250   9.870
30788WAT      O92605   4.471   1.252   6.741
30788WAT     H192606   4.467   1.224   6.645
30788WAT     H292607   4.510   1.178   6.795
30789WAT      O92608   0.622   6.671   5.813
30789WAT     H192609   0.692   6.682   5.884
30789WAT     H292610   0.653   6.604   5.745
30790WAT      O92611   7.383   3.221   7.642
30790WAT     H192612   7.452   3.293   7.638
30790WAT     H292613   7.343   3.207   7.552
30791WAT      O92614   8.162   8.617   1.208
30791WAT     H192615   8.100   8.658   1.141
30791WAT     H292616   8.199   8.532   1.172
30792WAT      O92617   9.225   4.742   7.282
30792WAT     H192618   9.132   4.709   7.269
30792WAT     H292619   9.267   4.695   7.360
30793WAT      O92620   4.341   2.138   4.455
30793WAT     H192621   4.298   2.211   4.508
30793WAT     H292622   4.288   2.121   4.372
30794WAT      O92623   0.326   3.572   8.103
30794WAT     H192624   0.400   3.621   8.149
30794WAT     H292625   0.239   3.617   8.121
30795WAT      O92626   5.688   3.716   8.902
30795WAT     H192627   5.787   3.702   8.901
30795WAT     H292628   5.642   3.628   8.914
30796WAT      O92629   5.598   6.699   3.510
30796WAT     H192630   5.610   6.774   3.446
30796WAT     H292631   5.673   6.633   3.499
30797WAT      O92632   1.418   2.935   9.752
30797WAT     H192633   1.411   2.910   9.655
30797WAT     H292634   1.506   2.978   9.769
30798WAT      O92635   2.094   7.948   8.689
30798WAT     H192636   2.075   7.987   8.779
30798WAT     H292637   2.058   7.855   8.685
30799WAT      O92638   8.963   5.296   3.535
30799WAT     H192639   9.006   5.229   3.596
30799WAT     H292640   9.003   5.289   3.444
30800WAT      O92641   6.953   2.003   5.059
30800WAT     H192642   6.966   2.064   4.980
30800WAT     H292643   6.889   1.931   5.034
30801WAT      O92644   0.224   9.636   5.730
30801WAT     H192645   0.269   9.725   5.743
30801WAT     H292646   0.259   9.594   5.647
30802WAT      O92647   9.027   2.887   4.765
30802WAT     H192648   8.972   2.919   4.843
30802WAT     H292649   9.009   2.945   4.686
30803WAT      O92650   7.660   0.855   5.468
30803WAT     H192651   7.751   0.896   5.473
30803WAT     H292652   7.591   0.927   5.459
30804WAT      O92653   0.651   3.188   9.150
30804WAT     H192654   0.594   3.168   9.230
30804WAT     H292655   0.664   3.104   9.096
30805WAT      O92656   3.993   7.500   4.818
30805WAT     H192657   4.030   7.588   4.847
30805WAT     H292658   4.041   7.468   4.737
30806WAT      O92659   4.219   9.511   3.731
30806WAT     H192660   4.148   9.447   3.760
30806WAT     H292661   4.190   9.558   3.648
30807WAT      O92662   2.954   1.868   3.763
30807WAT     H192663   3.045   1.897   3.795
30807WAT     H292664   2.887   1.885   3.836
30808WAT      O92665   0.117   7.580   4.390
30808WAT     H192666   0.129   7.649   4.319
30808WAT     H292667   0.035   7.526   4.371
30809WAT      O92668   0.977   1.063   1.698
30809WAT     H192669   0.945   1.000   1.770
30809WAT     H292670   1.059   1.110   1.730
30810WAT      O92671   2.607   5.846   6.485
30810WAT     H192672   2.550   5.925   6.508
30810WAT     H292673   2.549   5.764   6.481
30811WAT      O92674   6.990   9.079   7.885
30811WAT     H192675   6.939   9.165   7.889
30811WAT     H292676   7.013   9.059   7.790
30812WAT      O92677   2.491   3.860   7.752
30812WAT     H192678   2.423   3.925   7.787
30812WAT     H292679   2.563   3.847   7.819
30813WAT      O92680   6.912   1.324   4.465
30813WAT     H192681   6.841   1.385   4.430
30813WAT     H292682   6.898   1.232   4.427
30814WAT      O92683   5.613   5.489   9.236
30814WAT     H192684   5.525   5.490   9.284
30814WAT     H292685   5.686   5.470   9.302
30815WAT      O92686   6.185   3.845   3.173
30815WAT     H192687   6.125   3.909   3.222
30815WAT     H292688   6.145   3.754   3.175
30816WAT      O92689   8.934   9.292   1.190
30816WAT     H192690   9.000   9.275   1.264
30816WAT     H292691   8.845   9.254   1.214
30817WAT      O92692   4.340   1.738   2.437
30817WAT     H192693   4.376   1.645   2.448
30817WAT     H292694   4.290   1.744   2.350
30818WAT      O92695   8.764   4.352   7.664
30818WAT     H192696   8.698   4.409   7.713
30818WAT     H292697   8.756   4.257   7.697
30819WAT      O92698   3.517   7.699   7.943
30819WAT     H192699   3.510   7.659   7.852
30819WAT     H292700   3.551   7.630   8.007
30820WAT      O92701   8.462   5.485   8.665
30820WAT     H192702   8.447   5.391   8.635
30820WAT     H292703   8.496   5.485   8.759
30821WAT      O92704   8.723   6.133   8.338
30821WAT     H192705   8.821   6.145   8.319
30821WAT     H292706   8.671   6.204   8.291
30822WAT      O92707   6.985   6.174   1.868
30822WAT     H192708   6.892   6.195   1.899
30822WAT     H292709   7.040   6.146   1.946
30823WAT      O92710   0.738   0.110   2.615
30823WAT     H192711   0.769   0.126   2.709
30823WAT     H292712   0.692   0.191   2.580
30824WAT      O92713   0.178   5.468   1.204
30824WAT     H192714   0.122   5.550   1.191
30824WAT     H292715   0.274   5.495   1.212
30825WAT      O92716   9.310   3.875   8.586
30825WAT     H192717   9.342   3.790   8.543
30825WAT     H292718   9.290   3.942   8.515
30826WAT      O92719   1.392   7.290   6.534
30826WAT     H192720   1.492   7.285   6.533
30826WAT     H292721   1.360   7.320   6.444
30827WAT      O92722   6.307   7.684   3.848
30827WAT     H192723   6.376   7.756   3.840
30827WAT     H292724   6.329   7.609   3.786
30828WAT      O92725   5.822   5.316   4.175
30828WAT     H192726   5.785   5.285   4.263
30828WAT     H292727   5.825   5.416   4.174
30829WAT      O92728   6.499   8.410   3.681
30829WAT     H192729   6.462   8.459   3.601
30829WAT     H292730   6.493   8.312   3.665
30830WAT      O92731   4.490   3.600   0.400
30830WAT     H192732   4.505   3.589   0.302
30830WAT     H292733   4.441   3.685   0.418
30831WAT      O92734   0.267   4.665   2.893
30831WAT     H192735   0.241   4.640   2.800
30831WAT     H292736   0.366   4.653   2.905
30832WAT      O92737   3.661   8.129   7.318
30832WAT     H192738   3.707   8.175   7.394
30832WAT     H292739   3.636   8.196   7.248
30833WAT      O92740   4.310   3.829   7.994
30833WAT     H192741   4.316   3.910   7.935
30833WAT     H292742   4.226   3.833   8.048
30834WAT      O92743   1.086   8.114   0.341
30834WAT     H192744   1.092   8.069   0.251
30834WAT     H292745   1.043   8.204   0.331
30835WAT      O92746   3.777   2.621   1.695
30835WAT     H192747   3.783   2.566   1.778
30835WAT     H292748   3.708   2.692   1.707
30836WAT      O92749   7.761   4.194   0.776
30836WAT     H192750   7.783   4.290   0.796
30836WAT     H292751   7.686   4.191   0.709
30837WAT      O92752   5.672   3.573   1.025
30837WAT     H192753   5.692   3.475   1.020
30837WAT     H292754   5.671   3.602   1.121
30838WAT      O92755   4.865   2.322   4.621
30838WAT     H192756   4.904   2.316   4.530
30838WAT     H292757   4.801   2.399   4.626
30839WAT      O92758   2.400   5.519   6.098
30839WAT     H192759   2.324   5.584   6.107
30839WAT     H292760   2.445   5.508   6.187
30840WAT      O92761   1.088   9.600   8.268
30840WAT     H192762   1.100   9.583   8.170
30840WAT     H292763   1.142   9.534   8.320
30841WAT      O92764   9.103   0.237   7.337
30841WAT     H192765   9.110   0.337   7.339
30841WAT     H292766   9.010   0.210   7.313
30842WAT      O92767   4.385   5.044   9.211
30842WAT     H192768   4.433   4.959   9.189
30842WAT     H292769   4.425   5.120   9.159
30843WAT      O92770   7.111   8.201   3.026
30843WAT     H192771   7.090   8.290   3.068
30843WAT     H292772   7.210   8.192   3.015
30844WAT      O92773   0.719   4.699   9.686
30844WAT     H192774   0.712   4.684   9.785
30844WAT     H292775   0.656   4.771   9.659
30845WAT      O92776   5.362   1.148   8.614
30845WAT     H192777   5.309   1.090   8.676
30845WAT     H292778   5.455   1.112   8.606
30846WAT      O92779   1.240   1.863   9.029
30846WAT     H192780   1.238   1.888   8.932
30846WAT     H292781   1.316   1.911   9.074
30847WAT      O92782   6.771   1.727   8.895
30847WAT     H192783   6.804   1.822   8.895
30847WAT     H292784   6.823   1.674   8.828
30848WAT      O92785   7.184   1.018   7.792
30848WAT     H192786   7.165   0.977   7.702
30848WAT     H292787   7.275   0.990   7.822
30849WAT      O92788   2.204   3.118   8.599
30849WAT     H192789   2.228   3.191   8.663
30849WAT     H292790   2.105   3.112   8.590
30850WAT      O92791   2.535   8.121   6.145
30850WAT     H192792   2.574   8.058   6.078
30850WAT     H292793   2.607   8.153   6.207
30851WAT      O92794   2.526   0.540   3.151
30851WAT     H192795   2.598   0.601   3.117
30851WAT     H292796   2.441   0.561   3.103
30852WAT      O92797   9.010   8.615   9.638
30852WAT     H192798   8.991   8.704   9.597
30852WAT     H292799   8.938   8.593   9.704
30853WAT      O92800   8.991   1.592   2.637
30853WAT     H192801   9.024   1.679   2.600
30853WAT     H292802   8.891   1.590   2.632
30854WAT      O92803   0.366   8.238   6.160
30854WAT     H192804   0.332   8.264   6.250
30854WAT     H292805   0.460   8.273   6.149
30855WAT      O92806   7.036   6.094   4.678
30855WAT     H192807   6.957   6.053   4.725
30855WAT     H292808   7.082   6.157   4.739
30856WAT      O92809   0.114   1.703   9.725
30856WAT     H192810   0.097   1.606   9.744
30856WAT     H292811   0.210   1.724   9.740
30857WAT      O92812   8.322   2.433   1.138
30857WAT     H192813   8.277   2.473   1.058
30857WAT     H292814   8.258   2.370   1.184
30858WAT      O92815   8.346   6.764   7.463
30858WAT     H192816   8.436   6.790   7.499
30858WAT     H292817   8.352   6.754   7.364
30859WAT      O92818   1.601   2.599   8.951
30859WAT     H192819   1.605   2.699   8.955
30859WAT     H292820   1.658   2.566   8.876
30860WAT      O92821   8.411   7.677   4.477
30860WAT     H192822   8.431   7.674   4.575
30860WAT     H292823   8.367   7.592   4.449
30861WAT      O92824   6.781   3.354   8.847
30861WAT     H192825   6.868   3.390   8.815
30861WAT     H292826   6.797   3.271   8.901
30862WAT      O92827   3.393   8.836   1.795
30862WAT     H192828   3.336   8.856   1.716
30862WAT     H292829   3.389   8.738   1.815
30863WAT      O92830   1.617   7.182   1.727
30863WAT     H192831   1.686   7.121   1.768
30863WAT     H292832   1.545   7.201   1.794
30864WAT      O92833   2.977   3.358   6.067
30864WAT     H192834   3.034   3.370   6.149
30864WAT     H292835   2.890   3.405   6.081
30865WAT      O92836   7.354   9.533   1.077
30865WAT     H192837   7.257   9.511   1.081
30865WAT     H292838   7.367   9.629   1.099
30866WAT      O92839   2.363   2.660   8.920
30866WAT     H192840   2.288   2.600   8.893
30866WAT     H292841   2.448   2.629   8.877
30867WAT      O92842   3.338   4.604   7.106
30867WAT     H192843   3.245   4.620   7.074
30867WAT     H292844   3.340   4.527   7.170
30868WAT      O92845   8.297   3.484   5.126
30868WAT     H192846   8.272   3.430   5.206
30868WAT     H292847   8.397   3.487   5.117
30869WAT      O92848   5.676   9.285   1.206
30869WAT     H192849   5.661   9.292   1.107
30869WAT     H292850   5.596   9.241   1.248
30870WAT      O92851   4.264   7.951   6.685
30870WAT     H192852   4.173   7.991   6.698
30870WAT     H292853   4.274   7.870   6.743
30871WAT      O92854   3.773   4.967   0.577
30871WAT     H192855   3.779   4.991   0.674
30871WAT     H292856   3.840   5.019   0.525
30872WAT      O92857   4.353   0.887   7.992
30872WAT     H192858   4.310   0.904   7.903
30872WAT     H292859   4.445   0.927   7.992
30873WAT      O92860   3.088   4.951   3.636
30873WAT     H192861   3.161   5.009   3.673
30873WAT     H292862   3.054   4.891   3.708
30874WAT      O92863   7.957   0.803   7.070
30874WAT     H192864   7.995   0.853   7.148
30874WAT     H292865   7.861   0.829   7.057
30875WAT      O92866   8.612   3.443   2.096
30875WAT     H192867   8.560   3.358   2.084
30875WAT     H292868   8.552   3.513   2.135
30876WAT      O92869   0.515   8.032   2.953
30876WAT     H192870   0.484   8.041   3.048
30876WAT     H292871   0.613   8.011   2.952
30877WAT      O92872   2.558   3.492   3.369
30877WAT     H192873   2.602   3.523   3.285
30877WAT     H292874   2.603   3.533   3.448
30878WAT      O92875   2.964   0.361   1.129
30878WAT     H192876   3.013   0.412   1.200
30878WAT     H292877   2.962   0.414   1.044
30879WAT      O92878   1.570   1.438   5.837
30879WAT     H192879   1.623   1.483   5.908
30879WAT     H292880   1.487   1.490   5.818
30880WAT      O92881   3.813   1.175   9.472
30880WAT     H192882   3.730   1.232   9.477
30880WAT     H292883   3.787   1.079   9.476
30881WAT      O92884   8.342   3.342   5.396
30881WAT     H192885   8.415   3.402   5.430
30881WAT     H292886   8.338   3.259   5.453
30882WAT      O92887   2.865   6.337   5.484
30882WAT     H192888   2.887   6.398   5.561
30882WAT     H292889   2.925   6.358   5.407
30883WAT      O92890   5.788   8.000   7.265
30883WAT     H192891   5.773   7.905   7.294
30883WAT     H292892   5.722   8.023   7.193
30884WAT      O92893   6.264   7.656   4.856
30884WAT     H192894   6.247   7.578   4.917
30884WAT     H292895   6.177   7.689   4.820
30885WAT      O92896   8.992   7.860   0.854
30885WAT     H192897   9.024   7.774   0.895
30885WAT     H292898   8.919   7.899   0.910
30886WAT      O92899   5.736   2.341   5.240
30886WAT     H192900   5.684   2.369   5.159
30886WAT     H292901   5.791   2.418   5.273
30887WAT      O92902   2.507   2.644   9.888
30887WAT     H192903   2.511   2.724   9.948
30887WAT     H292904   2.444   2.662   9.813
30888WAT      O92905   2.781   9.266   7.350
30888WAT     H192906   2.846   9.341   7.363
30888WAT     H292907   2.812   9.186   7.401
30889WAT      O92908   1.437   8.281   8.037
30889WAT     H192909   1.355   8.224   8.043
30889WAT     H292910   1.517   8.223   8.024
30890WAT      O92911   1.595   3.850   4.686
30890WAT     H192912   1.677   3.861   4.630
30890WAT     H292913   1.535   3.929   4.675
30891WAT      O92914   3.823   4.308   4.255
30891WAT     H192915   3.909   4.358   4.256
30891WAT     H292916   3.840   4.213   4.229
30892WAT      O92917   4.317   2.186   8.899
30892WAT     H192918   4.402   2.237   8.911
30892WAT     H292919   4.332   2.091   8.924
30893WAT      O92920   7.252   7.079   2.752
30893WAT     H192921   7.235   7.019   2.830
30893WAT     H292922   7.172   7.078   2.692
30894WAT      O92923   1.290   7.053   5.058
30894WAT     H192924   1.379   7.062   5.013
30894WAT     H292925   1.271   6.956   5.074
30895WAT      O92926   0.776   0.915   2.104
30895WAT     H192927   0.795   0.909   2.006
30895WAT     H292928   0.755   1.010   2.129
30896WAT      O92929   6.505   3.468   6.078
30896WAT     H192930   6.603   3.451   6.092
30896WAT     H292931   6.490   3.506   5.987
30897WAT      O92932   7.935   7.257   0.016
30897WAT     H192933   7.873   7.253   0.095
30897WAT     H292934   8.029   7.248   0.048
30898WAT      O92935   7.088   2.166   4.750
30898WAT     H192936   7.050   2.092   4.694
30898WAT     H292937   7.015   2.209   4.803
30899WAT      O92938   2.929   7.698   5.752
30899WAT     H192939   2.865   7.657   5.688
30899WAT     H292940   3.000   7.632   5.776
30900WAT      O92941   3.092   0.516   1.309
30900WAT     H192942   3.162   0.478   1.369
30900WAT     H292943   3.105   0.615   1.301
30901WAT      O92944   0.872   2.345   4.511
30901WAT     H192945   0.858   2.356   4.413
30901WAT     H292946   0.945   2.407   4.541
30902WAT      O92947   0.741   1.766   4.162
30902WAT     H192948   0.830   1.808   4.143
30902WAT     H292949   0.723   1.770   4.260
30903WAT      O92950   5.416   7.805   0.319
30903WAT     H192951   5.382   7.796   0.225
30903WAT     H292952   5.497   7.863   0.319
30904WAT      O92953   1.510   1.841   2.056
30904WAT     H192954   1.595   1.808   2.097
30904WAT     H292955   1.473   1.771   1.995
30905WAT      O92956   1.971   4.986   8.260
30905WAT     H192957   1.923   4.904   8.229
30905WAT     H292958   1.928   5.020   8.344
30906WAT      O92959   4.769   8.041   0.869
30906WAT     H192960   4.761   8.129   0.822
30906WAT     H292961   4.714   8.043   0.952
30907WAT      O92962   7.652   8.424   1.368
30907WAT     H192963   7.579   8.434   1.436
30907WAT     H292964   7.735   8.469   1.400
30908WAT      O92965   1.711   6.038   7.479
30908WAT     H192966   1.761   5.980   7.415
30908WAT     H292967   1.658   5.980   7.542
30909WAT      O92968   5.220   7.235   6.349
30909WAT     H192969   5.305   7.252   6.300
30909WAT     H292970   5.170   7.161   6.304
30910WAT      O92971   0.748   9.360   7.223
30910WAT     H192972   0.822   9.413   7.183
30910WAT     H292973   0.670   9.360   7.160
30911WAT      O92974   6.013   8.725   5.074
30911WAT     H192975   6.035   8.816   5.109
30911WAT     H292976   5.934   8.730   5.014
30912WAT      O92977   8.369   3.074   2.938
30912WAT     H192978   8.306   3.151   2.926
30912WAT     H292979   8.458   3.108   2.967
30913WAT      O92980   3.277   8.639   2.331
30913WAT     H192981   3.221   8.582   2.269
30913WAT     H292982   3.341   8.693   2.277
30914WAT      O92983   4.975   7.500   5.139
30914WAT     H192984   4.949   7.530   5.047
30914WAT     H292985   5.072   7.476   5.140
30915WAT      O92986   1.329   7.561   7.252
30915WAT     H192987   1.420   7.545   7.290
30915WAT     H292988   1.282   7.630   7.306
30916WAT      O92989   5.712   1.561   2.981
30916WAT     H192990   5.649   1.590   2.909
30916WAT     H292991   5.667   1.497   3.042
30917WAT      O92992   4.137   8.104   2.380
30917WAT     H192993   4.125   8.134   2.475
30917WAT     H292994   4.173   8.180   2.325
30918WAT      O92995   8.384   5.241   5.837
30918WAT     H192996   8.314   5.314   5.839
30918WAT     H292997   8.360   5.170   5.903
30919WAT      O92998   9.555   4.552   2.178
30919WAT     H192999   9.587   4.536   2.271
30919WAT     H293000   9.524   4.647   2.169
30920WAT      O93001   8.394   4.689   1.621
30920WAT     H193002   8.381   4.596   1.654
30920WAT     H293003   8.391   4.752   1.699
30921WAT      O93004   6.085   8.985   8.667
30921WAT     H193005   6.159   9.047   8.643
30921WAT     H293006   6.103   8.894   8.628
30922WAT      O93007   2.012   6.402   7.505
30922WAT     H193008   1.920   6.363   7.504
30922WAT     H293009   2.018   6.472   7.577
30923WAT      O93010   4.477   1.938   9.874
30923WAT     H193011   4.411   2.013   9.866
30923WAT     H293012   4.555   1.969   9.929
30924WAT      O93013   2.891   3.403   7.773
30924WAT     H193014   2.985   3.393   7.807
30924WAT     H293015   2.834   3.445   7.844
30925WAT      O93016   7.247   1.174   3.379
30925WAT     H193017   7.155   1.212   3.393
30925WAT     H293018   7.295   1.227   3.310
30926WAT      O93019   0.469   5.784   8.472
30926WAT     H193020   0.484   5.701   8.419
30926WAT     H293021   0.481   5.864   8.413
30927WAT      O93022   7.877   6.598   1.538
30927WAT     H193023   7.956   6.578   1.595
30927WAT     H293024   7.892   6.685   1.490
30928WAT      O93025   4.376   3.656   8.539
30928WAT     H193026   4.354   3.742   8.584
30928WAT     H293027   4.463   3.664   8.491
30929WAT      O93028   1.051   3.817   1.669
30929WAT     H193029   0.982   3.873   1.715
30929WAT     H293030   1.006   3.750   1.610
30930WAT      O93031   4.152   4.939   1.720
30930WAT     H193032   4.204   4.856   1.741
30930WAT     H293033   4.055   4.921   1.734
30931WAT      O93034   5.364   0.313   3.107
30931WAT     H193035   5.338   0.295   3.201
30931WAT     H293036   5.384   0.411   3.095
30932WAT      O93037   5.457   9.081   5.560
30932WAT     H193038   5.484   9.046   5.470
30932WAT     H293039   5.367   9.043   5.585
30933WAT      O93040   9.627   0.548   1.820
30933WAT     H193041   9.574   0.577   1.900
30933WAT     H293042   9.565   0.513   1.750
30934WAT      O93043   8.737   1.603   7.633
30934WAT     H193044   8.704   1.582   7.725
30934WAT     H293045   8.682   1.554   7.565
30935WAT      O93046   8.832   6.482   1.773
30935WAT     H193047   8.857   6.403   1.829
30935WAT     H293048   8.788   6.551   1.830
30936WAT      O93049   7.784   3.119   0.415
30936WAT     H193050   7.743   3.208   0.432
30936WAT     H293051   7.882   3.129   0.395
30937WAT      O93052   9.801   7.401   9.530
30937WAT     H193053   9.887   7.396   9.480
30937WAT     H293054   9.740   7.468   9.487
30938WAT      O93055   3.898   8.659   3.569
30938WAT     H193056   3.886   8.564   3.601
30938WAT     H293057   3.992   8.688   3.583
30939WAT      O93058   7.493   3.676   1.113
30939WAT     H193059   7.531   3.680   1.021
30939WAT     H293060   7.425   3.603   1.118
30940WAT      O93061   3.634   2.888   8.240
30940WAT     H193062   3.632   2.793   8.211
30940WAT     H293063   3.720   2.931   8.211
30941WAT      O93064   8.495   8.054   1.548
30941WAT     H193065   8.522   7.982   1.612
30941WAT     H293066   8.472   8.013   1.460
30942WAT      O93067   1.926   1.595   1.236
30942WAT     H193068   1.960   1.628   1.325
30942WAT     H293069   1.888   1.671   1.184
30943WAT      O93070   7.760   4.839   0.726
30943WAT     H193071   7.785   4.870   0.634
30943WAT     H293072   7.836   4.785   0.763
30944WAT      O93073   4.882   0.316   5.150
30944WAT     H193074   4.869   0.243   5.217
30944WAT     H293075   4.941   0.284   5.076
30945WAT      O93076   5.403   6.149   1.487
30945WAT     H193077   5.403   6.050   1.500
30945WAT     H293078   5.497   6.182   1.477
30946WAT      O93079   5.289   4.790   9.137
30946WAT     H193080   5.295   4.883   9.101
30946WAT     H293081   5.240   4.790   9.224
30947WAT      O93082   4.372   6.078   4.900
30947WAT     H193083   4.311   6.114   4.970
30947WAT     H293084   4.319   6.041   4.824
30948WAT      O93085   0.737   3.459   0.851
30948WAT     H193086   0.676   3.418   0.783
30948WAT     H293087   0.732   3.408   0.936
30949WAT      O93088   0.191   7.676   9.825
30949WAT     H193089   0.128   7.599   9.812
30949WAT     H293090   0.263   7.671   9.755
30950WAT      O93091   6.494   0.477   3.481
30950WAT     H193092   6.531   0.453   3.391
30950WAT     H293093   6.396   0.494   3.473
30951WAT      O93094   6.701   2.901   5.657
30951WAT     H193095   6.713   2.955   5.740
30951WAT     H293096   6.784   2.904   5.602
30952WAT      O93097   6.844   1.522   6.772
30952WAT     H193098   6.801   1.537   6.683
30952WAT     H293099   6.791   1.568   6.843
30953WAT      O93100   2.232   1.774   1.178
30953WAT     H193101   2.283   1.848   1.223
30953WAT     H293102   2.296   1.716   1.128
30954WAT      O93103   3.074   8.865   2.808
30954WAT     H193104   3.093   8.782   2.755
30954WAT     H293105   3.158   8.918   2.818
30955WAT      O93106   3.722   1.032   6.763
30955WAT     H193107   3.703   1.128   6.782
30955WAT     H293108   3.654   0.996   6.699
30956WAT      O93109   9.368   8.093   6.294
30956WAT     H193110   9.293   8.128   6.238
30956WAT     H293111   9.426   8.033   6.238
30957WAT      O93112   1.103   6.531   6.734
30957WAT     H193113   1.073   6.514   6.640
30957WAT     H293114   1.132   6.626   6.743
30958WAT      O93115   6.875   5.251   8.936
30958WAT     H193116   6.886   5.283   8.842
30958WAT     H293117   6.805   5.180   8.939
30959WAT      O93118   9.374   8.443   2.497
30959WAT     H193119   9.365   8.434   2.596
30959WAT     H293120   9.349   8.357   2.453
30960WAT      O93121   4.575   2.126   6.358
30960WAT     H193122   4.606   2.215   6.394
30960WAT     H293123   4.570   2.131   6.259
30961WAT      O93124   3.904   0.576   0.208
30961WAT     H193125   3.864   0.485   0.206
30961WAT     H293126   4.003   0.569   0.224
30962WAT      O93127   7.881   8.193   0.875
30962WAT     H193128   7.868   8.220   0.970
30962WAT     H293129   7.933   8.107   0.871
30963WAT      O93130   7.633   9.710   5.636
30963WAT     H193131   7.563   9.779   5.617
30963WAT     H293132   7.623   9.634   5.571
30964WAT      O93133   5.596   6.240   5.775
30964WAT     H193134   5.587   6.188   5.690
30964WAT     H293135   5.521   6.216   5.836
30965WAT      O93136   5.038   8.993   4.388
30965WAT     H193137   5.097   8.917   4.415
30965WAT     H293138   5.091   9.060   4.337
30966WAT      O93139   7.437   4.845   7.464
30966WAT     H193140   7.479   4.891   7.543
30966WAT     H293141   7.424   4.748   7.484
30967WAT      O93142   4.855   1.849   2.445
30967WAT     H193143   4.786   1.921   2.441
30967WAT     H293144   4.926   1.867   2.377
30968WAT      O93145   2.343   7.200   2.099
30968WAT     H193146   2.368   7.296   2.113
30968WAT     H293147   2.245   7.194   2.082
30969WAT      O93148   8.031   4.965   9.093
30969WAT     H193149   8.023   4.969   9.192
30969WAT     H293150   8.089   5.040   9.061
30970WAT      O93151   7.287   4.072   6.553
30970WAT     H193152   7.254   3.998   6.494
30970WAT     H293153   7.372   4.110   6.514
30971WAT      O93154   3.439   9.265   0.061
30971WAT     H193155   3.456   9.167   0.065
30971WAT     H293156   3.395   9.295   0.145
30972WAT      O93157   1.163   1.636   8.946
30972WAT     H193158   1.250   1.608   8.905
30972WAT     H293159   1.175   1.725   8.992
30973WAT      O93160   0.863   4.985   0.190
30973WAT     H193161   0.921   5.056   0.150
30973WAT     H293162   0.892   4.968   0.285
30974WAT      O93163   8.770   6.568   9.537
30974WAT     H193164   8.844   6.521   9.488
30974WAT     H293165   8.722   6.628   9.474
30975WAT      O93166   6.571   2.785   3.797
30975WAT     H193167   6.547   2.833   3.881
30975WAT     H293168   6.610   2.695   3.819
30976WAT      O93169   3.707   2.781   2.555
30976WAT     H193170   3.618   2.743   2.531
30976WAT     H293171   3.767   2.780   2.475
30977WAT      O93172   5.165   5.775   0.202
30977WAT     H193173   5.169   5.678   0.180
30977WAT     H293174   5.191   5.829   0.122
30978WAT      O93175   0.258   0.281   0.039
30978WAT     H193176   0.304   0.196   0.065
30978WAT     H293177   0.320   0.338  -0.014
30979WAT      O93178   2.806   9.054   5.367
30979WAT     H193179   2.856   8.971   5.344
30979WAT     H293180   2.768   9.046   5.460
30980WAT      O93181   6.318   3.011   1.283
30980WAT     H193182   6.370   2.963   1.354
30980WAT     H293183   6.268   3.087   1.323
30981WAT      O93184   6.548   6.899   0.676
30981WAT     H193185   6.542   6.855   0.766
30981WAT     H293186   6.626   6.962   0.675
30982WAT      O93187   0.528   7.118   6.641
30982WAT     H193188   0.540   7.189   6.711
30982WAT     H293189   0.618   7.090   6.608
30983WAT      O93190   1.128   0.022   6.070
30983WAT     H193191   1.166   0.015   5.978
30983WAT     H293192   1.142  -0.065   6.118
30984WAT      O93193   1.760   6.988   7.062
30984WAT     H193194   1.707   6.904   7.049
30984WAT     H293195   1.709   7.065   7.023
30985WAT      O93196   9.551   4.235   6.077
30985WAT     H193197   9.470   4.181   6.054
30985WAT     H293198   9.596   4.265   5.992
30986WAT      O93199   3.122   0.305   6.247
30986WAT     H193200   3.118   0.229   6.183
30986WAT     H293201   3.087   0.388   6.203
30987WAT      O93202   5.568   5.130   7.996
30987WAT     H193203   5.576   5.101   7.900
30987WAT     H293204   5.602   5.057   8.056
30988WAT      O93205   8.149   0.173   7.798
30988WAT     H193206   8.100   0.178   7.885
30988WAT     H293207   8.208   0.254   7.788
30989WAT      O93208   5.173   7.964   2.982
30989WAT     H193209   5.161   7.902   2.904
30989WAT     H293210   5.125   7.928   3.062
30990WAT      O93211   6.117   8.848   1.722
30990WAT     H193212   6.057   8.842   1.642
30990WAT     H293213   6.154   8.757   1.742
30991WAT      O93214   4.298   1.937   0.438
30991WAT     H193215   4.228   2.008   0.448
30991WAT     H293216   4.343   1.922   0.526
30992WAT      O93217   5.501   1.573   2.807
30992WAT     H193218   5.413   1.610   2.836
30992WAT     H293219   5.534   1.624   2.728
30993WAT      O93220   7.632   2.926   0.282
30993WAT     H193221   7.706   2.977   0.325
30993WAT     H293222   7.556   2.987   0.262
30994WAT      O93223   4.973   8.861   4.956
30994WAT     H193224   5.032   8.843   4.877
30994WAT     H293225   4.922   8.946   4.940
30995WAT      O93226   5.589   2.439   4.537
30995WAT     H193227   5.552   2.458   4.447
30995WAT     H293228   5.653   2.362   4.532
30996WAT      O93229   4.474   5.665   3.871
30996WAT     H193230   4.439   5.690   3.781
30996WAT     H293231   4.545   5.731   3.899
30997WAT      O93232   5.756   0.005   7.401
30997WAT     H193233   5.682   0.073   7.405
30997WAT     H293234   5.723  -0.077   7.356
30998WAT      O93235   5.036   6.634   3.976
30998WAT     H193236   5.096   6.610   3.900
30998WAT     H293237   5.087   6.687   4.043
30999WAT      O93238   6.754   4.727   3.908
30999WAT     H193239   6.670   4.701   3.957
30999WAT     H293240   6.831   4.679   3.949
31000WAT      O93241   1.194   8.308   0.917
31000WAT     H193242   1.182   8.256   1.001
31000WAT     H293243   1.207   8.244   0.841
31001WAT      O93244   2.641   0.332   3.780
31001WAT     H193245   2.592   0.418   3.764
31001WAT     H293246   2.630   0.272   3.701
31002WAT      O93247   8.053   1.965   2.712
31002WAT     H193248   8.135   1.990   2.660
31002WAT     H293249   8.080   1.910   2.792
31003WAT      O93250   6.673   7.047   2.959
31003WAT     H193251   6.657   7.048   2.861
31003WAT     H293252   6.625   7.123   3.002
31004WAT      O93253   2.786   8.901   8.127
31004WAT     H193254   2.770   8.803   8.140
31004WAT     H293255   2.702   8.944   8.093
31005WAT      O93256   6.903   2.241   1.435
31005WAT     H193257   6.818   2.292   1.430
31005WAT     H293258   6.895   2.156   1.383
31006WAT      O93259   7.210   5.282   2.842
31006WAT     H193260   7.167   5.208   2.893
31006WAT     H293261   7.180   5.370   2.879
31007WAT      O93262   6.541   4.876   2.705
31007WAT     H193263   6.533   4.864   2.606
31007WAT     H293264   6.538   4.974   2.727
31008WAT      O93265   2.745   6.707   7.135
31008WAT     H193266   2.717   6.721   7.230
31008WAT     H293267   2.828   6.651   7.133
31009WAT      O93268   2.889   6.963   9.875
31009WAT     H193269   2.821   6.951   9.802
31009WAT     H293270   2.889   7.058   9.906
31010WAT      O93271   7.695   5.618   2.053
31010WAT     H193272   7.722   5.615   2.149
31010WAT     H293273   7.744   5.693   2.008
31011WAT      O93274   0.472   6.412   3.924
31011WAT     H193275   0.436   6.465   3.847
31011WAT     H293276   0.425   6.437   4.008
31012WAT      O93277   8.289   7.222   7.245
31012WAT     H193278   8.228   7.186   7.315
31012WAT     H293279   8.257   7.312   7.215
31013WAT      O93280   7.893   0.870   2.903
31013WAT     H193281   7.835   0.951   2.902
31013WAT     H293282   7.921   0.848   2.809
31014WAT      O93283   2.679   3.631   3.560
31014WAT     H193284   2.759   3.573   3.571
31014WAT     H293285   2.677   3.700   3.633
31015WAT      O93286   1.527   5.246   1.477
31015WAT     H193287   1.621   5.276   1.494
31015WAT     H293288   1.494   5.288   1.392
31016WAT      O93289   6.400   7.874   0.623
31016WAT     H193290   6.325   7.906   0.565
31016WAT     H293291   6.395   7.775   0.632
31017WAT      O93292   9.736   6.759   6.178
31017WAT     H193293   9.700   6.666   6.190
31017WAT     H293294   9.678   6.809   6.114
31018WAT      O93295   0.191   8.889   9.323
31018WAT     H193296   0.129   8.857   9.395
31018WAT     H293297   0.203   8.988   9.331
31019WAT      O93298   2.569   2.921   9.497
31019WAT     H193299   2.545   2.965   9.584
31019WAT     H293300   2.564   2.822   9.508
31020WAT      O93301   5.343   3.173   2.492
31020WAT     H193302   5.433   3.213   2.480
31020WAT     H293303   5.332   3.094   2.431
31021WAT      O93304   4.794   1.308   7.630
31021WAT     H193305   4.813   1.380   7.564
31021WAT     H293306   4.830   1.334   7.719
31022WAT      O93307   2.308   9.811   7.987
31022WAT     H193308   2.407   9.826   7.983
31022WAT     H293309   2.286   9.757   8.069
31023WAT      O93310   2.621   4.560   1.269
31023WAT     H193311   2.634   4.540   1.367
31023WAT     H293312   2.588   4.654   1.258
31024WAT      O93313   7.194   1.616   7.770
31024WAT     H193314   7.181   1.714   7.757
31024WAT     H293315   7.208   1.572   7.681
31025WAT      O93316   8.332   3.587   3.384
31025WAT     H193317   8.393   3.565   3.460
31025WAT     H293318   8.348   3.524   3.308
31026WAT      O93319   1.230   5.754   3.178
31026WAT     H193320   1.135   5.734   3.152
31026WAT     H293321   1.285   5.671   3.169
31027WAT      O93322   4.707   9.740   8.273
31027WAT     H193323   4.694   9.732   8.372
31027WAT     H293324   4.744   9.654   8.237
31028WAT      O93325   7.525   4.307   8.681
31028WAT     H193326   7.461   4.231   8.694
31028WAT     H293327   7.488   4.388   8.726
31029WAT      O93328   0.240   7.345   6.351
31029WAT     H193329   0.302   7.278   6.392
31029WAT     H293330   0.250   7.342   6.251
31030WAT      O93331   9.742   1.824   0.508
31030WAT     H193332   9.728   1.820   0.607
31030WAT     H293333   9.826   1.874   0.488
31031WAT      O93334   8.814   8.194   5.509
31031WAT     H193335   8.758   8.245   5.574
31031WAT     H293336   8.767   8.110   5.482
31032WAT      O93337   3.101   1.619   7.486
31032WAT     H193338   3.043   1.643   7.564
31032WAT     H293339   3.154   1.698   7.457
31033WAT      O93340   5.988   1.459   1.573
31033WAT     H193341   6.084   1.484   1.589
31033WAT     H293342   5.937   1.540   1.544
31034WAT      O93343   2.354   2.123   0.290
31034WAT     H193344   2.255   2.120   0.303
31034WAT     H293345   2.394   2.034   0.316
31035WAT      O93346   5.428   6.516   7.540
31035WAT     H193347   5.516   6.515   7.491
31035WAT     H293348   5.381   6.602   7.521
31036WAT      O93349   6.106   8.772   2.635
31036WAT     H193350   6.197   8.782   2.675
31036WAT     H293351   6.053   8.706   2.689
31037WAT      O93352   8.827   0.667   4.642
31037WAT     H193353   8.825   0.580   4.691
31037WAT     H293354   8.896   0.663   4.570
31038WAT      O93355   9.015   9.078   4.041
31038WAT     H193356   9.017   8.979   4.058
31038WAT     H293357   8.998   9.126   4.127
31039WAT      O93358   4.206   4.048   7.350
31039WAT     H193359   4.115   4.033   7.390
31039WAT     H293360   4.230   3.970   7.292
31040WAT      O93361   4.683   3.074   9.799
31040WAT     H193362   4.631   3.145   9.846
31040WAT     H293363   4.646   2.984   9.824
31041WAT      O93364   4.943   2.486   8.183
31041WAT     H193365   5.002   2.487   8.264
31041WAT     H293366   4.928   2.392   8.154
31042WAT      O93367   9.704   1.514   0.059
31042WAT     H193368   9.791   1.464   0.053
31042WAT     H293369   9.633   1.453   0.092
31043WAT      O93370   7.766   9.083   9.542
31043WAT     H193371   7.837   9.088   9.471
31043WAT     H293372   7.702   9.159   9.529
31044WAT      O93373   4.154   5.805   0.071
31044WAT     H193374   4.197   5.748   0.002
31044WAT     H293375   4.055   5.789   0.072
31045WAT      O93376   3.933   4.227   5.186
31045WAT     H193377   3.950   4.309   5.132
31045WAT     H293378   3.965   4.147   5.136
31046WAT      O93379   9.501   9.526   7.212
31046WAT     H193380   9.415   9.473   7.213
31046WAT     H293381   9.541   9.522   7.121
31047WAT      O93382   1.991   8.058   0.343
31047WAT     H193383   2.081   8.044   0.301
31047WAT     H293384   1.926   8.085   0.272
31048WAT      O93385   9.316   1.412   4.459
31048WAT     H193386   9.320   1.364   4.546
31048WAT     H293387   9.355   1.504   4.470
31049WAT      O93388   6.708   6.652   0.674
31049WAT     H193389   6.807   6.669   0.679
31049WAT     H293390   6.659   6.739   0.673
31050WAT      O93391   8.893   9.384   2.960
31050WAT     H193392   8.843   9.358   2.878
31050WAT     H293393   8.974   9.325   2.969
31051WAT      O93394   1.293   8.365   9.217
31051WAT     H193395   1.359   8.312   9.270
31051WAT     H293396   1.337   8.446   9.179
31052WAT      O93397   7.912   0.553   2.516
31052WAT     H193398   8.003   0.526   2.485
31052WAT     H293399   7.844   0.529   2.446
31053WAT      O93400   2.067   5.044   6.732
31053WAT     H193401   2.033   5.118   6.674
31053WAT     H293402   2.141   4.996   6.684
31054WAT      O93403   3.876   6.095   2.375
31054WAT     H193404   3.931   6.174   2.349
31054WAT     H293405   3.831   6.113   2.463
31055WAT      O93406   9.121   9.182   8.082
31055WAT     H193407   9.056   9.132   8.026
31055WAT     H293408   9.214   9.148   8.066
31056WAT      O93409   7.710   0.751   8.388
31056WAT     H193410   7.704   0.850   8.373
31056WAT     H293411   7.807   0.725   8.395
31057WAT      O93412   1.379   4.939   2.298
31057WAT     H193413   1.442   5.016   2.304
31057WAT     H293414   1.423   4.857   2.335
31058WAT      O93415   7.462   0.731   3.134
31058WAT     H193416   7.370   0.693   3.125
31058WAT     H293417   7.523   0.687   3.067
31059WAT      O93418   7.889   6.070   6.449
31059WAT     H193419   7.918   5.981   6.414
31059WAT     H293420   7.937   6.090   6.535
31060WAT      O93421   0.038   1.252   0.118
31060WAT     H193422   0.097   1.172   0.108
31060WAT     H293423   0.084   1.320   0.176
31061WAT      O93424   2.654   9.058   6.626
31061WAT     H193425   2.656   9.043   6.725
31061WAT     H293426   2.583   9.124   6.604
31062WAT      O93427   4.386   3.627   0.780
31062WAT     H193428   4.402   3.681   0.863
31062WAT     H293429   4.473   3.614   0.732
31063WAT      O93430   5.528   5.912   9.615
31063WAT     H193431   5.594   5.855   9.564
31063WAT     H293432   5.460   5.853   9.658
31064WAT      O93433   1.255   9.301   2.921
31064WAT     H193434   1.272   9.204   2.938
31064WAT     H293435   1.318   9.356   2.976
31065WAT      O93436   4.605   0.024   4.556
31065WAT     H193437   4.537  -0.020   4.615
31065WAT     H293438   4.616   0.120   4.585
31066WAT      O93439   3.185   8.337   6.169
31066WAT     H193440   3.134   8.423   6.178
31066WAT     H293441   3.141   8.266   6.223
31067WAT      O93442   9.047   6.274   0.139
31067WAT     H193443   9.113   6.315   0.075
31067WAT     H293444   8.968   6.241   0.088
31068WAT      O93445   7.057   5.878   1.858
31068WAT     H193446   7.035   5.960   1.910
31068WAT     H293447   7.072   5.902   1.762
31069WAT      O93448   8.754   5.392   4.132
31069WAT     H193449   8.681   5.332   4.166
31069WAT     H293450   8.733   5.486   4.157
31070WAT      O93451   8.606   5.926   7.297
31070WAT     H193452   8.688   5.871   7.280
31070WAT     H293453   8.528   5.884   7.252
31071WAT      O93454   7.996   1.556   0.003
31071WAT     H193455   8.065   1.485  -0.011
31071WAT     H293456   7.906   1.513   0.016
31072WAT      O93457   2.737   9.763   3.540
31072WAT     H193458   2.837   9.756   3.534
31072WAT     H293459   2.708   9.752   3.635
31073WAT      O93460   8.584   4.237   2.281
31073WAT     H193461   8.560   4.288   2.198
31073WAT     H293462   8.595   4.301   2.357
31074WAT      O93463   8.869   5.612   7.924
31074WAT     H193464   8.799   5.680   7.900
31074WAT     H293465   8.932   5.651   7.991
31075WAT      O93466   4.905   5.337   1.527
31075WAT     H193467   4.834   5.399   1.494
31075WAT     H293468   4.967   5.387   1.588
31076WAT      O93469   1.557   2.859   6.153
31076WAT     H193470   1.624   2.848   6.080
31076WAT     H293471   1.572   2.789   6.223
31077WAT      O93472   3.352   0.927   4.440
31077WAT     H193473   3.315   0.844   4.482
31077WAT     H293474   3.356   1.000   4.509
31078WAT      O93475   8.042   5.322   2.851
31078WAT     H193476   8.002   5.405   2.814
31078WAT     H293477   8.123   5.297   2.796
31079WAT      O93478   3.179   7.699   1.211
31079WAT     H193479   3.189   7.780   1.270
31079WAT     H293480   3.207   7.618   1.262
31080WAT      O93481   9.223   9.671   5.605
31080WAT     H193482   9.253   9.754   5.558
31080WAT     H293483   9.123   9.668   5.607
31081WAT      O93484   0.800   9.084   9.332
31081WAT     H193485   0.859   9.104   9.410
31081WAT     H293486   0.757   9.169   9.300
31082WAT      O93487   1.857   7.061   2.763
31082WAT     H193488   1.858   6.991   2.835
31082WAT     H293489   1.878   7.019   2.675
31083WAT      O93490   5.131   6.805   3.400
31083WAT     H193491   5.229   6.823   3.398
31083WAT     H293492   5.088   6.846   3.319
31084WAT      O93493   0.568   4.204   2.950
31084WAT     H193494   0.629   4.172   3.022
31084WAT     H293495   0.519   4.285   2.982
31085WAT      O93496   3.997   1.609   0.977
31085WAT     H193497   4.085   1.656   0.976
31085WAT     H293498   3.924   1.676   0.985
31086WAT      O93499   3.977   5.188   5.611
31086WAT     H193500   3.943   5.263   5.555
31086WAT     H293501   3.958   5.206   5.707
31087WAT      O93502   5.248   4.546   8.391
31087WAT     H193503   5.164   4.551   8.445
31087WAT     H293504   5.242   4.469   8.328
31088WAT      O93505   9.408   1.878   7.584
31088WAT     H193506   9.435   1.807   7.649
31088WAT     H293507   9.377   1.959   7.634
31089WAT      O93508   7.749   4.870   1.578
31089WAT     H193509   7.838   4.887   1.619
31089WAT     H293510   7.678   4.878   1.647
31090WAT      O93511   8.364   6.092   5.023
31090WAT     H193512   8.279   6.131   5.056
31090WAT     H293513   8.346   6.004   4.979
31091WAT      O93514   2.158   0.386   3.195
31091WAT     H193515   2.125   0.383   3.101
31091WAT     H293516   2.167   0.293   3.231
31092WAT      O93517   9.585   6.313   1.571
31092WAT     H193518   9.504   6.311   1.513
31092WAT     H293519   9.667   6.310   1.513
31093WAT      O93520   2.429   9.686   8.882
31093WAT     H193521   2.445   9.781   8.909
31093WAT     H293522   2.497   9.659   8.814
31094WAT      O93523   8.775   6.352   4.482
31094WAT     H193524   8.853   6.315   4.431
31094WAT     H293525   8.692   6.344   4.426
31095WAT      O93526   5.946   0.705   8.658
31095WAT     H193527   5.979   0.798   8.645
31095WAT     H293528   6.022   0.641   8.651
31096WAT      O93529   7.748   6.765   8.075
31096WAT     H193530   7.748   6.741   8.172
31096WAT     H293531   7.842   6.759   8.040
31097WAT      O93532   8.090   4.221   2.257
31097WAT     H193533   8.132   4.285   2.193
31097WAT     H293534   8.033   4.271   2.322
31098WAT      O93535   2.094   5.855   8.335
31098WAT     H193536   2.055   5.911   8.262
31098WAT     H293537   2.194   5.855   8.328
31099WAT      O93538   3.932   6.917   0.026
31099WAT     H193539   3.832   6.905   0.030
31099WAT     H293540   3.977   6.832   0.052
31100WAT      O93541   3.716   0.162   9.565
31100WAT     H193542   3.644   0.098   9.591
31100WAT     H293543   3.743   0.146   9.470
31101WAT      O93544   5.035   1.556   5.249
31101WAT     H193545   5.027   1.551   5.348
31101WAT     H293546   5.020   1.650   5.219
31102WAT      O93547   5.565   1.650   3.882
31102WAT     H193548   5.659   1.629   3.908
31102WAT     H293549   5.535   1.733   3.930
31103WAT      O93550   7.224   2.922   0.428
31103WAT     H193551   7.156   2.855   0.457
31103WAT     H293552   7.183   3.014   0.430
31104WAT      O93553   2.206   6.839   6.152
31104WAT     H193554   2.145   6.807   6.080
31104WAT     H293555   2.297   6.854   6.114
31105WAT      O93556   8.389   4.277   0.706
31105WAT     H193557   8.348   4.314   0.622
31105WAT     H293558   8.475   4.323   0.724
31106WAT      O93559   1.299   0.694   0.844
31106WAT     H193560   1.211   0.705   0.798
31106WAT     H293561   1.286   0.647   0.931
31107WAT      O93562   0.040   7.521   2.168
31107WAT     H193563   0.112   7.575   2.212
31107WAT     H293564   0.008   7.568   2.086
31108WAT      O93565   4.503   2.007   4.619
31108WAT     H193566   4.567   1.945   4.574
31108WAT     H293567   4.442   2.048   4.551
31109WAT      O93568   2.455   5.479   3.403
31109WAT     H193569   2.448   5.504   3.306
31109WAT     H293570   2.541   5.514   3.440
31110WAT      O93571   0.563   9.030   2.419
31110WAT     H193572   0.523   9.089   2.349
31110WAT     H293573   0.611   8.953   2.375
31111WAT      O93574   7.352   1.170   7.059
31111WAT     H193575   7.253   1.187   7.058
31111WAT     H293576   7.384   1.154   6.966
31112WAT      O93577   3.865   7.589   2.902
31112WAT     H193578   3.803   7.566   2.977
31112WAT     H293579   3.829   7.669   2.852
31113WAT      O93580   6.131   9.396   7.048
31113WAT     H193581   6.177   9.382   7.135
31113WAT     H293582   6.153   9.487   7.012
31114WAT      O93583   5.574   6.878   7.396
31114WAT     H193584   5.483   6.836   7.388
31114WAT     H293585   5.622   6.838   7.474
31115WAT      O93586   1.598   9.741   7.625
31115WAT     H193587   1.619   9.757   7.721
31115WAT     H293588   1.656   9.799   7.568
31116WAT      O93589   9.869   6.625   6.608
31116WAT     H193590   9.917   6.574   6.679
31116WAT     H293591   9.771   6.619   6.623
31117WAT      O93592   0.870   9.715   3.115
31117WAT     H193593   0.833   9.651   3.048
31117WAT     H293594   0.894   9.665   3.199
31118WAT      O93595   2.739   3.646   8.474
31118WAT     H193596   2.658   3.673   8.528
31118WAT     H293597   2.731   3.684   8.382
31119WAT      O93598   7.297   4.926   3.394
31119WAT     H193599   7.367   4.980   3.440
31119WAT     H293600   7.206   4.964   3.415
31120WAT      O93601   9.563   5.026   4.086
31120WAT     H193602   9.492   5.045   4.154
31120WAT     H293603   9.633   4.968   4.127
31121WAT      O93604   5.849   6.095   0.255
31121WAT     H193605   5.771   6.156   0.274
31121WAT     H293606   5.815   6.003   0.238
31122WAT      O93607   2.760   3.352   6.899
31122WAT     H193608   2.794   3.409   6.974
31122WAT     H293609   2.713   3.272   6.937
31123WAT      O93610   4.264   1.732   6.673
31123WAT     H193611   4.283   1.642   6.632
31123WAT     H293612   4.233   1.719   6.767
31124WAT      O93613   2.519   1.225   4.755
31124WAT     H193614   2.486   1.319   4.759
31124WAT     H293615   2.493   1.177   4.839
31125WAT      O93616   1.736   3.607   9.566
31125WAT     H193617   1.831   3.631   9.583
31125WAT     H293618   1.730   3.512   9.535
31126WAT      O93619   5.498   3.463   9.003
31126WAT     H193620   5.433   3.500   8.937
31126WAT     H293621   5.452   3.450   9.091
31127WAT      O93622   0.927   8.658   8.174
31127WAT     H193623   1.002   8.672   8.239
31127WAT     H293624   0.848   8.620   8.221
31128WAT      O93625   7.562   3.075   4.230
31128WAT     H193626   7.486   3.011   4.241
31128WAT     H293627   7.611   3.054   4.146
31129WAT      O93628   0.146   8.291   4.320
31129WAT     H193629   0.215   8.362   4.302
31129WAT     H293630   0.131   8.284   4.419
31130WAT      O93631   2.220   7.370   0.775
31130WAT     H193632   2.282   7.320   0.714
31130WAT     H293633   2.272   7.441   0.824
31131WAT      O93634   8.082   1.901   3.597
31131WAT     H193635   8.003   1.961   3.589
31131WAT     H293636   8.053   1.813   3.634
31132WAT      O93637   0.209   9.339   1.895
31132WAT     H193638   0.146   9.404   1.851
31132WAT     H293639   0.166   9.249   1.899
31133WAT      O93640   4.998   3.168   2.491
31133WAT     H193641   4.956   3.115   2.565
31133WAT     H293642   5.040   3.105   2.425
31134WAT      O93643   9.388   1.204   7.579
31134WAT     H193644   9.450   1.199   7.657
31134WAT     H293645   9.441   1.208   7.494
31135WAT      O93646   8.856   5.277   4.561
31135WAT     H193647   8.933   5.297   4.622
31135WAT     H293648   8.880   5.304   4.468
31136WAT      O93649   6.663   8.414   1.718
31136WAT     H193650   6.751   8.419   1.671
31136WAT     H293651   6.647   8.320   1.749
31137WAT      O93652   7.389   4.164   2.754
31137WAT     H193653   7.312   4.146   2.815
31137WAT     H293654   7.431   4.251   2.777
31138WAT      O93655   6.549   3.485   2.830
31138WAT     H193656   6.496   3.569   2.842
31138WAT     H293657   6.488   3.406   2.836
31139WAT      O93658   1.367   3.894   3.530
31139WAT     H193659   1.406   3.960   3.465
31139WAT     H293660   1.292   3.938   3.579
31140WAT      O93661   5.528   7.469   9.147
31140WAT     H193662   5.475   7.552   9.160
31140WAT     H293663   5.468   7.395   9.118
31141WAT      O93664   4.108   8.900   6.412
31141WAT     H193665   4.126   8.905   6.313
31141WAT     H293666   4.187   8.859   6.458
31142WAT      O93667   8.766   2.065   0.696
31142WAT     H193668   8.781   2.161   0.719
31142WAT     H293669   8.694   2.027   0.754
31143WAT      O93670   7.635   1.088   6.020
31143WAT     H193671   7.559   1.149   6.000
31143WAT     H293672   7.720   1.141   6.026
31144WAT      O93673   8.359   0.070   0.273
31144WAT     H193674   8.388   0.166   0.272
31144WAT     H293675   8.416   0.017   0.211
31145WAT      O93676   1.385   2.670   4.800
31145WAT     H193677   1.484   2.670   4.794
31145WAT     H293678   1.349   2.753   4.756
31146WAT      O93679   6.016   5.055   9.012
31146WAT     H193680   6.091   5.069   9.078
31146WAT     H293681   5.928   5.069   9.058
31147WAT      O93682   2.970   7.465   0.926
31147WAT     H193683   3.046   7.529   0.940
31147WAT     H293684   2.886   7.507   0.958
31148WAT      O93685   3.872   2.230   1.614
31148WAT     H193686   3.967   2.260   1.606
31148WAT     H293687   3.848   2.219   1.711
31149WAT      O93688   5.713   0.730   9.290
31149WAT     H193689   5.655   0.741   9.209
31149WAT     H293690   5.655   0.724   9.372
31150WAT      O93691   5.298   2.338   2.931
31150WAT     H193692   5.212   2.387   2.940
31150WAT     H293693   5.291   2.250   2.978
31151WAT      O93694   6.647   9.607   5.172
31151WAT     H193695   6.738   9.566   5.163
31151WAT     H293696   6.630   9.669   5.095
31152WAT      O93697   6.931   4.413   3.302
31152WAT     H193698   6.985   4.424   3.386
31152WAT     H293699   6.884   4.325   3.305
31153WAT      O93700   4.657   2.017   8.591
31153WAT     H193701   4.714   2.013   8.673
31153WAT     H293702   4.676   1.937   8.533
31154WAT      O93703   1.372   3.372   8.598
31154WAT     H193704   1.422   3.458   8.604
31154WAT     H293705   1.310   3.374   8.520
31155WAT      O93706   6.931   4.850   0.728
31155WAT     H193707   6.853   4.800   0.690
31155WAT     H293708   6.901   4.907   0.804
31156WAT      O93709   8.842   1.757   9.123
31156WAT     H193710   8.796   1.830   9.172
31156WAT     H293711   8.811   1.755   9.027
31157WAT      O93712   6.079   7.019   2.867
31157WAT     H193713   6.179   7.014   2.870
31157WAT     H293714   6.046   6.966   2.789
31158WAT      O93715   4.145   8.782   4.437
31158WAT     H193716   4.121   8.842   4.513
31158WAT     H293717   4.167   8.837   4.356
31159WAT      O93718   4.369   9.772   5.611
31159WAT     H193719   4.329   9.686   5.642
31159WAT     H293720   4.393   9.766   5.514
31160WAT      O93721   8.036   4.446   4.650
31160WAT     H193722   8.036   4.437   4.550
31160WAT     H293723   8.075   4.364   4.691
31161WAT      O93724   6.177   4.275   0.112
31161WAT     H193725   6.091   4.242   0.073
31161WAT     H293726   6.171   4.374   0.127
31162WAT      O93727   6.535   7.110   5.584
31162WAT     H193728   6.445   7.094   5.624
31162WAT     H293729   6.599   7.136   5.656
31163WAT      O93730   4.678   3.833   4.460
31163WAT     H193731   4.644   3.805   4.550
31163WAT     H293732   4.759   3.778   4.437
31164WAT      O93733   8.337   1.097   1.998
31164WAT     H193734   8.406   1.036   1.959
31164WAT     H293735   8.381   1.182   2.028
31165WAT      O93736   2.929   6.581   8.108
31165WAT     H193737   3.001   6.569   8.039
31165WAT     H293738   2.960   6.647   8.177
31166WAT      O93739   0.280   1.892   5.720
31166WAT     H193740   0.312   1.935   5.636
31166WAT     H293741   0.197   1.840   5.701
31167WAT      O93742   6.364   3.461   1.940
31167WAT     H193743   6.301   3.404   1.992
31167WAT     H293744   6.338   3.459   1.843
31168WAT      O93745   3.177   6.297   9.034
31168WAT     H193746   3.213   6.268   8.945
31168WAT     H293747   3.246   6.351   9.082
31169WAT      O93748   9.269   9.278   3.455
31169WAT     H193749   9.364   9.277   3.486
31169WAT     H293750   9.215   9.336   3.516
31170WAT      O93751   5.658   3.798   0.118
31170WAT     H193752   5.621   3.813   0.210
31170WAT     H293753   5.617   3.863   0.055
31171WAT      O93754   2.235   0.991   1.394
31171WAT     H193755   2.170   0.965   1.322
31171WAT     H293756   2.328   0.968   1.365
31172WAT      O93757   9.714   6.932   1.636
31172WAT     H193758   9.792   6.897   1.688
31172WAT     H293759   9.738   7.021   1.596
31173WAT      O93760   0.506   9.097   3.190
31173WAT     H193761   0.538   9.107   3.284
31173WAT     H293762   0.413   9.133   3.184
31174WAT      O93763   0.769   4.230   6.555
31174WAT     H193764   0.779   4.301   6.486
31174WAT     H293765   0.767   4.271   6.646
31175WAT      O93766   1.600   6.681   6.681
31175WAT     H193767   1.542   6.659   6.602
31175WAT     H293768   1.568   6.630   6.760
31176WAT      O93769   3.153   4.580   0.365
31176WAT     H193770   3.199   4.654   0.415
31176WAT     H293771   3.055   4.584   0.384
31177WAT      O93772   9.641   6.674   8.723
31177WAT     H193773   9.596   6.604   8.668
31177WAT     H293774   9.738   6.676   8.701
31178WAT      O93775   9.675   1.113   0.137
31178WAT     H193776   9.663   1.115   0.236
31178WAT     H293777   9.767   1.146   0.114
31179WAT      O93778   3.489   7.342   9.414
31179WAT     H193779   3.473   7.429   9.367
31179WAT     H293780   3.524   7.275   9.350
31180WAT      O93781   3.400   1.503   1.964
31180WAT     H193782   3.393   1.603   1.957
31180WAT     H293783   3.496   1.477   1.958
31181WAT      O93784   2.270   6.853   9.211
31181WAT     H193785   2.228   6.776   9.258
31181WAT     H293786   2.345   6.819   9.153
31182WAT      O93787   2.095   3.330   5.192
31182WAT     H193788   1.996   3.323   5.204
31182WAT     H293789   2.141   3.271   5.259
31183WAT      O93790   4.354   8.730   0.547
31183WAT     H193791   4.392   8.681   0.626
31183WAT     H293792   4.424   8.741   0.477
31184WAT      O93793   8.705   9.529   6.199
31184WAT     H193794   8.725   9.626   6.184
31184WAT     H293795   8.695   9.484   6.110
31185WAT      O93796   0.824   3.177   5.243
31185WAT     H193797   0.857   3.086   5.216
31185WAT     H293798   0.868   3.246   5.185
31186WAT      O93799   0.950   7.605   3.173
31186WAT     H193800   0.952   7.524   3.231
31186WAT     H293801   0.860   7.649   3.177
31187WAT      O93802   7.886   9.679   5.037
31187WAT     H193803   7.807   9.630   5.075
31187WAT     H293804   7.943   9.714   5.111
31188WAT      O93805   6.774   0.775   2.515
31188WAT     H193806   6.826   0.696   2.548
31188WAT     H293807   6.686   0.744   2.479
31189WAT      O93808   7.617   4.547   1.583
31189WAT     H193809   7.650   4.534   1.490
31189WAT     H293810   7.667   4.485   1.645
31190WAT      O93811   8.554   0.784   8.973
31190WAT     H193812   8.488   0.807   8.902
31190WAT     H293813   8.588   0.691   8.958
31191WAT      O93814   8.137   7.547   2.575
31191WAT     H193815   8.194   7.508   2.503
31191WAT     H293816   8.103   7.637   2.546
31192WAT      O93817   0.558   4.784   5.570
31192WAT     H193818   0.645   4.817   5.533
31192WAT     H293819   0.522   4.850   5.636
31193WAT      O93820   2.315   7.790   8.748
31193WAT     H193821   2.251   7.866   8.752
31193WAT     H293822   2.352   7.773   8.840
31194WAT      O93823   7.404   6.510   8.658
31194WAT     H193824   7.319   6.543   8.699
31194WAT     H293825   7.387   6.425   8.608
31195WAT      O93826   3.902   7.957   6.532
31195WAT     H193827   3.899   7.863   6.496
31195WAT     H293828   3.943   7.956   6.623
31196WAT      O93829   1.671   1.474   5.573
31196WAT     H193830   1.621   1.418   5.508
31196WAT     H293831   1.622   1.476   5.661
31197WAT      O93832   1.083   6.101   5.693
31197WAT     H193833   0.991   6.070   5.670
31197WAT     H293834   1.122   6.151   5.615
31198WAT      O93835   3.631   9.082   9.134
31198WAT     H193836   3.545   9.123   9.103
31198WAT     H293837   3.613   8.993   9.175
31199WAT      O93838   0.532   6.669   5.451
31199WAT     H193839   0.493   6.669   5.359
31199WAT     H293840   0.567   6.759   5.473
31200WAT      O93841   7.732   5.785   3.821
31200WAT     H193842   7.763   5.693   3.845
31200WAT     H293843   7.805   5.851   3.838
31201WAT      O93844   4.487   1.009   7.644
31201WAT     H193845   4.488   1.103   7.678
31201WAT     H293846   4.581   0.979   7.626
31202WAT      O93847   2.261   1.332   4.102
31202WAT     H193848   2.179   1.312   4.049
31202WAT     H293849   2.294   1.248   4.145
31203WAT      O93850   6.645   6.837   2.412
31203WAT     H193851   6.566   6.842   2.473
31203WAT     H293852   6.632   6.898   2.335
31204WAT      O93853   6.646   2.895   6.586
31204WAT     H193854   6.591   2.878   6.504
31204WAT     H293855   6.590   2.945   6.652
31205WAT      O93856   5.303   6.537   6.793
31205WAT     H193857   5.299   6.538   6.693
31205WAT     H293858   5.333   6.446   6.824
31206WAT      O93859   7.662   6.872   5.645
31206WAT     H193860   7.604   6.935   5.595
31206WAT     H293861   7.757   6.884   5.617
31207WAT      O93862   8.508   1.587   9.024
31207WAT     H193863   8.600   1.624   9.038
31207WAT     H293864   8.500   1.551   8.931
31208WAT      O93865   1.584   5.630   2.897
31208WAT     H193866   1.492   5.590   2.898
31208WAT     H293867   1.611   5.653   2.990
31209WAT      O93868   4.146   8.054   9.803
31209WAT     H193869   4.067   8.111   9.825
31209WAT     H293870   4.172   8.000   9.883
31210WAT      O93871   0.769   8.101   4.509
31210WAT     H193872   0.811   8.108   4.419
31210WAT     H293873   0.801   8.018   4.555
31211WAT      O93874   4.945   9.382   1.363
31211WAT     H193875   4.991   9.391   1.275
31211WAT     H293876   4.923   9.473   1.398
31212WAT      O93877   1.385   1.006   2.151
31212WAT     H193878   1.354   1.101   2.156
31212WAT     H293879   1.308   0.947   2.130
31213WAT      O93880   6.050   6.041   4.246
31213WAT     H193881   6.032   5.945   4.224
31213WAT     H293882   6.099   6.084   4.170
31214WAT      O93883   3.463   6.115   7.159
31214WAT     H193884   3.421   6.079   7.076
31214WAT     H293885   3.392   6.129   7.229
31215WAT      O93886   7.900   4.577   9.577
31215WAT     H193887   7.907   4.484   9.541
31215WAT     H293888   7.959   4.587   9.657
31216WAT      O93889   9.210   0.846   0.596
31216WAT     H193890   9.161   0.798   0.669
31216WAT     H293891   9.182   0.811   0.507
31217WAT      O93892   9.009   0.461   9.398
31217WAT     H193893   9.072   0.410   9.456
31217WAT     H293894   8.941   0.398   9.361
31218WAT      O93895   1.136   5.632   0.863
31218WAT     H193896   1.228   5.670   0.863
31218WAT     H293897   1.113   5.597   0.954
31219WAT      O93898   0.620   2.973   6.171
31219WAT     H193899   0.544   3.014   6.121
31219WAT     H293900   0.698   2.962   6.109
31220WAT      O93901   2.351   6.103   2.515
31220WAT     H193902   2.375   6.010   2.542
31220WAT     H293903   2.254   6.119   2.531
31221WAT      O93904   2.597   1.247   5.733
31221WAT     H193905   2.616   1.306   5.811
31221WAT     H293906   2.499   1.248   5.713
31222WAT      O93907   0.320   8.726   8.953
31222WAT     H193908   0.393   8.760   9.013
31222WAT     H293909   0.232   8.736   8.999
31223WAT      O93910   4.109   6.669   4.048
31223WAT     H193911   4.118   6.571   4.068
31223WAT     H293912   4.193   6.702   4.005
31224WAT      O93913   8.060   0.169   6.449
31224WAT     H193914   8.043   0.071   6.445
31224WAT     H293915   7.975   0.219   6.432
31225WAT      O93916   8.793   5.380   0.433
31225WAT     H193917   8.788   5.444   0.356
31225WAT     H293918   8.747   5.419   0.512
31226WAT      O93919   1.108   4.554   6.071
31226WAT     H193920   1.117   4.653   6.056
31226WAT     H293921   1.061   4.512   5.994
31227WAT      O93922   0.993   2.581   6.027
31227WAT     H193923   1.021   2.676   6.011
31227WAT     H293924   1.067   2.519   6.001
31228WAT      O93925   9.225   2.678   2.916
31228WAT     H193926   9.138   2.705   2.877
31228WAT     H293927   9.288   2.651   2.843
31229WAT      O93928   8.451   1.161   0.935
31229WAT     H193929   8.414   1.217   1.009
31229WAT     H293930   8.406   1.072   0.934
31230WAT      O93931   5.504   8.672   9.399
31230WAT     H193932   5.423   8.725   9.425
31230WAT     H293933   5.525   8.605   9.470
31231WAT      O93934   3.153   1.658   9.642
31231WAT     H193935   3.141   1.755   9.665
31231WAT     H293936   3.240   1.626   9.681
31232WAT      O93937   0.061   5.702   3.670
31232WAT     H193938   0.125   5.653   3.610
31232WAT     H293939   0.075   5.673   3.764
31233WAT      O93940   6.698   8.513   7.548
31233WAT     H193941   6.679   8.511   7.646
31233WAT     H293942   6.786   8.559   7.532
31234WAT      O93943   6.825   7.806   4.288
31234WAT     H193944   6.878   7.748   4.351
31234WAT     H293945   6.887   7.862   4.234
31235WAT      O93946   5.336   3.505   1.890
31235WAT     H193947   5.246   3.536   1.923
31235WAT     H293948   5.325   3.465   1.798
31236WAT      O93949   0.976   9.555   6.846
31236WAT     H193950   0.911   9.479   6.849
31236WAT     H293951   1.067   9.521   6.869
31237WAT      O93952   7.648   4.837   8.015
31237WAT     H193953   7.585   4.760   8.004
31237WAT     H293954   7.641   4.873   8.108
31238WAT      O93955   0.546   1.855   5.798
31238WAT     H193956   0.573   1.866   5.894
31238WAT     H293957   0.487   1.930   5.771
31239WAT      O93958   4.566   0.066   9.022
31239WAT     H193959   4.540   0.143   8.964
31239WAT     H293960   4.484   0.021   9.059
31240WAT      O93961   2.309   3.589   2.006
31240WAT     H193962   2.358   3.641   2.075
31240WAT     H293963   2.343   3.613   1.915
31241WAT      O93964   8.864   2.883   4.221
31241WAT     H193965   8.870   2.976   4.185
31241WAT     H293966   8.957   2.845   4.231
31242WAT      O93967   7.855   7.738   5.786
31242WAT     H193968   7.788   7.768   5.718
31242WAT     H293969   7.947   7.745   5.747
31243WAT      O93970   0.230   7.872   8.779
31243WAT     H193971   0.191   7.811   8.710
31243WAT     H293972   0.293   7.820   8.837
31244WAT      O93973   6.119   6.215   0.257
31244WAT     H193974   6.201   6.182   0.304
31244WAT     H293975   6.043   6.152   0.275
31245WAT      O93976   6.832   3.812   8.872
31245WAT     H193977   6.737   3.799   8.843
31245WAT     H293978   6.834   3.855   8.962
31246WAT      O93979   3.461   2.310   6.797
31246WAT     H193980   3.386   2.285   6.857
31246WAT     H293981   3.526   2.234   6.790
31247WAT      O93982   3.632   4.008   3.088
31247WAT     H193983   3.533   4.014   3.073
31247WAT     H293984   3.677   3.974   3.006
31248WAT      O93985   2.864   7.862   7.541
31248WAT     H193986   2.780   7.914   7.556
31248WAT     H293987   2.939   7.905   7.590
31249WAT      O93988   3.465   6.699   5.222
31249WAT     H193989   3.401   6.669   5.151
31249WAT     H293990   3.558   6.684   5.191
31250WAT      O93991   4.897   6.748   7.354
31250WAT     H193992   4.814   6.764   7.408
31250WAT     H293993   4.894   6.654   7.318
31251WAT      O93994   6.888   8.238   0.868
31251WAT     H193995   6.928   8.244   0.959
31251WAT     H293996   6.944   8.289   0.803
31252WAT      O93997   3.111   7.099   3.783
31252WAT     H193998   3.030   7.100   3.726
31252WAT     H293999   3.087   7.129   3.876
31253WAT      O94000   4.189   4.775   8.254
31253WAT     H194001   4.242   4.851   8.289
31253WAT     H294002   4.250   4.708   8.212
31254WAT      O94003   1.892   4.290   9.435
31254WAT     H194004   1.813   4.254   9.386
31254WAT     H294005   1.927   4.220   9.497
31255WAT      O94006   0.389   2.435   7.728
31255WAT     H194007   0.455   2.391   7.667
31255WAT     H294008   0.297   2.401   7.708
31256WAT      O94009   0.771   5.139   4.593
31256WAT     H194010   0.762   5.040   4.591
31256WAT     H294011   0.746   5.173   4.684
31257WAT      O94012   1.685   2.704   6.435
31257WAT     H194013   1.750   2.740   6.501
31257WAT     H294014   1.593   2.707   6.474
31258WAT      O94015   1.760   6.129   8.222
31258WAT     H194016   1.701   6.076   8.161
31258WAT     H294017   1.825   6.181   8.166
31259WAT      O94018   8.352   3.540   6.738
31259WAT     H194019   8.377   3.453   6.781
31259WAT     H294020   8.368   3.534   6.640
31260WAT      O94021   0.237   3.097   5.267
31260WAT     H194022   0.182   3.181   5.270
31260WAT     H294023   0.312   3.105   5.334
31261WAT      O94024   5.415   1.648   9.498
31261WAT     H194025   5.367   1.571   9.540
31261WAT     H294026   5.513   1.628   9.493
31262WAT      O94027   9.415   0.159   6.529
31262WAT     H194028   9.458   0.071   6.507
31262WAT     H294029   9.317   0.144   6.545
31263WAT      O94030   5.056   4.728   4.708
31263WAT     H194031   4.963   4.731   4.745
31263WAT     H294032   5.080   4.818   4.670
31264WAT      O94033   1.946   2.773   4.001
31264WAT     H194034   1.885   2.844   4.035
31264WAT     H294035   1.948   2.776   3.901
31265WAT      O94036   5.383   7.544   5.790
31265WAT     H194037   5.436   7.594   5.722
31265WAT     H294038   5.374   7.448   5.761
31266WAT      O94039   0.747   7.473   8.882
31266WAT     H194040   0.653   7.444   8.867
31266WAT     H294041   0.809   7.397   8.861
31267WAT      O94042   1.620   6.352   5.951
31267WAT     H194043   1.666   6.352   6.040
31267WAT     H294044   1.687   6.364   5.879
31268WAT      O94045   1.544   5.880   2.565
31268WAT     H194046   1.513   5.915   2.653
31268WAT     H294047   1.465   5.870   2.504
31269WAT      O94048   8.980   9.727   7.227
31269WAT     H194049   9.059   9.777   7.190
31269WAT     H294050   8.996   9.629   7.220
31270WAT      O94051   8.886   4.384   5.397
31270WAT     H194052   8.832   4.308   5.432
31270WAT     H294053   8.974   4.388   5.446
31271WAT      O94054   8.009   3.075   6.525
31271WAT     H194055   8.061   3.116   6.600
31271WAT     H294056   7.942   3.011   6.563
31272WAT      O94057   6.438   0.892   7.010
31272WAT     H194058   6.415   0.821   6.943
31272WAT     H294059   6.479   0.970   6.963
31273WAT      O94060   6.189   5.124   6.267
31273WAT     H194061   6.249   5.137   6.188
31273WAT     H294062   6.209   5.036   6.310
31274WAT      O94063   0.451   3.988   9.161
31274WAT     H194064   0.357   4.023   9.160
31274WAT     H294065   0.515   4.064   9.154
31275WAT      O94066   4.070   8.502   2.535
31275WAT     H194067   4.143   8.562   2.567
31275WAT     H294068   4.092   8.407   2.558
31276WAT      O94069   6.300   0.475   9.291
31276WAT     H194070   6.368   0.458   9.362
31276WAT     H294071   6.301   0.399   9.225
31277WAT      O94072   7.984   8.462   4.375
31277WAT     H194073   7.936   8.482   4.460
31277WAT     H294074   7.993   8.363   4.364
31278WAT      O94075   5.032   8.081   2.159
31278WAT     H194076   5.043   8.075   2.060
31278WAT     H294077   4.951   8.029   2.187
31279WAT      O94078   2.154   3.797   8.673
31279WAT     H194079   2.064   3.813   8.714
31279WAT     H294080   2.176   3.700   8.678
31280WAT      O94081   5.036   8.459   1.914
31280WAT     H194082   5.032   8.476   2.012
31280WAT     H294083   5.085   8.534   1.869
31281WAT      O94084   7.237   6.205   5.824
31281WAT     H194085   7.279   6.153   5.750
31281WAT     H294086   7.261   6.163   5.912
31282WAT      O94087   9.364   0.351   3.795
31282WAT     H194088   9.374   0.448   3.816
31282WAT     H294089   9.453   0.311   3.775
31283WAT      O94090   4.432   6.683   5.105
31283WAT     H194091   4.418   6.644   5.196
31283WAT     H294092   4.500   6.629   5.055
31284WAT      O94093   8.710   8.726   8.571
31284WAT     H194094   8.697   8.817   8.611
31284WAT     H294095   8.682   8.728   8.475
31285WAT      O94096   7.522   1.395   7.379
31285WAT     H194097   7.450   1.464   7.375
31285WAT     H294098   7.483   1.309   7.413
31286WAT      O94099   6.538   5.420   8.175
31286WAT     H194100   6.621   5.475   8.165
31286WAT     H294101   6.461   5.468   8.134
31287WAT      O94102   5.019   8.337   5.218
31287WAT     H194103   4.985   8.283   5.141
31287WAT     H294104   5.065   8.419   5.183
31288WAT      O94105   3.794   3.789   8.437
31288WAT     H194106   3.806   3.693   8.461
31288WAT     H294107   3.742   3.797   8.352
31289WAT      O94108   0.659   5.170   4.314
31289WAT     H194109   0.614   5.237   4.373
31289WAT     H294110   0.747   5.144   4.354
31290WAT      O94111   8.823   9.244   6.394
31290WAT     H194112   8.830   9.332   6.441
31290WAT     H294113   8.835   9.258   6.295
31291WAT      O94114   5.429   8.127   8.302
31291WAT     H194115   5.345   8.076   8.284
31291WAT     H294116   5.497   8.067   8.343
31292WAT      O94117   3.893   6.406   6.890
31292WAT     H194118   3.941   6.326   6.854
31292WAT     H294119   3.957   6.461   6.944
31293WAT      O94120   1.075   4.787   0.169
31293WAT     H194121   1.015   4.760   0.244
31293WAT     H294122   1.021   4.829   0.096
31294WAT      O94123   5.577   3.980   0.673
31294WAT     H194124   5.676   3.995   0.673
31294WAT     H294125   5.531   4.058   0.715
31295WAT      O94126   1.424   0.535   1.295
31295WAT     H194127   1.382   0.446   1.312
31295WAT     H294128   1.394   0.600   1.366
31296WAT      O94129   3.353   2.352   4.409
31296WAT     H194130   3.363   2.257   4.379
31296WAT     H294131   3.383   2.361   4.504
31297WAT      O94132   4.842   9.384   1.642
31297WAT     H194133   4.931   9.360   1.681
31297WAT     H294134   4.809   9.468   1.685
31298WAT      O94135   8.438   2.520   3.234
31298WAT     H194136   8.483   2.443   3.189
31298WAT     H294137   8.483   2.605   3.208
31299WAT      O94138   5.953   1.227   2.632
31299WAT     H194139   5.961   1.170   2.550
31299WAT     H294140   5.869   1.203   2.680
31300WAT      O94141   8.902   7.427   0.440
31300WAT     H194142   8.928   7.440   0.344
31300WAT     H294143   8.867   7.514   0.477
31301WAT      O94144   7.389   4.362   2.216
31301WAT     H194145   7.316   4.422   2.248
31301WAT     H294146   7.454   4.346   2.290
31302WAT      O94147   8.767   7.358   9.001
31302WAT     H194148   8.771   7.261   9.025
31302WAT     H294149   8.764   7.412   9.084
31303WAT      O94150   7.951   8.189   4.384
31303WAT     H194151   8.003   8.123   4.330
31303WAT     H294152   7.857   8.193   4.351
31304WAT      O94153   8.888   1.286   8.699
31304WAT     H194154   8.851   1.373   8.733
31304WAT     H294155   8.823   1.212   8.717
31305WAT      O94156   0.175   3.594   4.241
31305WAT     H194157   0.096   3.652   4.225
31305WAT     H294158   0.186   3.530   4.165
31306WAT      O94159   8.856   6.526   2.223
31306WAT     H194160   8.824   6.611   2.265
31306WAT     H294161   8.906   6.547   2.139
31307WAT      O94162   7.428   3.590   6.230
31307WAT     H194163   7.398   3.605   6.136
31307WAT     H294164   7.452   3.678   6.272
31308WAT      O94165   2.382   0.963   0.844
31308WAT     H194166   2.392   0.985   0.746
31308WAT     H294167   2.332   1.037   0.889
31309WAT      O94168   9.263   4.764   6.920
31309WAT     H194169   9.164   4.771   6.931
31309WAT     H294170   9.292   4.819   6.842
31310WAT      O94171   0.583   0.165   4.622
31310WAT     H194172   0.594   0.264   4.615
31310WAT     H294173   0.486   0.143   4.632
31311WAT      O94174   0.311   9.673   4.553
31311WAT     H194175   0.212   9.664   4.562
31311WAT     H294176   0.357   9.630   4.631
31312WAT      O94177   1.450   7.774   1.135
31312WAT     H194178   1.519   7.787   1.063
31312WAT     H294179   1.466   7.840   1.208
31313WAT      O94180   7.702   7.521   8.529
31313WAT     H194181   7.750   7.596   8.575
31313WAT     H294182   7.751   7.435   8.546
31314WAT      O94183   6.584   2.228   6.531
31314WAT     H194184   6.549   2.230   6.438
31314WAT     H294185   6.547   2.148   6.579
31315WAT      O94186   5.074   8.031   1.895
31315WAT     H194187   5.055   7.938   1.865
31315WAT     H294188   5.043   8.096   1.826
31316WAT      O94189   1.276   9.494   5.216
31316WAT     H194190   1.266   9.411   5.272
31316WAT     H294191   1.283   9.574   5.276
31317WAT      O94192   3.346   7.169   4.704
31317WAT     H194193   3.265   7.223   4.685
31317WAT     H294194   3.328   7.107   4.781
31318WAT      O94195   2.966   5.234   9.377
31318WAT     H194196   3.041   5.281   9.424
31318WAT     H294197   2.987   5.226   9.280
31319WAT      O94198   8.969   0.512   8.386
31319WAT     H194199   8.963   0.527   8.287
31319WAT     H294200   8.878   0.488   8.422
31320WAT      O94201   9.833   1.139   4.402
31320WAT     H194202   9.813   1.069   4.470
31320WAT     H294203   9.767   1.133   4.327
31321WAT      O94204   6.931   4.097   7.348
31321WAT     H194205   6.957   4.025   7.413
31321WAT     H294206   6.967   4.185   7.379
31322WAT      O94207   8.966   7.237   0.961
31322WAT     H194208   8.906   7.300   1.011
31322WAT     H294209   8.998   7.166   1.023
31323WAT      O94210   9.029   1.591   8.545
31323WAT     H194211   8.961   1.663   8.562
31323WAT     H294212   9.106   1.603   8.606
31324WAT      O94213   6.867   1.115   2.984
31324WAT     H194214   6.790   1.073   3.033
31324WAT     H294215   6.850   1.113   2.886
31325WAT      O94216   4.812   3.605   5.324
31325WAT     H194217   4.792   3.615   5.422
31325WAT     H294218   4.844   3.512   5.306
31326WAT      O94219   6.864   5.680   1.957
31326WAT     H194220   6.952   5.697   2.002
31326WAT     H294221   6.875   5.690   1.858
31327WAT      O94222   6.237   5.014   8.870
31327WAT     H194223   6.145   5.034   8.904
31327WAT     H294224   6.300   5.007   8.947
31328WAT      O94225   9.128   7.523   2.713
31328WAT     H194226   9.213   7.535   2.662
31328WAT     H294227   9.103   7.609   2.756
31329WAT      O94228   1.940   3.606   0.554
31329WAT     H194229   1.877   3.660   0.610
31329WAT     H294230   2.027   3.653   0.546
31330WAT      O94231   4.537   2.889   1.426
31330WAT     H194232   4.490   2.859   1.343
31330WAT     H294233   4.533   2.988   1.433
31331WAT      O94234   4.786   0.595   7.320
31331WAT     H194235   4.747   0.512   7.280
31331WAT     H294236   4.871   0.572   7.368
31332WAT      O94237   9.280   2.309   2.528
31332WAT     H194238   9.254   2.233   2.588
31332WAT     H294239   9.336   2.275   2.453
31333WAT      O94240   5.164   4.386   7.262
31333WAT     H194241   5.098   4.459   7.283
31333WAT     H294242   5.222   4.415   7.186
31334WAT      O94243   7.630   4.070   4.426
31334WAT     H194244   7.711   4.020   4.393
31334WAT     H294245   7.659   4.144   4.487
31335WAT      O94246   4.766   1.102   0.481
31335WAT     H194247   4.762   1.065   0.388
31335WAT     H294248   4.773   1.026   0.546
31336WAT      O94249   6.311   4.780   6.032
31336WAT     H194250   6.267   4.818   5.951
31336WAT     H294251   6.251   4.791   6.111
31337WAT      O94252   5.460   7.313   9.565
31337WAT     H194253   5.503   7.390   9.612
31337WAT     H294254   5.399   7.347   9.494
31338WAT      O94255   2.949   7.909   1.547
31338WAT     H194256   2.954   7.856   1.631
31338WAT     H294257   2.858   7.949   1.539
31339WAT      O94258   1.843   3.243   6.199
31339WAT     H194259   1.913   3.264   6.131
31339WAT     H294260   1.850   3.146   6.225
31340WAT      O94261   2.001   8.270   4.200
31340WAT     H194262   1.940   8.192   4.184
31340WAT     H294263   1.970   8.349   4.147
31341WAT      O94264   2.861   3.872   2.229
31341WAT     H194265   2.906   3.905   2.146
31341WAT     H294266   2.929   3.835   2.291
31342WAT      O94267   7.173   5.714   9.005
31342WAT     H194268   7.141   5.632   9.053
31342WAT     H294269   7.095   5.761   8.964
31343WAT      O94270   5.523   5.452   3.381
31343WAT     H194271   5.530   5.488   3.474
31343WAT     H294272   5.457   5.506   3.329
31344WAT      O94273   3.359   0.763   1.559
31344WAT     H194274   3.441   0.752   1.502
31344WAT     H294275   3.297   0.686   1.544
31345WAT      O94276   2.313   3.798   0.005
31345WAT     H194277   2.285   3.890   0.032
31345WAT     H294278   2.255   3.766  -0.070
31346WAT      O94279   6.043   8.866   4.014
31346WAT     H194280   5.948   8.897   4.012
31346WAT     H294281   6.090   8.898   3.931
31347WAT      O94282   5.449   0.578   3.053
31347WAT     H194283   5.460   0.575   2.953
31347WAT     H294284   5.535   0.551   3.096
31348WAT      O94285   7.842   3.067   1.579
31348WAT     H194286   7.854   3.120   1.495
31348WAT     H294287   7.811   3.127   1.652
31349WAT      O94288   3.803   6.154   9.675
31349WAT     H194289   3.803   6.110   9.585
31349WAT     H294290   3.889   6.204   9.687
31350WAT      O94291   3.721   7.075   7.737
31350WAT     H194292   3.807   7.055   7.784
31350WAT     H294293   3.650   7.012   7.770
31351WAT      O94294   3.740   4.455   2.540
31351WAT     H194295   3.710   4.467   2.635
31351WAT     H294296   3.660   4.447   2.481
31352WAT      O94297   8.021   7.284   2.223
31352WAT     H194298   7.971   7.225   2.159
31352WAT     H294299   7.968   7.366   2.241
31353WAT      O94300   5.135   1.733   2.236
31353WAT     H194301   5.062   1.787   2.194
31353WAT     H294302   5.102   1.641   2.257
31354WAT      O94303   7.927   8.058   5.071
31354WAT     H194304   7.899   8.145   5.031
31354WAT     H294305   7.855   7.990   5.057
31355WAT      O94306   9.014   0.021   9.863
31355WAT     H194307   9.082   0.057   9.927
31355WAT     H294308   9.046   0.036   9.769
31356WAT      O94309   4.751   5.104   8.384
31356WAT     H194310   4.813   5.026   8.390
31356WAT     H294311   4.680   5.085   8.316
31357WAT      O94312   2.598   6.490   7.428
31357WAT     H194313   2.680   6.437   7.405
31357WAT     H294314   2.586   6.491   7.527
31358WAT      O94315   6.852   8.361   8.015
31358WAT     H194316   6.866   8.282   7.956
31358WAT     H294317   6.757   8.362   8.047
31359WAT      O94318   6.921   6.589   5.521
31359WAT     H194319   6.974   6.674   5.526
31359WAT     H294320   6.866   6.579   5.604
31360WAT      O94321   1.039   4.584   2.667
31360WAT     H194322   0.952   4.572   2.619
31360WAT     H294323   1.059   4.502   2.720
31361WAT      O94324   4.766   4.820   3.087
31361WAT     H194325   4.849   4.812   3.032
31361WAT     H294326   4.756   4.737   3.143
31362WAT      O94327   8.049   4.764   3.971
31362WAT     H194328   8.097   4.840   4.016
31362WAT     H294329   8.058   4.774   3.872
31363WAT      O94330   0.897   1.702   9.259
31363WAT     H194331   0.881   1.605   9.241
31363WAT     H294332   0.866   1.755   9.180
31364WAT      O94333   0.403   4.202   8.981
31364WAT     H194334   0.396   4.292   9.024
31364WAT     H294335   0.500   4.180   8.967
31365WAT      O94336   4.219   5.234   5.260
31365WAT     H194337   4.233   5.172   5.337
31365WAT     H294338   4.215   5.328   5.293
31366WAT      O94339   0.041   5.339   3.098
31366WAT     H194340  -0.053   5.308   3.112
31366WAT     H294341   0.040   5.434   3.065
31367WAT      O94342   8.406   1.260   2.769
31367WAT     H194343   8.333   1.281   2.704
31367WAT     H294344   8.397   1.166   2.801
31368WAT      O94345   4.306   6.865   8.764
31368WAT     H194346   4.211   6.862   8.795
31368WAT     H294347   4.313   6.825   8.673
31369WAT      O94348   3.016   2.156   1.339
31369WAT     H194349   2.957   2.134   1.416
31369WAT     H294350   3.111   2.163   1.370
31370WAT      O94351   0.032   4.289   9.295
31370WAT     H194352   0.089   4.290   9.378
31370WAT     H294353   0.012   4.382   9.267
31371WAT      O94354   1.277   2.782   2.910
31371WAT     H194355   1.224   2.699   2.893
31371WAT     H294356   1.297   2.790   3.008
31372WAT      O94357   4.703   2.851   0.528
31372WAT     H194358   4.733   2.946   0.532
31372WAT     H294359   4.782   2.790   0.537
31373WAT      O94360   9.838   2.990   5.103
31373WAT     H194361   9.778   2.923   5.057
31373WAT     H294362   9.933   2.972   5.076
31374WAT      O94363   8.560   4.195   5.814
31374WAT     H194364   8.598   4.132   5.882
31374WAT     H294365   8.605   4.284   5.821
31375WAT      O94366   5.353   7.672   3.533
31375WAT     H194367   5.259   7.683   3.564
31375WAT     H294368   5.406   7.754   3.557
31376WAT      O94369   3.804   6.642   4.582
31376WAT     H194370   3.833   6.626   4.487
31376WAT     H294371   3.712   6.681   4.583
31377WAT      O94372   9.462   4.831   2.868
31377WAT     H194373   9.438   4.884   2.949
31377WAT     H294374   9.482   4.893   2.792
31378WAT      O94375   5.396   3.109   9.758
31378WAT     H194376   5.491   3.103   9.787
31378WAT     H294377   5.385   3.187   9.696
31379WAT      O94378   8.084   2.554   3.854
31379WAT     H194379   8.057   2.477   3.796
31379WAT     H294380   8.135   2.621   3.800
31380WAT      O94381   3.721   5.369   1.472
31380WAT     H194382   3.799   5.423   1.439
31380WAT     H294383   3.649   5.431   1.503
31381WAT      O94384   3.578   3.266   1.769
31381WAT     H194385   3.645   3.340   1.779
31381WAT     H294386   3.523   3.260   1.852
31382WAT      O94387   9.804   4.111   3.577
31382WAT     H194388   9.824   4.125   3.480
31382WAT     H294389   9.743   4.032   3.588
31383WAT      O94390   2.895   2.291   8.945
31383WAT     H194391   2.885   2.259   9.039
31383WAT     H294392   2.923   2.214   8.887
31384WAT      O94393   4.950   2.588   2.013
31384WAT     H194394   4.951   2.636   1.925
31384WAT     H294395   5.019   2.515   2.011
31385WAT      O94396   5.942   2.648   8.625
31385WAT     H194397   5.947   2.712   8.701
31385WAT     H294398   5.850   2.611   8.617
31386WAT      O94399   1.232   8.520   1.294
31386WAT     H194400   1.178   8.544   1.214
31386WAT     H294401   1.274   8.430   1.280
31387WAT      O94402   7.122   0.682   8.109
31387WAT     H194403   7.161   0.590   8.105
31387WAT     H294404   7.066   0.691   8.191
31388WAT      O94405   2.031   4.983   7.005
31388WAT     H194406   2.081   4.898   7.023
31388WAT     H294407   2.041   5.007   6.908
31389WAT      O94408   8.039   0.035   9.650
31389WAT     H194409   8.078  -0.041   9.703
31389WAT     H294410   8.069   0.029   9.555
31390WAT      O94411   7.006   7.909   0.128
31390WAT     H194412   7.050   7.844   0.191
31390WAT     H294413   6.984   7.863   0.043
31391WAT      O94414   9.371   4.138   1.615
31391WAT     H194415   9.313   4.080   1.557
31391WAT     H294416   9.420   4.203   1.558
31392WAT      O94417   1.148   6.360   6.086
31392WAT     H194418   1.084   6.299   6.038
31392WAT     H294419   1.150   6.335   6.183
31393WAT      O94420   1.703   9.533   7.494
31393WAT     H194421   1.662   9.461   7.550
31393WAT     H294422   1.675   9.623   7.529
31394WAT      O94423   2.809   4.768   2.992
31394WAT     H194424   2.732   4.760   2.928
31394WAT     H294425   2.778   4.747   3.085
31395WAT      O94426   9.422   9.261   9.226
31395WAT     H194427   9.424   9.346   9.280
31395WAT     H294428   9.399   9.184   9.285
31396WAT      O94429   7.706   1.973   3.283
31396WAT     H194430   7.666   1.972   3.191
31396WAT     H294431   7.791   2.027   3.282
31397WAT      O94432   4.576   8.092   7.485
31397WAT     H194433   4.539   8.045   7.405
31397WAT     H294434   4.526   8.065   7.567
31398WAT      O94435   6.353   2.920   8.980
31398WAT     H194436   6.359   2.822   8.994
31398WAT     H294437   6.357   2.967   9.069
31399WAT      O94438   5.470   4.022   9.865
31399WAT     H194439   5.391   3.966   9.841
31399WAT     H294440   5.497   4.077   9.786
31400WAT      O94441   9.407   7.646   7.575
31400WAT     H194442   9.452   7.660   7.487
31400WAT     H294443   9.417   7.729   7.631
31401WAT      O94444   9.314   2.507   8.102
31401WAT     H194445   9.329   2.574   8.174
31401WAT     H294446   9.337   2.548   8.013
31402WAT      O94447   0.720   2.865   9.355
31402WAT     H194448   0.750   2.960   9.360
31402WAT     H294449   0.791   2.810   9.311
31403WAT      O94450   7.817   7.774   0.051
31403WAT     H194451   7.869   7.750  -0.031
31403WAT     H294452   7.721   7.749   0.038
31404WAT      O94453   6.571   0.344   4.755
31404WAT     H194454   6.590   0.443   4.753
31404WAT     H294455   6.536   0.318   4.845
31405WAT      O94456   7.125   8.937   9.402
31405WAT     H194457   7.122   9.014   9.465
31405WAT     H294458   7.196   8.952   9.333
31406WAT      O94459   3.735   3.008   2.920
31406WAT     H194460   3.672   2.947   2.968
31406WAT     H294461   3.818   2.958   2.897
31407WAT      O94462   1.151   8.070   8.616
31407WAT     H194463   1.063   8.116   8.627
31407WAT     H294464   1.225   8.137   8.626
31408WAT      O94465   5.486   6.289   9.809
31408WAT     H194466   5.573   6.243   9.827
31408WAT     H294467   5.486   6.378   9.855
31409WAT      O94468   0.313   7.722   0.639
31409WAT     H194469   0.327   7.782   0.717
31409WAT     H294470   0.397   7.671   0.621
31410WAT      O94471   7.952   3.758   3.903
31410WAT     H194472   7.929   3.856   3.896
31410WAT     H294473   8.032   3.747   3.961
31411WAT      O94474   9.210   6.454   1.605
31411WAT     H194475   9.159   6.393   1.545
31411WAT     H294476   9.227   6.409   1.693
31412WAT      O94477   5.132   0.050   9.342
31412WAT     H194478   5.083  -0.006   9.408
31412WAT     H294479   5.135   0.003   9.254
31413WAT      O94480   2.830   3.529   1.687
31413WAT     H194481   2.755   3.535   1.620
31413WAT     H294482   2.913   3.499   1.641
31414WAT      O94483   6.446   0.296   5.931
31414WAT     H194484   6.446   0.225   5.860
31414WAT     H294485   6.431   0.385   5.888
31415WAT      O94486   7.554   5.060   1.284
31415WAT     H194487   7.590   4.967   1.282
31415WAT     H294488   7.511   5.078   1.373
31416WAT      O94489   1.267   6.387   3.799
31416WAT     H194490   1.287   6.357   3.892
31416WAT     H294491   1.206   6.466   3.802
31417WAT      O94492   7.544   6.505   5.860
31417WAT     H194493   7.457   6.555   5.859
31417WAT     H294494   7.545   6.442   5.938
31418WAT      O94495   0.587   9.834   3.814
31418WAT     H194496   0.683   9.806   3.803
31418WAT     H294497   0.566   9.844   3.911
31419WAT      O94498   1.962   4.509   3.163
31419WAT     H194499   1.955   4.548   3.255
31419WAT     H294500   1.940   4.580   3.095
31420WAT      O94501   4.667   8.272   4.985
31420WAT     H194502   4.658   8.348   4.921
31420WAT     H294503   4.763   8.245   4.991
31421WAT      O94504   3.008   3.545   8.512
31421WAT     H194505   3.061   3.630   8.509
31421WAT     H294506   2.922   3.558   8.463
31422WAT      O94507   2.134   7.805   1.049
31422WAT     H194508   2.234   7.798   1.054
31422WAT     H294509   2.094   7.714   1.055
31423WAT      O94510   2.685   1.642   2.219
31423WAT     H194511   2.607   1.591   2.183
31423WAT     H294512   2.661   1.678   2.310
31424WAT      O94513   3.844   0.756   0.603
31424WAT     H194514   3.925   0.811   0.579
31424WAT     H294515   3.761   0.807   0.582
31425WAT      O94516   9.525   6.536   4.267
31425WAT     H194517   9.588   6.465   4.236
31425WAT     H294518   9.519   6.608   4.198
31426WAT      O94519   1.992   4.703   5.260
31426WAT     H194520   2.054   4.682   5.184
31426WAT     H294521   1.963   4.798   5.253
31427WAT      O94522   8.927   8.650   6.312
31427WAT     H194523   8.979   8.657   6.226
31427WAT     H294524   8.900   8.742   6.341
31428WAT      O94525   6.133   0.167   4.989
31428WAT     H194526   6.143   0.068   4.995
31428WAT     H294527   6.147   0.196   4.894
31429WAT      O94528   8.085   0.307   4.167
31429WAT     H194529   8.076   0.302   4.267
31429WAT     H294530   8.039   0.228   4.126
31430WAT      O94531   0.708   3.938   8.241
31430WAT     H194532   0.659   4.026   8.235
31430WAT     H294533   0.802   3.955   8.269
31431WAT      O94534   8.724   2.202   6.335
31431WAT     H194535   8.731   2.260   6.416
31431WAT     H294536   8.729   2.258   6.252
31432WAT      O94537   4.505   3.000   4.863
31432WAT     H194538   4.504   3.074   4.930
31432WAT     H294539   4.476   2.915   4.906
31433WAT      O94540   3.193   2.982   8.109
31433WAT     H194541   3.239   3.049   8.051
31433WAT     H294542   3.254   2.952   8.182
31434WAT      O94543   4.953   9.003   1.966
31434WAT     H194544   4.956   8.906   1.988
31434WAT     H294545   5.028   9.025   1.903
31435WAT      O94546   5.142   8.637   9.006
31435WAT     H194547   5.165   8.701   9.079
31435WAT     H294548   5.043   8.631   8.997
31436WAT      O94549   9.413   8.047   2.896
31436WAT     H194550   9.473   7.985   2.947
31436WAT     H294551   9.371   7.998   2.820
31437WAT      O94552   5.516   9.730   4.116
31437WAT     H194553   5.588   9.740   4.185
31437WAT     H294554   5.554   9.741   4.025
31438WAT      O94555   9.693   9.696   7.654
31438WAT     H194556   9.675   9.699   7.556
31438WAT     H294557   9.635   9.625   7.696
31439WAT      O94558   2.612   1.486   7.463
31439WAT     H194559   2.650   1.555   7.525
31439WAT     H294560   2.623   1.517   7.368
31440WAT      O94561   7.727   8.491   4.465
31440WAT     H194562   7.762   8.551   4.394
31440WAT     H294563   7.708   8.400   4.427
31441WAT      O94564   2.081   2.983   4.646
31441WAT     H194565   1.985   2.977   4.618
31441WAT     H294566   2.128   2.898   4.624
31442WAT      O94567   1.221   6.536   1.486
31442WAT     H194568   1.177   6.559   1.573
31442WAT     H294569   1.255   6.620   1.443
31443WAT      O94570   7.086   2.313   5.782
31443WAT     H194571   7.123   2.382   5.721
31443WAT     H294572   7.067   2.229   5.730
31444WAT      O94573   0.819   9.170   1.649
31444WAT     H194574   0.761   9.234   1.599
31444WAT     H294575   0.897   9.219   1.689
31445WAT      O94576   0.982   4.652   9.635
31445WAT     H194577   0.886   4.651   9.665
31445WAT     H294578   1.018   4.744   9.642
31446WAT      O94579   5.252   7.497   5.142
31446WAT     H194580   5.243   7.597   5.149
31446WAT     H294581   5.284   7.473   5.050
31447WAT      O94582   7.138   5.392   3.820
31447WAT     H194583   7.113   5.485   3.794
31447WAT     H294584   7.067   5.328   3.789
31448WAT      O94585   3.412   3.607   0.776
31448WAT     H194586   3.430   3.615   0.678
31448WAT     H294587   3.342   3.673   0.803
31449WAT      O94588   0.483   7.811   4.439
31449WAT     H194589   0.459   7.879   4.370
31449WAT     H294590   0.425   7.823   4.519
31450WAT      O94591   4.408   5.852   2.956
31450WAT     H194592   4.335   5.911   2.990
31450WAT     H294593   4.385   5.756   2.975
31451WAT      O94594   1.467   7.263   9.305
31451WAT     H194595   1.434   7.291   9.395
31451WAT     H294596   1.527   7.183   9.316
31452WAT      O94597   0.971   5.372   9.390
31452WAT     H194598   0.897   5.376   9.323
31452WAT     H294599   0.945   5.314   9.466
31453WAT      O94600   6.715   1.941   5.658
31453WAT     H194601   6.758   2.031   5.648
31453WAT     H294602   6.664   1.919   5.574
31454WAT      O94603   5.186   3.794   9.418
31454WAT     H194604   5.123   3.870   9.403
31454WAT     H294605   5.277   3.830   9.440
31455WAT      O94606   3.425   0.125   3.569
31455WAT     H194607   3.429   0.216   3.609
31455WAT     H294608   3.343   0.118   3.512
31456WAT      O94609   8.182   2.616   9.805
31456WAT     H194610   8.170   2.552   9.729
31456WAT     H294611   8.186   2.709   9.770
31457WAT      O94612   5.488   6.678   3.028
31457WAT     H194613   5.412   6.627   3.067
31457WAT     H294614   5.472   6.695   2.931
31458WAT      O94615   0.184   8.605   4.352
31458WAT     H194616   0.111   8.572   4.411
31458WAT     H294617   0.259   8.641   4.408
31459WAT      O94618   7.177   4.384   4.211
31459WAT     H194619   7.223   4.394   4.299
31459WAT     H294620   7.112   4.308   4.216
31460WAT      O94621   2.142   2.501   0.108
31460WAT     H194622   2.121   2.579   0.049
31460WAT     H294623   2.184   2.533   0.193
31461WAT      O94624   2.391   9.418   4.865
31461WAT     H194625   2.294   9.410   4.841
31461WAT     H294626   2.405   9.500   4.920
31462WAT      O94627   2.722   5.598   6.551
31462WAT     H194628   2.741   5.696   6.550
31462WAT     H294629   2.716   5.567   6.646
31463WAT      O94630   9.555   2.955   2.610
31463WAT     H194631   9.572   2.950   2.511
31463WAT     H294632   9.463   2.991   2.625
31464WAT      O94633   6.293   0.272   2.227
31464WAT     H194634   6.309   0.361   2.269
31464WAT     H294635   6.302   0.200   2.296
31465WAT      O94636   7.824   0.116   3.099
31465WAT     H194637   7.827   0.078   3.191
31465WAT     H294638   7.765   0.060   3.041
31466WAT      O94639   7.842   7.983   3.564
31466WAT     H194640   7.744   7.997   3.551
31466WAT     H294641   7.861   7.885   3.575
31467WAT      O94642   0.125   7.150   0.975
31467WAT     H194643   0.159   7.070   0.924
31467WAT     H294644   0.140   7.233   0.921
31468WAT      O94645   4.867   2.579   6.741
31468WAT     H194646   4.812   2.662   6.735
31468WAT     H294647   4.816   2.508   6.789
31469WAT      O94648   8.595   3.736   7.754
31469WAT     H194649   8.573   3.668   7.824
31469WAT     H294650   8.519   3.743   7.689
31470WAT      O94651   4.740   5.409   3.939
31470WAT     H194652   4.744   5.431   4.036
31470WAT     H294653   4.787   5.480   3.887
31471WAT      O94654   8.206   0.767   6.708
31471WAT     H194655   8.222   0.752   6.805
31471WAT     H294656   8.195   0.679   6.662
31472WAT      O94657   5.174   1.011   7.939
31472WAT     H194658   5.116   1.084   7.904
31472WAT     H294659   5.119   0.929   7.955
31473WAT      O94660   2.222   6.302   8.112
31473WAT     H194661   2.230   6.309   8.012
31473WAT     H294662   2.191   6.210   8.137
31474WAT      O94663   0.589   6.334   7.972
31474WAT     H194664   0.558   6.403   7.906
31474WAT     H294665   0.513   6.273   7.994
31475WAT      O94666   4.527   8.753   1.909
31475WAT     H194667   4.522   8.763   2.009
31475WAT     H294668   4.435   8.745   1.872
31476WAT      O94669   3.979   2.585   0.242
31476WAT     H194670   3.978   2.683   0.224
31476WAT     H294671   3.936   2.566   0.330
31477WAT      O94672   3.143   5.075   5.419
31477WAT     H194673   3.178   5.162   5.454
31477WAT     H294674   3.207   5.001   5.441
31478WAT      O94675   1.229   3.651   3.919
31478WAT     H194676   1.200   3.625   3.827
31478WAT     H294677   1.262   3.745   3.919
31479WAT      O94678   5.328   9.202   0.709
31479WAT     H194679   5.272   9.156   0.641
31479WAT     H294680   5.386   9.134   0.755
31480WAT      O94681   0.640   8.651   9.826
31480WAT     H194682   0.720   8.689   9.779
31480WAT     H294683   0.564   8.715   9.817
31481WAT      O94684   2.599   7.447   5.455
31481WAT     H194685   2.606   7.389   5.374
31481WAT     H294686   2.522   7.510   5.445
31482WAT      O94687   4.777   6.334   2.110
31482WAT     H194688   4.729   6.324   2.023
31482WAT     H294689   4.750   6.420   2.153
31483WAT      O94690   9.346   7.563   2.372
31483WAT     H194691   9.346   7.464   2.363
31483WAT     H294692   9.258   7.599   2.340
31484WAT      O94693   0.435   8.841   8.119
31484WAT     H194694   0.508   8.788   8.075
31484WAT     H294695   0.396   8.905   8.052
31485WAT      O94696   6.959   4.331   5.685
31485WAT     H194697   6.946   4.310   5.588
31485WAT     H294698   7.057   4.331   5.706
31486WAT      O94699   6.327   8.243   2.967
31486WAT     H194700   6.288   8.158   3.003
31486WAT     H294701   6.323   8.314   3.038
31487WAT      O94702   5.517   0.823   4.265
31487WAT     H194703   5.511   0.750   4.333
31487WAT     H294704   5.428   0.869   4.258
31488WAT      O94705   7.314   9.620   7.216
31488WAT     H194706   7.219   9.634   7.189
31488WAT     H294707   7.341   9.526   7.196
31489WAT      O94708   8.082   3.447   7.445
31489WAT     H194709   8.123   3.504   7.373
31489WAT     H294710   8.038   3.506   7.513
31490WAT      O94711   6.938   4.245   6.895
31490WAT     H194712   6.923   4.170   6.959
31490WAT     H294713   7.017   4.225   6.837
31491WAT      O94714   5.453   0.115   2.911
31491WAT     H194715   5.552   0.108   2.902
31491WAT     H294716   5.430   0.181   2.982
31492WAT      O94717   3.909   1.272   1.396
31492WAT     H194718   3.976   1.343   1.374
31492WAT     H294719   3.862   1.244   1.312
31493WAT      O94720   3.907   2.136   7.350
31493WAT     H194721   3.948   2.219   7.312
31493WAT     H294722   3.979   2.069   7.368
31494WAT      O94723   9.144   1.061   4.370
31494WAT     H194724   9.159   1.059   4.469
31494WAT     H294725   9.167   0.972   4.331
31495WAT      O94726   9.289   5.661   9.787
31495WAT     H194727   9.354   5.736   9.784
31495WAT     H294728   9.224   5.669   9.712
31496WAT      O94729   8.537   4.083   0.151
31496WAT     H194730   8.629   4.071   0.115
31496WAT     H294731   8.478   4.123   0.080
31497WAT      O94732   0.881   7.445   4.959
31497WAT     H194733   0.881   7.477   4.864
31497WAT     H294734   0.850   7.350   4.962
31498WAT      O94735   5.247   6.158   0.279
31498WAT     H194736   5.164   6.123   0.323
31498WAT     H294737   5.223   6.222   0.207
31499WAT      O94738   2.093   9.043   4.838
31499WAT     H194739   2.113   9.140   4.828
31499WAT     H294740   2.177   8.990   4.826
31500WAT      O94741   8.689   6.957   1.650
31500WAT     H194742   8.782   6.926   1.668
31500WAT     H294743   8.656   7.011   1.728
31501WAT      O94744   9.183   6.158   5.502
31501WAT     H194745   9.174   6.187   5.406
31501WAT     H294746   9.274   6.182   5.536
31502WAT      O94747   9.553   4.405   7.384
31502WAT     H194748   9.612   4.422   7.305
31502WAT     H294749   9.596   4.339   7.445
31503WAT      O94750   7.392   5.854   5.102
31503WAT     H194751   7.343   5.777   5.141
31503WAT     H294752   7.339   5.893   5.027
31504WAT      O94753   4.579   8.592   8.111
31504WAT     H194754   4.555   8.539   8.193
31504WAT     H294755   4.678   8.594   8.100
31505WAT      O94756   7.124   8.433   6.277
31505WAT     H194757   7.114   8.446   6.376
31505WAT     H294758   7.095   8.341   6.252
31506WAT      O94759   8.263   2.720   1.769
31506WAT     H194760   8.282   2.794   1.705
31506WAT     H294761   8.164   2.706   1.773
31507WAT      O94762   6.888   6.548   0.181
31507WAT     H194763   6.789   6.534   0.187
31507WAT     H294764   6.930   6.529   0.270
31508WAT      O94765   6.124   3.913   0.403
31508WAT     H194766   6.093   3.877   0.315
31508WAT     H294767   6.099   3.850   0.476
31509WAT      O94768   0.194   1.330   8.640
31509WAT     H194769   0.228   1.237   8.656
31509WAT     H294770   0.144   1.333   8.553
31510WAT      O94771   8.687   5.750   9.513
31510WAT     H194772   8.611   5.714   9.566
31510WAT     H294773   8.668   5.740   9.415
31511WAT      O94774   2.376   4.964   8.407
31511WAT     H194775   2.315   4.992   8.333
31511WAT     H294776   2.471   4.973   8.377
31512WAT      O94777   0.391   6.675   4.437
31512WAT     H194778   0.341   6.627   4.509
31512WAT     H294779   0.327   6.731   4.384
31513WAT      O94780   2.392   2.959   3.138
31513WAT     H194781   2.474   2.956   3.081
31513WAT     H294782   2.412   2.920   3.228
31514WAT      O94783   5.549   1.652   6.684
31514WAT     H194784   5.453   1.639   6.658
31514WAT     H294785   5.567   1.603   6.769
31515WAT      O94786   1.690   8.873   3.673
31515WAT     H194787   1.735   8.793   3.633
31515WAT     H294788   1.723   8.886   3.767
31516WAT      O94789   3.459   0.583   0.830
31516WAT     H194790   3.388   0.578   0.900
31516WAT     H294791   3.542   0.623   0.869
31517WAT      O94792   1.952   2.244   8.031
31517WAT     H194793   1.978   2.330   7.988
31517WAT     H294794   1.985   2.242   8.125
31518WAT      O94795   7.282   3.067   2.856
31518WAT     H194796   7.281   3.148   2.916
31518WAT     H294797   7.217   3.080   2.782
31519WAT      O94798   2.985   3.179   6.516
31519WAT     H194799   2.921   3.256   6.517
31519WAT     H294800   3.075   3.212   6.488
31520WAT      O94801   8.537   3.433   9.638
31520WAT     H194802   8.535   3.398   9.544
31520WAT     H294803   8.604   3.506   9.645
31521WAT      O94804   3.339   3.677   6.249
31521WAT     H194805   3.343   3.603   6.182
31521WAT     H294806   3.347   3.638   6.341
31522WAT      O94807   5.967   3.614   1.521
31522WAT     H194808   6.027   3.692   1.503
31522WAT     H294809   5.881   3.646   1.561
31523WAT      O94810   3.127   2.866   5.599
31523WAT     H194811   3.074   2.925   5.659
31523WAT     H294812   3.166   2.790   5.653
31524WAT      O94813   7.200   1.881   7.147
31524WAT     H194814   7.290   1.883   7.191
31524WAT     H294815   7.167   1.787   7.142
31525WAT      O94816   4.014   6.872   4.966
31525WAT     H194817   4.039   6.795   5.025
31525WAT     H294818   4.033   6.958   5.014
31526WAT      O94819   8.198   3.780   0.408
31526WAT     H194820   8.109   3.825   0.400
31526WAT     H294821   8.253   3.828   0.476
31527WAT      O94822   9.343   3.785   2.762
31527WAT     H194823   9.360   3.798   2.664
31527WAT     H294824   9.382   3.861   2.814
31528WAT      O94825   9.652   5.800   1.022
31528WAT     H194826   9.557   5.818   0.997
31528WAT     H294827   9.657   5.717   1.077
31529WAT      O94828   7.638   8.226   7.137
31529WAT     H194829   7.640   8.264   7.230
31529WAT     H294830   7.731   8.220   7.101
31530WAT      O94831   6.227   4.625   1.159
31530WAT     H194832   6.275   4.713   1.161
31530WAT     H294833   6.144   4.634   1.104
31531WAT      O94834   2.798   5.835   2.154
31531WAT     H194835   2.829   5.929   2.136
31531WAT     H294836   2.797   5.818   2.252
31532WAT      O94837   5.197   7.583   4.169
31532WAT     H194838   5.230   7.593   4.075
31532WAT     H294839   5.214   7.667   4.220
31533WAT      O94840   9.751   1.941   8.308
31533WAT     H194841   9.741   2.031   8.351
31533WAT     H294842   9.840   1.936   8.263
31534WAT      O94843   7.391   9.236   8.415
31534WAT     H194844   7.434   9.145   8.414
31534WAT     H294845   7.331   9.243   8.495
31535WAT      O94846   8.239   8.922   8.383
31535WAT     H194847   8.224   8.915   8.482
31535WAT     H294848   8.154   8.947   8.338
31536WAT      O94849   3.552   5.265   0.843
31536WAT     H194850   3.592   5.277   0.934
31536WAT     H294851   3.475   5.328   0.832
31537WAT      O94852   0.742   1.096   6.149
31537WAT     H194853   0.732   1.000   6.121
31537WAT     H294854   0.789   1.147   6.076
31538WAT      O94855   5.501   6.542   0.801
31538WAT     H194856   5.519   6.632   0.761
31538WAT     H294857   5.563   6.526   0.878
31539WAT      O94858   3.383   5.115   4.875
31539WAT     H194859   3.339   5.192   4.921
31539WAT     H294860   3.357   5.030   4.921
31540WAT      O94861   0.071   0.072   9.005
31540WAT     H194862   0.075   0.045   8.908
31540WAT     H294863  -0.024   0.069   9.036
31541WAT      O94864   9.597   4.774   6.140
31541WAT     H194865   9.535   4.811   6.071
31541WAT     H294866   9.639   4.690   6.106
31542WAT      O94867   1.803   4.520   7.581
31542WAT     H194868   1.773   4.614   7.595
31542WAT     H294869   1.782   4.491   7.488
31543WAT      O94870   6.269   2.955   4.972
31543WAT     H194871   6.308   2.963   5.064
31543WAT     H294872   6.172   2.933   4.978
31544WAT      O94873   0.505   4.497   0.293
31544WAT     H194874   0.559   4.418   0.322
31544WAT     H294875   0.488   4.492   0.195
31545WAT      O94876   3.421   1.805   4.149
31545WAT     H194877   3.489   1.785   4.220
31545WAT     H294878   3.466   1.846   4.070
31546WAT      O94879   3.621   1.085   9.786
31546WAT     H194880   3.571   1.057   9.868
31546WAT     H294881   3.685   1.013   9.760
31547WAT      O94882   5.378   9.653   6.652
31547WAT     H194883   5.329   9.730   6.693
31547WAT     H294884   5.426   9.684   6.569
31548WAT      O94885   3.734   3.991   6.870
31548WAT     H194886   3.652   4.039   6.900
31548WAT     H294887   3.708   3.905   6.825
31549WAT      O94888   3.675   5.939   3.973
31549WAT     H194889   3.714   5.959   4.063
31549WAT     H294890   3.586   5.894   3.984
31550WAT      O94891   1.653   9.289   9.393
31550WAT     H194892   1.735   9.242   9.361
31550WAT     H294893   1.663   9.309   9.490
31551WAT      O94894   3.844   1.398   4.621
31551WAT     H194895   3.880   1.489   4.602
31551WAT     H294896   3.885   1.332   4.557
31552WAT      O94897   8.431   0.188   4.489
31552WAT     H194898   8.501   0.157   4.424
31552WAT     H294899   8.465   0.269   4.537
31553WAT      O94900   7.439   5.070   9.306
31553WAT     H194901   7.486   5.148   9.348
31553WAT     H294902   7.500   5.025   9.241
31554WAT      O94903   4.072   7.033   5.619
31554WAT     H194904   4.097   7.119   5.664
31554WAT     H294905   4.152   6.995   5.572
31555WAT      O94906   0.958   7.883   5.860
31555WAT     H194907   1.018   7.863   5.783
31555WAT     H294908   0.997   7.956   5.915
31556WAT      O94909   9.519   8.388   7.865
31556WAT     H194910   9.431   8.432   7.846
31556WAT     H294911   9.582   8.407   7.789
31557WAT      O94912   8.086   7.394   6.486
31557WAT     H194913   8.174   7.373   6.530
31557WAT     H294914   8.012   7.375   6.550
31558WAT      O94915   7.590   7.096   2.873
31558WAT     H194916   7.533   7.036   2.817
31558WAT     H294917   7.611   7.180   2.822
31559WAT      O94918   2.269   9.718   4.629
31559WAT     H194919   2.340   9.788   4.639
31559WAT     H294920   2.289   9.662   4.548
31560WAT      O94921   1.421   2.174   0.825
31560WAT     H194922   1.348   2.242   0.833
31560WAT     H294923   1.387   2.086   0.860
31561WAT      O94924   4.476   0.265   2.787
31561WAT     H194925   4.518   0.292   2.700
31561WAT     H294926   4.470   0.165   2.791
31562WAT      O94927   4.190   3.975   5.394
31562WAT     H194928   4.275   3.955   5.443
31562WAT     H294929   4.121   4.005   5.460
31563WAT      O94930   7.217   5.552   7.878
31563WAT     H194931   7.192   5.619   7.808
31563WAT     H294932   7.135   5.526   7.930
31564WAT      O94933   7.123   8.933   5.738
31564WAT     H194934   7.023   8.932   5.733
31564WAT     H294935   7.161   8.889   5.657
31565WAT      O94936   0.832   2.084   2.558
31565WAT     H194937   0.840   2.056   2.462
31565WAT     H294938   0.834   2.004   2.617
31566WAT      O94939   0.930   6.700   2.523
31566WAT     H194940   0.864   6.752   2.577
31566WAT     H294941   0.896   6.606   2.510
31567WAT      O94942   2.509   6.192   5.319
31567WAT     H194943   2.589   6.136   5.301
31567WAT     H294944   2.454   6.201   5.236
31568WAT      O94945   7.255   4.455   9.061
31568WAT     H194946   7.259   4.358   9.085
31568WAT     H294947   7.330   4.477   8.999
31569WAT      O94948   5.708   6.422   2.223
31569WAT     H194949   5.668   6.331   2.236
31569WAT     H294950   5.743   6.456   2.310
31570WAT      O94951   5.777   2.029   2.351
31570WAT     H194952   5.711   2.019   2.425
31570WAT     H294953   5.811   2.123   2.349
31571WAT      O94954   6.539   9.441   1.468
31571WAT     H194955   6.510   9.370   1.531
31571WAT     H294956   6.521   9.412   1.374
31572WAT      O94957   3.804   8.508   5.037
31572WAT     H194958   3.765   8.530   5.126
31572WAT     H294959   3.899   8.539   5.033
31573WAT      O94960   1.958   8.475   6.876
31573WAT     H194961   2.037   8.519   6.833
31573WAT     H294962   1.974   8.463   6.973
31574WAT      O94963   8.436   0.961   5.276
31574WAT     H194964   8.498   0.985   5.202
31574WAT     H294965   8.371   0.891   5.244
31575WAT      O94966   5.160   8.659   5.162
31575WAT     H194967   5.193   8.595   5.092
31575WAT     H294968   5.141   8.748   5.121
31576WAT      O94969   8.198   9.090   2.344
31576WAT     H194970   8.228   9.153   2.273
31576WAT     H294971   8.130   9.135   2.401
31577WAT      O94972   6.183   0.506   1.034
31577WAT     H194973   6.261   0.556   1.073
31577WAT     H294974   6.106   0.568   1.022
31578WAT      O94975   1.297   0.219   3.403
31578WAT     H194976   1.390   0.235   3.371
31578WAT     H294977   1.297   0.143   3.468
31579WAT      O94978   6.920   9.417   0.935
31579WAT     H194979   6.959   9.329   0.964
31579WAT     H294980   6.821   9.416   0.950
31580WAT      O94981   3.645   5.566   6.800
31580WAT     H194982   3.735   5.531   6.827
31580WAT     H294983   3.577   5.494   6.815
31581WAT      O94984   3.062   9.334   9.322
31581WAT     H194985   2.970   9.333   9.285
31581WAT     H294986   3.103   9.424   9.307
31582WAT      O94987   4.344   3.168   6.489
31582WAT     H194988   4.270   3.233   6.469
31582WAT     H294989   4.315   3.076   6.464
31583WAT      O94990   7.576   0.695   0.047
31583WAT     H194991   7.664   0.699   0.095
31583WAT     H294992   7.509   0.752   0.095
31584WAT      O94993   1.295   8.080   3.308
31584WAT     H194994   1.271   8.153   3.372
31584WAT     H294995   1.384   8.098   3.268
31585WAT      O94996   3.738   5.056   7.795
31585WAT     H194997   3.695   5.105   7.719
31585WAT     H294998   3.799   4.986   7.759
31586WAT      O94999   3.164   6.996   8.565
31586WAT     H195000   3.201   6.909   8.597
31586WAT     H295001   3.123   7.045   8.642
31587WAT      O95002   2.908   6.199   3.505
31587WAT     H195003   2.990   6.176   3.454
31587WAT     H295004   2.932   6.216   3.600
31588WAT      O95005   3.115   6.159   4.063
31588WAT     H195006   3.180   6.156   3.987
31588WAT     H295007   3.145   6.094   4.134
31589WAT      O95008   5.253   2.227   8.393
31589WAT     H195009   5.251   2.130   8.367
31589WAT     H295010   5.335   2.270   8.355
31590WAT      O95011   1.817   8.196   7.969
31590WAT     H195012   1.883   8.166   8.037
31590WAT     H295013   1.732   8.143   7.980
31591WAT      O95014   8.706   2.543   9.548
31591WAT     H195015   8.636   2.505   9.609
31591WAT     H295016   8.662   2.577   9.464
31592WAT      O95017   3.044   0.838   4.443
31592WAT     H195018   3.137   0.809   4.465
31592WAT     H295019   3.017   0.911   4.506
31593WAT      O95020   1.782   1.830   5.776
31593WAT     H195021   1.776   1.852   5.679
31593WAT     H295022   1.697   1.858   5.822
31594WAT      O95023   3.977   4.268   0.590
31594WAT     H195024   4.032   4.185   0.584
31594WAT     H295025   3.957   4.288   0.686
31595WAT      O95026   3.768   0.900   2.383
31595WAT     H195027   3.774   0.908   2.283
31595WAT     H295028   3.697   0.834   2.408
31596WAT      O95029   1.840   8.418   5.021
31596WAT     H195030   1.849   8.462   5.110
31596WAT     H295031   1.914   8.352   5.008
31597WAT      O95032   4.401   8.392   9.525
31597WAT     H195033   4.325   8.400   9.461
31597WAT     H295034   4.366   8.387   9.619
31598WAT      O95035   0.854   6.279   6.511
31598WAT     H195036   0.801   6.202   6.476
31598WAT     H295037   0.930   6.298   6.449
31599WAT      O95038   9.837   5.215   7.502
31599WAT     H195039   9.839   5.312   7.529
31599WAT     H295040   9.834   5.209   7.402
31600WAT      O95041   1.936   8.300   1.936
31600WAT     H195042   1.900   8.218   1.980
31600WAT     H295043   1.960   8.368   2.005
31601WAT      O95044   2.233   2.946   7.318
31601WAT     H195045   2.198   2.950   7.224
31601WAT     H295046   2.156   2.932   7.381
31602WAT      O95047   0.554   5.200   5.529
31602WAT     H195048   0.478   5.194   5.593
31602WAT     H295049   0.532   5.264   5.456
31603WAT      O95050   5.926   8.616   6.486
31603WAT     H195051   5.828   8.623   6.464
31603WAT     H295052   5.954   8.698   6.535
31604WAT      O95053   7.542   7.538   7.080
31604WAT     H195054   7.496   7.490   7.006
31604WAT     H295055   7.526   7.490   7.166
31605WAT      O95056   6.587   4.196   4.870
31605WAT     H195057   6.622   4.125   4.931
31605WAT     H295058   6.488   4.206   4.885
31606WAT      O95059   7.343   6.365   6.774
31606WAT     H195060   7.244   6.377   6.770
31606WAT     H295061   7.386   6.415   6.699
31607WAT      O95062   2.166   9.355   8.201
31607WAT     H195063   2.146   9.415   8.279
31607WAT     H295064   2.265   9.356   8.183
31608WAT      O95065   2.755   5.081   4.435
31608WAT     H195066   2.733   5.136   4.355
31608WAT     H295067   2.679   5.019   4.455
31609WAT      O95068   9.624   5.049   6.963
31609WAT     H195069   9.609   4.950   6.970
31609WAT     H295070   9.549   5.090   6.910
31610WAT      O95071   8.325   0.412   9.587
31610WAT     H195072   8.243   0.441   9.537
31610WAT     H295073   8.330   0.463   9.674
31611WAT      O95074   7.920   5.745   4.245
31611WAT     H195075   7.856   5.821   4.253
31611WAT     H295076   7.886   5.667   4.298
31612WAT      O95077   6.514   8.649   5.719
31612WAT     H195078   6.528   8.635   5.816
31612WAT     H295079   6.508   8.561   5.672
31613WAT      O95080   9.815   7.893   8.476
31613WAT     H195081   9.737   7.878   8.536
31613WAT     H295082   9.785   7.893   8.381
31614WAT      O95083   3.370   8.524   8.342
31614WAT     H195084   3.291   8.541   8.400
31614WAT     H295085   3.454   8.545   8.393
31615WAT      O95086   6.263   0.310   9.054
31615WAT     H195087   6.179   0.353   9.023
31615WAT     H295088   6.336   0.326   8.987
31616WAT      O95089   5.516   5.075   6.780
31616WAT     H195090   5.525   5.111   6.873
31616WAT     H295091   5.447   5.128   6.730
31617WAT      O95092   8.778   2.937   1.172
31617WAT     H195093   8.766   3.036   1.163
31617WAT     H295094   8.855   2.907   1.117
31618WAT      O95095   7.674   0.152   4.738
31618WAT     H195096   7.628   0.229   4.694
31618WAT     H295097   7.628   0.067   4.711
31619WAT      O95098   0.510   6.282   0.414
31619WAT     H195099   0.507   6.186   0.386
31619WAT     H295100   0.488   6.290   0.511
31620WAT      O95101   2.284   7.008   3.054
31620WAT     H195102   2.255   7.088   3.001
31620WAT     H295103   2.371   6.975   3.020
31621WAT      O95104   5.910   6.361   2.043
31621WAT     H195105   5.850   6.361   2.122
31621WAT     H295106   5.990   6.304   2.061
31622WAT      O95107   8.200   0.351   1.992
31622WAT     H195108   8.178   0.281   2.059
31622WAT     H295109   8.217   0.308   1.903
31623WAT      O95110   0.321   8.132   8.934
31623WAT     H195111   0.289   8.225   8.917
31623WAT     H295112   0.253   8.066   8.901
31624WAT      O95113   7.461   4.728   3.299
31624WAT     H195114   7.397   4.799   3.328
31624WAT     H295115   7.477   4.664   3.374
31625WAT      O95116   2.319   4.312   0.736
31625WAT     H195117   2.249   4.346   0.673
31625WAT     H295118   2.402   4.367   0.727
31626WAT      O95119   0.113   0.728   5.640
31626WAT     H195120   0.207   0.761   5.629
31626WAT     H295121   0.105   0.635   5.604
31627WAT      O95122   2.637   6.097   8.849
31627WAT     H195123   2.710   6.056   8.904
31627WAT     H295124   2.666   6.186   8.815
31628WAT      O95125   6.032   1.119   9.705
31628WAT     H195126   6.071   1.028   9.713
31628WAT     H295127   6.106   1.187   9.705
31629WAT      O95128   6.780   3.419   7.818
31629WAT     H195129   6.716   3.423   7.741
31629WAT     H295130   6.747   3.478   7.891
31630WAT      O95131   1.504   7.645   6.359
31630WAT     H195132   1.515   7.665   6.261
31630WAT     H295133   1.411   7.612   6.375
31631WAT      O95134   2.019   5.647   8.515
31631WAT     H195135   2.105   5.611   8.552
31631WAT     H295136   2.040   5.722   8.452
31632WAT      O95137   5.210   2.671   5.184
31632WAT     H195138   5.162   2.615   5.115
31632WAT     H295139   5.277   2.730   5.139
31633WAT      O95140   8.491   4.259   1.088
31633WAT     H195141   8.569   4.310   1.050
31633WAT     H295142   8.522   4.169   1.118
31634WAT      O95143   2.755   4.893   1.419
31634WAT     H195144   2.817   4.822   1.452
31634WAT     H295145   2.695   4.855   1.349
31635WAT      O95146   6.109   7.375   8.809
31635WAT     H195147   6.142   7.377   8.714
31635WAT     H295148   6.059   7.459   8.828
31636WAT      O95149   1.945   1.987   9.052
31636WAT     H195150   1.901   2.075   9.033
31636WAT     H295151   1.901   1.944   9.131
31637WAT      O95152   8.153   1.642   5.568
31637WAT     H195153   8.111   1.708   5.631
31637WAT     H295154   8.098   1.638   5.484
31638WAT      O95155   6.990   5.162   9.282
31638WAT     H195156   6.965   5.097   9.211
31638WAT     H295157   7.044   5.115   9.352
31639WAT      O95158   7.526   0.002   9.533
31639WAT     H195159   7.597  -0.049   9.582
31639WAT     H295160   7.549   0.099   9.533
31640WAT      O95161   8.990   2.956   8.489
31640WAT     H195162   8.901   2.919   8.461
31640WAT     H295163   8.980   3.054   8.508
31641WAT      O95164   2.123   0.426   5.213
31641WAT     H195165   2.157   0.381   5.130
31641WAT     H295166   2.073   0.360   5.268
31642WAT      O95167   3.481   4.618   6.680
31642WAT     H195168   3.531   4.700   6.654
31642WAT     H295169   3.537   4.537   6.661
31643WAT      O95170   1.407   2.822   8.001
31643WAT     H195171   1.321   2.852   8.043
31643WAT     H295172   1.435   2.734   8.039
31644WAT      O95173   2.479   9.618   4.160
31644WAT     H195174   2.411   9.655   4.096
31644WAT     H295175   2.528   9.694   4.204
31645WAT      O95176   8.494   9.348   0.620
31645WAT     H195177   8.426   9.279   0.646
31645WAT     H295178   8.579   9.302   0.596
31646WAT      O95179   8.515   6.189   6.604
31646WAT     H195180   8.528   6.117   6.536
31646WAT     H295181   8.605   6.217   6.640
31647WAT      O95182   3.915   7.701   2.369
31647WAT     H195183   3.933   7.606   2.344
31647WAT     H295184   3.936   7.760   2.291
31648WAT      O95185   1.635   4.629   4.593
31648WAT     H195186   1.579   4.582   4.662
31648WAT     H295187   1.652   4.567   4.516
31649WAT      O95188   8.432   6.588   5.017
31649WAT     H195189   8.356   6.579   4.954
31649WAT     H295190   8.419   6.668   5.075
31650WAT      O95191   3.425   6.655   0.154
31650WAT     H195192   3.344   6.624   0.104
31650WAT     H295193   3.411   6.749   0.185
31651WAT      O95194   8.540   0.863   5.762
31651WAT     H195195   8.551   0.958   5.791
31651WAT     H295196   8.534   0.860   5.662
31652WAT      O95197   1.823   4.142   1.363
31652WAT     H195198   1.844   4.086   1.444
31652WAT     H295199   1.883   4.222   1.363
31653WAT      O95200   4.932   3.554   6.482
31653WAT     H195201   4.982   3.493   6.420
31653WAT     H295202   4.955   3.649   6.462
31654WAT      O95203   5.327   6.945   7.636
31654WAT     H195204   5.244   7.000   7.640
31654WAT     H295205   5.406   7.001   7.660
31655WAT      O95206   3.693   3.777   6.726
31655WAT     H195207   3.753   3.798   6.649
31655WAT     H295208   3.670   3.679   6.724
31656WAT      O95209   7.215   0.481   0.875
31656WAT     H195210   7.226   0.392   0.831
31656WAT     H295211   7.293   0.498   0.936
31657WAT      O95212   8.433   4.708   3.169
31657WAT     H195213   8.462   4.749   3.083
31657WAT     H295214   8.337   4.680   3.162
31658WAT      O95215   0.442   6.250   2.126
31658WAT     H195216   0.494   6.165   2.124
31658WAT     H295217   0.366   6.242   2.191
31659WAT      O95218   6.746   9.300   4.090
31659WAT     H195219   6.793   9.379   4.128
31659WAT     H295220   6.711   9.243   4.164
31660WAT      O95221   7.861   7.417   5.631
31660WAT     H195222   7.816   7.333   5.600
31660WAT     H295223   7.881   7.475   5.552
31661WAT      O95224   8.125   3.862   3.647
31661WAT     H195225   8.053   3.852   3.716
31661WAT     H295226   8.194   3.792   3.661
31662WAT      O95227   9.055   0.980   9.561
31662WAT     H195228   9.109   0.896   9.553
31662WAT     H295229   8.965   0.958   9.601
31663WAT      O95230   5.970   9.364   0.368
31663WAT     H195231   6.036   9.400   0.303
31663WAT     H295232   5.935   9.439   0.425
31664WAT      O95233   5.423   4.311   8.408
31664WAT     H195234   5.467   4.268   8.487
31664WAT     H295235   5.354   4.376   8.439
31665WAT      O95236   1.771   8.170   5.919
31665WAT     H195237   1.802   8.100   5.983
31665WAT     H295238   1.803   8.148   5.827
31666WAT      O95239   0.914   9.782   5.672
31666WAT     H195240   0.973   9.722   5.618
31666WAT     H295241   0.904   9.870   5.625
31667WAT      O95242   1.491   6.619   5.997
31667WAT     H195243   1.393   6.637   5.993
31667WAT     H295244   1.507   6.521   6.008
31668WAT      O95245   4.676   9.706   5.967
31668WAT     H195246   4.753   9.642   5.967
31668WAT     H295247   4.694   9.780   6.032
31669WAT      O95248   7.794   6.747   6.909
31669WAT     H195249   7.735   6.760   6.989
31669WAT     H295250   7.819   6.836   6.872
31670WAT      O95251   8.632   1.498   4.533
31670WAT     H195252   8.674   1.459   4.451
31670WAT     H295253   8.572   1.430   4.576
31671WAT      O95254   9.756   1.230   4.922
31671WAT     H195255   9.750   1.286   5.005
31671WAT     H295256   9.680   1.253   4.861
31672WAT      O95257   5.051   5.086   3.060
31672WAT     H195258   5.086   4.999   3.024
31672WAT     H295259   4.971   5.069   3.118
31673WAT      O95260   3.486   1.363   3.736
31673WAT     H195261   3.445   1.446   3.698
31673WAT     H295262   3.505   1.298   3.663
31674WAT      O95263   2.186   8.519   3.729
31674WAT     H195264   2.203   8.614   3.757
31674WAT     H295265   2.141   8.519   3.639
31675WAT      O95266   7.901   5.209   0.425
31675WAT     H195267   7.919   5.304   0.399
31675WAT     H295268   7.941   5.191   0.514
31676WAT      O95269   6.761   4.203   1.219
31676WAT     H195270   6.720   4.258   1.292
31676WAT     H295271   6.825   4.137   1.258
31677WAT      O95272   0.609   8.694   6.577
31677WAT     H195273   0.661   8.731   6.654
31677WAT     H295274   0.511   8.703   6.596
31678WAT      O95275   3.883   9.156   9.853
31678WAT     H195276   3.888   9.250   9.818
31678WAT     H295277   3.970   9.110   9.836
31679WAT      O95278   8.394   6.943   2.296
31679WAT     H195279   8.317   6.980   2.245
31679WAT     H295280   8.413   7.001   2.376
31680WAT      O95281   6.450   0.621   1.507
31680WAT     H195282   6.475   0.524   1.515
31680WAT     H295283   6.533   0.676   1.497
31681WAT      O95284   3.537   0.479   8.242
31681WAT     H195285   3.507   0.444   8.154
31681WAT     H295286   3.470   0.543   8.277
31682WAT      O95287   3.003   4.919   5.931
31682WAT     H195288   2.974   5.007   5.969
31682WAT     H295289   2.996   4.922   5.831
31683WAT      O95290   7.392   9.235   0.267
31683WAT     H195291   7.482   9.255   0.230
31683WAT     H295292   7.380   9.283   0.354
31684WAT      O95293   6.679   5.875   1.635
31684WAT     H195294   6.742   5.953   1.634
31684WAT     H295295   6.724   5.797   1.678
31685WAT      O95296   8.845   3.412   5.075
31685WAT     H195297   8.805   3.357   5.002
31685WAT     H295298   8.772   3.461   5.123
31686WAT      O95299   4.733   8.765   6.671
31686WAT     H195300   4.788   8.845   6.647
31686WAT     H295301   4.707   8.716   6.588
31687WAT      O95302   9.862   7.216   5.037
31687WAT     H195303   9.867   7.219   5.137
31687WAT     H295304   9.895   7.302   4.999
31688WAT      O95305   6.854   7.595   9.613
31688WAT     H195306   6.780   7.652   9.577
31688WAT     H295307   6.816   7.512   9.653
31689WAT      O95308   0.130   3.873   7.511
31689WAT     H195309   0.047   3.929   7.498
31689WAT     H295310   0.153   3.871   7.608
31690WAT      O95311   7.754   7.735   3.198
31690WAT     H195312   7.795   7.742   3.107
31690WAT     H295313   7.811   7.678   3.256
31691WAT      O95314   5.455   5.592   8.570
31691WAT     H195315   5.520   5.581   8.496
31691WAT     H295316   5.394   5.512   8.573
31692WAT      O95317   7.074   1.936   2.232
31692WAT     H195318   7.008   1.985   2.289
31692WAT     H295319   7.042   1.935   2.137
31693WAT      O95320   9.372   7.092   5.881
31693WAT     H195321   9.310   7.037   5.937
31693WAT     H295322   9.464   7.052   5.882
31694WAT      O95323   7.732   4.586   5.551
31694WAT     H195324   7.689   4.524   5.617
31694WAT     H295325   7.766   4.666   5.598
31695WAT      O95326   0.209   9.308   8.569
31695WAT     H195327   0.135   9.310   8.636
31695WAT     H295328   0.295   9.289   8.615
31696WAT      O95329   3.293   9.711   2.328
31696WAT     H195330   3.271   9.809   2.325
31696WAT     H295331   3.387   9.697   2.297
31697WAT      O95332   1.545   3.598   0.998
31697WAT     H195333   1.477   3.671   1.000
31697WAT     H295334   1.500   3.511   1.020
31698WAT      O95335   2.690   2.762   2.898
31698WAT     H195336   2.670   2.670   2.932
31698WAT     H295337   2.742   2.755   2.812
31699WAT      O95338   9.703   6.823   5.286
31699WAT     H195339   9.621   6.779   5.250
31699WAT     H295340   9.777   6.757   5.291
31700WAT      O95341   2.474   6.264   3.275
31700WAT     H195342   2.560   6.239   3.229
31700WAT     H295343   2.450   6.358   3.253
31701WAT      O95344   8.993   2.366   2.970
31701WAT     H195345   8.961   2.301   2.900
31701WAT     H295346   9.092   2.374   2.965
31702WAT      O95347   3.973   1.981   6.586
31702WAT     H195348   3.924   2.068   6.589
31702WAT     H295349   4.045   1.982   6.656
31703WAT      O95350   3.361   2.393   2.522
31703WAT     H195351   3.380   2.489   2.501
31703WAT     H295352   3.435   2.336   2.487
31704WAT      O95353   7.890   9.249   5.511
31704WAT     H195354   7.985   9.278   5.501
31704WAT     H295355   7.856   9.276   5.601
31705WAT      O95356   4.402   8.020   6.459
31705WAT     H195357   4.333   8.026   6.532
31705WAT     H295358   4.356   8.018   6.370
31706WAT      O95359   4.110   7.293   7.035
31706WAT     H195360   4.065   7.269   7.121
31706WAT     H295361   4.066   7.373   6.995
31707WAT      O95362   2.762   1.915   7.970
31707WAT     H195363   2.751   1.976   7.891
31707WAT     H295364   2.688   1.848   7.971
31708WAT      O95365   7.459   2.623   7.086
31708WAT     H195366   7.538   2.670   7.124
31708WAT     H295367   7.489   2.550   7.024
31709WAT      O95368   7.568   9.721   1.884
31709WAT     H195369   7.600   9.626   1.885
31709WAT     H295370   7.508   9.737   1.962
31710WAT      O95371   6.349   6.142   0.382
31710WAT     H195372   6.327   6.054   0.425
31710WAT     H295373   6.435   6.133   0.332
31711WAT      O95374   0.452   5.766   3.907
31711WAT     H195375   0.514   5.824   3.960
31711WAT     H295376   0.426   5.813   3.823
31712WAT      O95377   7.691   5.759   8.464
31712WAT     H195378   7.619   5.792   8.402
31712WAT     H295379   7.768   5.823   8.463
31713WAT      O95380   9.169   7.559   7.484
31713WAT     H195381   9.094   7.609   7.526
31713WAT     H295382   9.256   7.603   7.507
31714WAT      O95383   2.913   5.518   4.865
31714WAT     H195384   2.839   5.524   4.931
31714WAT     H295385   2.956   5.428   4.871
31715WAT      O95386   0.719   2.422   3.010
31715WAT     H195387   0.738   2.344   2.951
31715WAT     H295388   0.790   2.491   2.997
31716WAT      O95389   9.145   7.801   0.439
31716WAT     H195390   9.238   7.767   0.425
31716WAT     H295391   9.147   7.876   0.505
31717WAT      O95392   3.259   2.217   3.582
31717WAT     H195393   3.178   2.188   3.530
31717WAT     H295394   3.338   2.164   3.552
31718WAT      O95395   4.929   3.192   9.758
31718WAT     H195396   4.976   3.125   9.700
31718WAT     H295397   4.833   3.165   9.769
31719WAT      O95398   7.876   4.804   2.908
31719WAT     H195399   7.858   4.895   2.946
31719WAT     H295400   7.853   4.734   2.976
31720WAT      O95401   8.206   6.661   2.134
31720WAT     H195402   8.251   6.678   2.221
31720WAT     H295403   8.127   6.722   2.125
31721WAT      O95404   7.602   7.390   3.924
31721WAT     H195405   7.609   7.465   3.989
31721WAT     H295406   7.694   7.355   3.903
31722WAT      O95407   1.846   9.541   9.140
31722WAT     H195408   1.855   9.450   9.099
31722WAT     H295409   1.749   9.563   9.151
31723WAT      O95410   8.088   7.062   5.310
31723WAT     H195411   8.084   7.101   5.218
31723WAT     H295412   7.997   7.065   5.351
31724WAT      O95413   2.630   8.873   0.782
31724WAT     H195414   2.547   8.821   0.801
31724WAT     H295415   2.687   8.824   0.716
31725WAT      O95416   2.210   4.652   7.563
31725WAT     H195417   2.153   4.577   7.596
31725WAT     H295418   2.182   4.677   7.470
31726WAT      O95419   1.804   1.415   6.904
31726WAT     H195420   1.729   1.477   6.881
31726WAT     H295421   1.848   1.383   6.819
31727WAT      O95422   4.251   1.776   9.216
31727WAT     H195423   4.166   1.726   9.197
31727WAT     H295424   4.296   1.735   9.296
31728WAT      O95425   0.124   6.213   7.134
31728WAT     H195426   0.062   6.292   7.132
31728WAT     H295427   0.134   6.176   7.042
31729WAT      O95428   3.600   2.784   3.005
31729WAT     H195429   3.510   2.794   2.963
31729WAT     H295430   3.662   2.741   2.940
31730WAT      O95431   1.970   7.710   1.796
31730WAT     H195432   2.035   7.700   1.720
31730WAT     H295433   2.021   7.717   1.882
31731WAT      O95434   5.411   3.461   5.825
31731WAT     H195435   5.436   3.546   5.777
31731WAT     H295436   5.471   3.387   5.795
31732WAT      O95437   9.609   2.388   5.569
31732WAT     H195438   9.668   2.307   5.576
31732WAT     H295439   9.549   2.392   5.648
31733WAT      O95440   9.321   8.412   1.196
31733WAT     H195441   9.319   8.473   1.275
31733WAT     H295442   9.377   8.333   1.216
31734WAT      O95443   2.782   5.148   5.036
31734WAT     H195444   2.859   5.181   4.982
31734WAT     H295445   2.791   5.179   5.131
31735WAT      O95446   3.152   0.378   9.686
31735WAT     H195447   3.242   0.337   9.699
31735WAT     H295448   3.135   0.446   9.757
31736WAT      O95449   5.630   2.093   1.294
31736WAT     H195450   5.582   2.011   1.326
31736WAT     H295451   5.635   2.093   1.195
31737WAT      O95452   7.134   9.174   5.407
31737WAT     H195453   7.108   9.092   5.356
31737WAT     H295454   7.233   9.187   5.400
31738WAT      O95455   6.325   5.040   1.411
31738WAT     H195456   6.344   5.103   1.486
31738WAT     H295457   6.227   5.041   1.391
31739WAT      O95458   4.688   4.202   5.795
31739WAT     H195459   4.755   4.192   5.722
31739WAT     H295460   4.692   4.122   5.855
31740WAT      O95461   4.451   6.243   2.812
31740WAT     H195462   4.391   6.283   2.743
31740WAT     H295463   4.460   6.145   2.795
31741WAT      O95464   8.940   9.000   6.104
31741WAT     H195465   8.958   8.954   6.191
31741WAT     H295466   8.917   8.932   6.034
31742WAT      O95467   5.818   9.401   8.135
31742WAT     H195468   5.832   9.416   8.037
31742WAT     H295469   5.766   9.317   8.149
31743WAT      O95470   9.472   2.072   4.243
31743WAT     H195471   9.393   2.025   4.279
31743WAT     H295472   9.555   2.042   4.291
31744WAT      O95473   5.750   5.931   4.836
31744WAT     H195474   5.716   6.023   4.818
31744WAT     H295475   5.673   5.868   4.847
31745WAT      O95476   4.940   6.633   3.032
31745WAT     H195477   5.003   6.700   2.993
31745WAT     H295478   4.991   6.566   3.085
31746WAT      O95479   8.608   8.007   3.762
31746WAT     H195480   8.654   8.035   3.847
31746WAT     H295481   8.609   7.907   3.755
31747WAT      O95482   1.618   4.436   1.573
31747WAT     H195483   1.641   4.505   1.642
31747WAT     H295484   1.615   4.346   1.617
31748WAT      O95485   2.536   7.071   8.652
31748WAT     H195486   2.598   6.993   8.653
31748WAT     H295487   2.573   7.143   8.711
31749WAT      O95488   9.218   4.167   0.594
31749WAT     H195489   9.263   4.108   0.661
31749WAT     H295490   9.282   4.235   0.561
31750WAT      O95491   9.754   3.672   3.125
31750WAT     H195492   9.849   3.644   3.135
31750WAT     H295493   9.735   3.693   3.029
31751WAT      O95494   2.659   1.065   4.608
31751WAT     H195495   2.651   0.974   4.648
31751WAT     H295496   2.600   1.128   4.658
31752WAT      O95497   8.919   0.788   7.751
31752WAT     H195498   8.979   0.709   7.757
31752WAT     H295499   8.974   0.872   7.746
31753WAT      O95500   8.856   7.136   6.063
31753WAT     H195501   8.797   7.211   6.096
31753WAT     H295502   8.802   7.076   6.004
31754WAT      O95503   3.924   5.465   8.403
31754WAT     H195504   3.962   5.386   8.452
31754WAT     H295505   3.993   5.537   8.396
31755WAT      O95506   0.200   9.245   4.651
31755WAT     H195507   0.200   9.197   4.739
31755WAT     H295508   0.109   9.284   4.634
31756WAT      O95509   8.691   6.964   8.277
31756WAT     H195510   8.620   6.982   8.346
31756WAT     H295511   8.755   7.040   8.275
31757WAT      O95512   5.818   9.602   7.725
31757WAT     H195513   5.828   9.700   7.709
31757WAT     H295514   5.874   9.575   7.803
31758WAT      O95515   9.423   1.670   3.332
31758WAT     H195516   9.488   1.697   3.403
31758WAT     H295517   9.394   1.751   3.281
31759WAT      O95518   5.129   2.058   0.370
31759WAT     H195519   5.047   2.109   0.396
31759WAT     H295520   5.196   2.063   0.444
31760WAT      O95521   4.633   2.133   0.362
31760WAT     H195522   4.569   2.202   0.397
31760WAT     H295523   4.727   2.165   0.375
31761WAT      O95524   9.010   0.002   8.115
31761WAT     H195525   9.099  -0.014   8.157
31761WAT     H295526   9.002   0.099   8.090
31762WAT      O95527   3.651   3.062   1.595
31762WAT     H195528   3.630   3.134   1.661
31762WAT     H295529   3.600   3.079   1.510
31763WAT      O95530   0.839   1.988   2.319
31763WAT     H195531   0.918   1.979   2.258
31763WAT     H295532   0.798   1.898   2.334
31764WAT      O95533   8.807   4.507   1.366
31764WAT     H195534   8.805   4.437   1.295
31764WAT     H295535   8.731   4.492   1.430
31765WAT      O95536   1.800   5.676   2.264
31765WAT     H195537   1.718   5.719   2.226
31765WAT     H295538   1.807   5.582   2.229
31766WAT      O95539   6.843   4.415   7.967
31766WAT     H195540   6.782   4.444   8.041
31766WAT     H295541   6.933   4.457   7.979
31767WAT      O95542   5.002   9.109   8.476
31767WAT     H195543   5.066   9.182   8.501
31767WAT     H295544   4.944   9.087   8.554
31768WAT      O95545   6.700   7.811   5.538
31768WAT     H195546   6.722   7.773   5.627
31768WAT     H295547   6.739   7.753   5.466
31769WAT      O95548   5.985   0.530   0.437
31769WAT     H195549   5.911   0.467   0.462
31769WAT     H295550   6.008   0.587   0.515
31770WAT      O95551   4.930   7.506   3.921
31770WAT     H195552   4.852   7.563   3.896
31770WAT     H295553   4.944   7.508   4.020
31771WAT      O95554   4.306   1.446   4.441
31771WAT     H195555   4.280   1.354   4.468
31771WAT     H295556   4.360   1.489   4.514
31772WAT      O95557   7.202   0.247   6.709
31772WAT     H195558   7.237   0.341   6.708
31772WAT     H295559   7.103   0.248   6.725
31773WAT      O95560   5.942   5.197   6.189
31773WAT     H195561   6.018   5.170   6.249
31773WAT     H295562   5.951   5.294   6.166
31774WAT      O95563   6.095   7.988   4.039
31774WAT     H195564   6.017   8.039   4.002
31774WAT     H295565   6.091   7.894   4.006
31775WAT      O95566   9.504   1.600   9.382
31775WAT     H195567   9.589   1.644   9.411
31775WAT     H295568   9.516   1.500   9.385
31776WAT      O95569   0.483   5.675   6.853
31776WAT     H195570   0.414   5.686   6.782
31776WAT     H295571   0.571   5.652   6.810
31777WAT      O95572   5.071   7.963   4.772
31777WAT     H195573   5.017   8.046   4.759
31777WAT     H295574   5.130   7.973   4.852
31778WAT      O95575   0.382   6.947   4.091
31778WAT     H195576   0.472   6.907   4.079
31778WAT     H295577   0.339   6.960   4.002
31779WAT      O95578   3.173   5.301   1.661
31779WAT     H195579   3.076   5.325   1.653
31779WAT     H295580   3.226   5.360   1.601
31780WAT      O95581   9.443   4.919   8.099
31780WAT     H195582   9.524   4.965   8.137
31780WAT     H295583   9.362   4.948   8.150
31781WAT      O95584   1.499   5.189   2.370
31781WAT     H195585   1.485   5.212   2.466
31781WAT     H295586   1.480   5.270   2.313
31782WAT      O95587   9.115   8.931   3.511
31782WAT     H195588   9.063   8.910   3.594
31782WAT     H295589   9.065   9.000   3.458
31783WAT      O95590   6.624   0.905   0.425
31783WAT     H195591   6.584   0.816   0.402
31783WAT     H295592   6.667   0.899   0.515
31784WAT      O95593   6.956   6.884   3.272
31784WAT     H195594   6.989   6.791   3.257
31784WAT     H295595   6.948   6.932   3.185
31785WAT      O95596   0.584   1.532   9.216
31785WAT     H195597   0.670   1.481   9.207
31785WAT     H295598   0.552   1.559   9.125
31786WAT      O95599   8.158   7.493   6.790
31786WAT     H195600   8.243   7.534   6.823
31786WAT     H295601   8.085   7.508   6.857
31787WAT      O95602   9.886   9.641   9.074
31787WAT     H195603   9.827   9.705   9.124
31787WAT     H295604   9.970   9.689   9.047
31788WAT      O95605   7.782   1.354   2.754
31788WAT     H195606   7.762   1.438   2.805
31788WAT     H295607   7.733   1.356   2.667
31789WAT      O95608   7.864   1.894   2.508
31789WAT     H195609   7.852   1.953   2.428
31789WAT     H295610   7.928   1.936   2.572
31790WAT      O95611   1.482   7.733   2.262
31790WAT     H195612   1.387   7.710   2.282
31790WAT     H295613   1.531   7.651   2.234
31791WAT      O95614   6.685   4.457   9.514
31791WAT     H195615   6.645   4.375   9.474
31791WAT     H295616   6.774   4.475   9.471
31792WAT      O95617   5.780   7.259   8.969
31792WAT     H195618   5.732   7.268   8.882
31792WAT     H295619   5.800   7.350   9.006
31793WAT      O95620   0.119   3.762   2.696
31793WAT     H195621   0.159   3.737   2.608
31793WAT     H295622   0.034   3.812   2.681
31794WAT      O95623   5.873   1.516   9.051
31794WAT     H195624   5.953   1.470   9.090
31794WAT     H295625   5.849   1.474   8.963
31795WAT      O95626   5.976   6.095   1.498
31795WAT     H195627   5.970   6.169   1.564
31795WAT     H295628   6.053   6.112   1.436
31796WAT      O95629   7.124   4.211   6.698
31796WAT     H195630   7.047   4.251   6.648
31796WAT     H295631   7.174   4.149   6.639
31797WAT      O95632   3.662   7.190   4.257
31797WAT     H195633   3.738   7.203   4.193
31797WAT     H295634   3.697   7.168   4.348
31798WAT      O95635   2.719   9.569   0.143
31798WAT     H195636   2.653   9.495   0.153
31798WAT     H295637   2.806   9.543   0.186
31799WAT      O95638   0.834   5.582   5.657
31799WAT     H195639   0.847   5.608   5.561
31799WAT     H295640   0.911   5.614   5.711
31800WAT      O95641   5.943   9.783   8.639
31800WAT     H195642   6.016   9.746   8.696
31800WAT     H295643   5.878   9.833   8.696
31801WAT      O95644   0.410   8.208   5.831
31801WAT     H195645   0.352   8.126   5.835
31801WAT     H295646   0.506   8.180   5.827
31802WAT      O95647   8.976   6.079   1.069
31802WAT     H195648   8.999   6.097   0.974
31802WAT     H295649   8.995   6.160   1.124
31803WAT      O95650   3.455   3.760   4.905
31803WAT     H195651   3.411   3.676   4.937
31803WAT     H295652   3.384   3.828   4.886
31804WAT      O95653   7.216   9.441   4.380
31804WAT     H195654   7.267   9.471   4.460
31804WAT     H295655   7.164   9.518   4.342
31805WAT      O95656   7.470   3.744   4.205
31805WAT     H195657   7.489   3.680   4.280
31805WAT     H295658   7.526   3.721   4.126
31806WAT      O95659   9.595   2.563   2.461
31806WAT     H195660   9.613   2.559   2.560
31806WAT     H295661   9.519   2.502   2.439
31807WAT      O95662   6.084   3.496   9.166
31807WAT     H195663   6.112   3.541   9.251
31807WAT     H295664   6.163   3.483   9.107
31808WAT      O95665   7.084   2.893   9.483
31808WAT     H195666   7.157   2.961   9.492
31808WAT     H295667   7.118   2.803   9.508
31809WAT      O95668   2.189   6.887   4.004
31809WAT     H195669   2.259   6.818   4.023
31809WAT     H295670   2.199   6.963   4.069
31810WAT      O95671   5.036   8.456   2.858
31810WAT     H195672   5.032   8.475   2.760
31810WAT     H295673   5.038   8.357   2.873
31811WAT      O95674   9.396   6.198   6.681
31811WAT     H195675   9.417   6.101   6.690
31811WAT     H295676   9.459   6.251   6.737
31812WAT      O95677   1.361   8.337   9.616
31812WAT     H195678   1.417   8.353   9.698
31812WAT     H295679   1.264   8.341   9.640
31813WAT      O95680   5.088   0.589   6.628
31813WAT     H195681   5.152   0.643   6.682
31813WAT     H295682   5.083   0.626   6.535
31814WAT      O95683   3.419   9.694   0.760
31814WAT     H195684   3.378   9.603   0.749
31814WAT     H295685   3.351   9.757   0.797
31815WAT      O95686   3.106   5.086   7.191
31815WAT     H195687   3.073   5.031   7.267
31815WAT     H295688   3.084   5.041   7.104
31816WAT      O95689   1.681   0.064   8.682
31816WAT     H195690   1.668   0.135   8.751
31816WAT     H295691   1.602   0.061   8.620
31817WAT      O95692   2.182   0.268   3.751
31817WAT     H195693   2.193   0.365   3.773
31817WAT     H295694   2.154   0.218   3.833
31818WAT      O95695   2.276   6.026   7.438
31818WAT     H195696   2.236   6.117   7.425
31818WAT     H295697   2.330   6.025   7.522
31819WAT      O95698   6.982   8.316   1.136
31819WAT     H195699   7.002   8.411   1.111
31819WAT     H295700   7.063   8.274   1.176
31820WAT      O95701   0.767   5.511   4.733
31820WAT     H195702   0.745   5.419   4.764
31820WAT     H295703   0.702   5.576   4.772
31821WAT      O95704   7.491   1.442   5.028
31821WAT     H195705   7.412   1.382   5.017
31821WAT     H295706   7.557   1.400   5.090
31822WAT      O95707   8.836   4.114   6.420
31822WAT     H195708   8.857   4.194   6.476
31822WAT     H295709   8.759   4.134   6.360
31823WAT      O95710   6.347   4.911   0.121
31823WAT     H195711   6.394   4.986   0.168
31823WAT     H295712   6.408   4.832   0.114
31824WAT      O95713   4.498   7.567   7.758
31824WAT     H195714   4.534   7.627   7.830
31824WAT     H295715   4.411   7.604   7.724
31825WAT      O95716   1.935   7.514   5.283
31825WAT     H195717   1.837   7.533   5.283
31825WAT     H295718   1.974   7.532   5.373
31826WAT      O95719   3.862   8.138   9.848
31826WAT     H195720   3.797   8.185   9.789
31826WAT     H295721   3.813   8.073   9.907
31827WAT      O95722   7.850   4.810   8.996
31827WAT     H195723   7.765   4.853   9.027
31827WAT     H295724   7.928   4.863   9.028
31828WAT      O95725   4.670   6.757   0.299
31828WAT     H195726   4.631   6.842   0.264
31828WAT     H295727   4.652   6.750   0.397
31829WAT      O95728   8.221   2.825   8.004
31829WAT     H195729   8.226   2.861   8.097
31829WAT     H295730   8.264   2.734   8.001
31830WAT      O95731   6.185   3.373   4.525
31830WAT     H195732   6.088   3.383   4.503
31830WAT     H295733   6.222   3.462   4.552
31831WAT      O95734   7.248   6.311   3.042
31831WAT     H195735   7.249   6.394   2.987
31831WAT     H295736   7.182   6.246   3.004
31832WAT      O95737   6.262   6.569   1.798
31832WAT     H195738   6.179   6.591   1.850
31832WAT     H295739   6.301   6.653   1.761
31833WAT      O95740   8.173   3.667   6.108
31833WAT     H195741   8.190   3.723   6.189
31833WAT     H295742   8.088   3.695   6.065
31834WAT      O95743   1.969   0.717   9.658
31834WAT     H195744   2.017   0.782   9.716
31834WAT     H295745   1.882   0.758   9.628
31835WAT      O95746   0.959   1.570   5.515
31835WAT     H195747   0.912   1.519   5.443
31835WAT     H295748   1.008   1.507   5.575
31836WAT      O95749   2.379   4.170   5.692
31836WAT     H195750   2.305   4.209   5.637
31836WAT     H295751   2.353   4.169   5.789
31837WAT      O95752   2.257   8.774   3.470
31837WAT     H195753   2.307   8.727   3.397
31837WAT     H295754   2.159   8.775   3.449
31838WAT      O95755   4.635   3.860   6.016
31838WAT     H195756   4.682   3.792   6.073
31838WAT     H295757   4.657   3.952   6.049
31839WAT      O95758   4.830   5.081   0.504
31839WAT     H195759   4.873   5.147   0.566
31839WAT     H295760   4.866   5.093   0.412
31840WAT      O95761   8.897   7.078   4.186
31840WAT     H195762   8.976   7.058   4.129
31840WAT     H295763   8.863   6.994   4.228
31841WAT      O95764   0.208   4.653   0.202
31841WAT     H195765   0.137   4.661   0.132
31841WAT     H295766   0.296   4.678   0.162
31842WAT      O95767   3.282   3.845   8.761
31842WAT     H195768   3.357   3.902   8.796
31842WAT     H295769   3.205   3.850   8.824
31843WAT      O95770   8.907   5.011   4.244
31843WAT     H195771   8.867   4.946   4.180
31843WAT     H295772   8.895   4.976   4.337
31844WAT      O95773   1.926   9.355   3.022
31844WAT     H195774   1.909   9.427   2.955
31844WAT     H295775   1.962   9.274   2.975
31845WAT      O95776   6.907   5.120   2.654
31845WAT     H195777   6.908   5.028   2.691
31845WAT     H295778   6.856   5.120   2.567
31846WAT      O95779   4.052   0.024   9.622
31846WAT     H195780   4.038   0.022   9.721
31846WAT     H295781   3.973  -0.016   9.577
31847WAT      O95782   4.038   7.006   7.558
31847WAT     H195783   3.996   7.090   7.593
31847WAT     H295784   4.060   6.945   7.634
31848WAT      O95785   2.085   8.633   6.685
31848WAT     H195786   2.064   8.587   6.599
31848WAT     H295787   2.127   8.721   6.667
31849WAT      O95788   7.927   7.583   0.246
31849WAT     H195789   7.912   7.670   0.198
31849WAT     H295790   7.855   7.518   0.221
31850WAT      O95791   0.748   5.505   2.734
31850WAT     H195792   0.682   5.574   2.764
31850WAT     H295793   0.785   5.531   2.645
31851WAT      O95794   9.868   0.996   6.114
31851WAT     H195795   9.885   0.949   6.200
31851WAT     H295796   9.929   0.960   6.043
31852WAT      O95797   8.385   3.425   2.718
31852WAT     H195798   8.339   3.450   2.633
31852WAT     H295799   8.468   3.479   2.728
31853WAT      O95800   3.446   5.567   3.301
31853WAT     H195801   3.446   5.521   3.390
31853WAT     H295802   3.354   5.563   3.261
31854WAT      O95803   1.189   3.646   0.356
31854WAT     H195804   1.149   3.563   0.395
31854WAT     H295805   1.264   3.621   0.295
31855WAT      O95806   1.735   9.278   1.167
31855WAT     H195807   1.697   9.226   1.243
31855WAT     H295808   1.767   9.367   1.200
31856WAT      O95809   2.940   1.663   7.718
31856WAT     H195810   2.847   1.668   7.683
31856WAT     H295811   2.949   1.583   7.777
31857WAT      O95812   4.812   7.112   1.732
31857WAT     H195813   4.879   7.142   1.800
31857WAT     H295814   4.860   7.068   1.656
31858WAT      O95815   6.076   5.338   9.001
31858WAT     H195816   6.132   5.343   8.919
31858WAT     H295817   6.130   5.367   9.081
31859WAT      O95818   6.038   9.702   5.255
31859WAT     H195819   5.967   9.670   5.317
31859WAT     H295820   5.996   9.748   5.177
31860WAT      O95821   5.105   7.254   0.405
31860WAT     H195822   5.187   7.216   0.362
31860WAT     H295823   5.055   7.181   0.452
31861WAT      O95824   5.770   7.682   8.126
31861WAT     H195825   5.778   7.582   8.117
31861WAT     H295826   5.743   7.705   8.219
31862WAT      O95827   9.184   2.893   7.115
31862WAT     H195828   9.087   2.876   7.099
31862WAT     H295829   9.231   2.805   7.128
31863WAT      O95830   0.273   7.221   7.846
31863WAT     H195831   0.370   7.212   7.823
31863WAT     H295832   0.248   7.149   7.912
31864WAT      O95833   7.642   6.098   1.264
31864WAT     H195834   7.569   6.165   1.253
31864WAT     H295835   7.731   6.141   1.250
31865WAT      O95836   0.039   3.604   7.435
31865WAT     H195837   0.103   3.679   7.454
31865WAT     H295838   0.091   3.521   7.416
31866WAT      O95839   7.295   8.216   2.506
31866WAT     H195840   7.318   8.151   2.578
31866WAT     H295841   7.203   8.198   2.473
31867WAT      O95842   1.183   8.549   3.132
31867WAT     H195843   1.226   8.484   3.194
31867WAT     H295844   1.164   8.504   3.044
31868WAT      O95845   1.301   1.766   7.118
31868WAT     H195846   1.235   1.764   7.193
31868WAT     H295847   1.258   1.804   7.036
31869WAT      O95848   8.484   6.449   9.552
31869WAT     H195849   8.420   6.469   9.477
31869WAT     H295850   8.475   6.519   9.622
31870WAT      O95851   0.154   5.068   1.319
31870WAT     H195852   0.184   5.065   1.223
31870WAT     H295853   0.227   5.035   1.378
31871WAT      O95854   5.122   9.066   9.335
31871WAT     H195855   5.135   9.025   9.426
31871WAT     H295856   5.134   9.165   9.342
31872WAT      O95857   0.063   8.414   1.275
31872WAT     H195858   0.122   8.361   1.336
31872WAT     H295859   0.049   8.363   1.190
31873WAT      O95860   4.718   3.786   0.128
31873WAT     H195861   4.662   3.853   0.177
31873WAT     H295862   4.772   3.733   0.193
31874WAT      O95863   5.678   5.696   3.957
31874WAT     H195864   5.676   5.749   3.872
31874WAT     H295865   5.640   5.605   3.940
31875WAT      O95866   6.690   4.064   6.508
31875WAT     H195867   6.733   4.151   6.532
31875WAT     H295868   6.670   4.012   6.591
31876WAT      O95869   5.220   9.622   0.502
31876WAT     H195870   5.298   9.646   0.444
31876WAT     H295871   5.204   9.523   0.497
31877WAT      O95872   4.356   1.535   0.029
31877WAT     H195873   4.351   1.496   0.121
31877WAT     H295874   4.452   1.548   0.003
31878WAT      O95875   9.785   1.499   1.103
31878WAT     H195876   9.726   1.570   1.141
31878WAT     H295877   9.789   1.422   1.166
31879WAT      O95878   1.475   7.532   1.736
31879WAT     H195879   1.456   7.522   1.639
31879WAT     H295880   1.574   7.539   1.751
31880WAT      O95881   9.437   1.271   4.261
31880WAT     H195882   9.395   1.336   4.325
31880WAT     H295883   9.366   1.227   4.207
31881WAT      O95884   5.981   6.633   0.528
31881WAT     H195885   6.051   6.587   0.473
31881WAT     H295886   6.006   6.729   0.540
31882WAT      O95887   1.131   1.431   4.466
31882WAT     H195888   1.113   1.519   4.510
31882WAT     H295889   1.124   1.358   4.533
31883WAT      O95890   8.415   1.333   1.156
31883WAT     H195891   8.406   1.322   1.255
31883WAT     H295892   8.325   1.351   1.116
31884WAT      O95893   0.403   6.689   1.405
31884WAT     H195894   0.486   6.650   1.446
31884WAT     H295895   0.403   6.673   1.306
31885WAT      O95896   3.609   1.532   2.963
31885WAT     H195897   3.656   1.510   2.877
31885WAT     H295898   3.511   1.529   2.948
31886WAT      O95899   6.310   1.555   0.704
31886WAT     H195900   6.215   1.552   0.675
31886WAT     H295901   6.321   1.627   0.773
31887WAT      O95902   0.704   1.505   8.738
31887WAT     H195903   0.707   1.548   8.828
31887WAT     H295904   0.677   1.409   8.748
31888WAT      O95905   4.468   6.770   1.345
31888WAT     H195906   4.498   6.847   1.289
31888WAT     H295907   4.548   6.723   1.383
31889WAT      O95908   6.955   4.197   4.160
31889WAT     H195909   6.939   4.098   4.156
31889WAT     H295910   6.958   4.234   4.067
31890WAT      O95911   5.858   4.632   7.180
31890WAT     H195912   5.921   4.696   7.138
31890WAT     H295913   5.879   4.539   7.149
31891WAT      O95914   0.521   7.493   0.242
31891WAT     H195915   0.499   7.443   0.158
31891WAT     H295916   0.605   7.455   0.282
31892WAT      O95917   7.973   2.706   0.937
31892WAT     H195918   7.927   2.656   0.863
31892WAT     H295919   8.000   2.796   0.905
31893WAT      O95920   4.530   8.069   7.975
31893WAT     H195921   4.453   8.090   8.035
31893WAT     H295922   4.592   8.148   7.972
31894WAT      O95923   8.608   9.632   4.835
31894WAT     H195924   8.665   9.709   4.863
31894WAT     H295925   8.571   9.587   4.917
31895WAT      O95926   5.201   9.003   8.783
31895WAT     H195927   5.163   8.911   8.777
31895WAT     H295928   5.293   9.005   8.744
31896WAT      O95929   7.004   3.923   7.537
31896WAT     H195930   7.078   3.861   7.509
31896WAT     H295931   7.031   3.971   7.620
31897WAT      O95932   1.768   8.045   9.160
31897WAT     H195933   1.709   8.096   9.224
31897WAT     H295934   1.768   8.091   9.071
31898WAT      O95935   1.262   3.798   2.639
31898WAT     H195936   1.242   3.803   2.541
31898WAT     H295937   1.360   3.785   2.652
31899WAT      O95938   0.893   5.199   1.908
31899WAT     H195939   0.836   5.197   1.990
31899WAT     H295940   0.984   5.165   1.930
   9.88928    9.84380    9.89279 
